Control file title. For DL_FIELD 4.10
49714
    1MOL     C1    1   0.310   5.072   0.704 -0.3701 -0.2491 -0.8431
    1MOL     O2    2   0.293   5.042   0.818 -0.4869 -0.3012 -0.1439
    1MOL     C3    3   0.424   5.166   0.661 -0.2388 -0.2847  0.2255
    1MOL     C4    4   0.495   5.243   0.780  0.5690 -0.2464  0.2291
    1MOL     C5    5   0.583   5.353   0.723  0.2009  1.0524 -0.5934
    1MOL     C6    6   0.657   5.421   0.839 -0.0957  0.0485  0.2751
    1MOL     C7    7   0.739   5.550   0.814  0.2025  0.5665 -0.4328
    1MOL     C8    8   0.662   5.683   0.787  0.4901 -0.5752  0.6121
    1MOL     C9    9   0.756   5.801   0.754  0.1957 -0.3863  0.1845
    1MOL    C10   10   0.669   5.934   0.713 -0.4736  0.4495 -0.0776
    1MOL    C11   11   0.614   6.009   0.840  0.1365  0.5588 -0.5068
    1MOL    C12   12   0.540   6.143   0.818 -0.2731 -0.3972 -0.3015
    1MOL    C13   13   0.552   6.240   0.933 -0.0693  0.0646 -0.5513
    1MOL    N14   14   0.457   6.347   0.910  0.4052  0.2052 -0.1101
    1MOL    H15   15   0.380   5.229   0.583  0.7060  0.8535  0.6153
    1MOL    H16   16   0.512   5.118   0.618 -1.1363 -0.5988 -1.3323
    1MOL    H17   17   0.418   5.285   0.845 -0.0211 -1.7118  0.5010
    1MOL    H18   18   0.547   5.167   0.838  0.0871 -0.5420  0.2741
    1MOL    H19   19   0.528   5.430   0.669 -0.5229 -0.0840 -1.5159
    1MOL    H20   20   0.655   5.318   0.648  0.8756  1.3805 -0.1042
    1MOL    H21   21   0.584   5.443   0.917 -1.3251 -0.0372 -0.8246
    1MOL    H22   22   0.718   5.345   0.888 -2.5093 -1.3261  1.2386
    1MOL    H23   23   0.811   5.526   0.735 -0.2567 -0.9448 -0.3917
    1MOL    H24   24   0.805   5.561   0.900 -2.0083 -0.2860  1.4102
    1MOL    H25   25   0.595   5.709   0.869  3.0442 -0.5208  2.7271
    1MOL    H26   26   0.590   5.665   0.706 -1.5183 -1.4792  2.5474
    1MOL    H27   27   0.808   5.766   0.666 -0.4899 -1.2719  0.1255
    1MOL    H28   28   0.834   5.825   0.826  1.7272 -0.2095 -1.5197
    1MOL    H29   29   0.585   5.898   0.654  1.5036 -2.7170 -1.1115
    1MOL    H30   30   0.733   5.998   0.653 -0.7085  2.5051  1.7965
    1MOL    H31   31   0.697   6.026   0.908 -0.7947  0.6944  0.6321
    1MOL    H32   32   0.545   5.942   0.891 -0.9546  0.6965 -1.7723
    1MOL    H33   33   0.435   6.129   0.793 -0.3279  0.8158 -0.7777
    1MOL    H34   34   0.586   6.195   0.734  0.1321 -2.7696 -1.6068
    1MOL    H35   35   0.653   6.281   0.931  0.5545 -1.5091 -1.6297
    1MOL    H36   36   0.540   6.181   1.024  1.9165 -0.8430 -0.8428
    1MOL    H37   37   0.481   6.422   0.847  0.2949  0.1511 -0.2152
    1MOL    H38   38   0.257   5.024   0.621 -1.6835  1.0215 -0.7480
    1MOL    C39   39   0.319   6.335   0.935 -0.9706 -0.4492  0.5849
    1MOL    O40   40   0.267   6.236   0.978 -0.0680 -0.2283 -0.2772
    1MOL    C41   41   0.242   6.459   0.896 -0.1535  0.3052 -0.5552
    1MOL    C42   42   0.090   6.438   0.864 -0.3345  0.1147  0.3981
    1MOL    C43   43   0.025   6.581   0.852 -0.0149 -0.4589 -0.4043
    1MOL    C44   44   7.589   6.579   0.778  0.4710 -0.7343 -0.6517
    1MOL    C45   45   7.536   6.725   0.764 -0.4999  0.7898 -0.7586
    1MOL    C46   46   7.391   6.728   0.710  0.2730  0.1126 -0.4808
    1MOL    C47   47   7.339   6.873   0.709 -1.0706 -0.3652 -0.4986
    1MOL    C48   48   7.201   6.871   0.641 -0.4373 -0.4687 -0.8333
    1MOL    C49   49   7.134   7.009   0.654 -0.5352  0.5692  0.0816
    1MOL    C50   50   6.994   7.001   0.583  0.4128  0.3518  0.0400
    1MOL    C51   51   6.907   7.129   0.597  0.5894 -0.8345  0.1020
    1MOL    N52   52   6.777   7.126   0.526 -0.5427 -0.1903 -0.8541
    1MOL    H53   53   0.282   6.494   0.800  1.2678 -1.2876 -0.5537
    1MOL    H54   54   0.267   6.541   0.964 -0.0470 -0.8449  0.7972
    1MOL    H55   55   0.087   6.390   0.767  0.1986  1.4038 -0.2690
    1MOL    H56   56   0.032   6.379   0.935  0.2783 -3.2000 -1.7548
    1MOL    H57   57   0.091   6.640   0.790  1.1951 -0.8575  0.4698
    1MOL    H58   58   0.027   6.624   0.953 -1.9542 -0.7717 -0.2040
    1MOL    H59   59   7.589   6.539   0.677 -2.0221 -0.7707 -0.6737
    1MOL    H60   60   7.519   6.519   0.836  0.7486  0.4368  0.9388
    1MOL    H61   61   7.597   6.787   0.699  1.1405 -0.5645 -0.5768
    1MOL    H62   62   7.530   6.758   0.868 -2.9244 -0.2096 -0.5557
    1MOL    H63   63   7.327   6.664   0.772 -1.2994  0.0296 -2.1355
    1MOL    H64   64   7.400   6.690   0.609  1.6466 -1.6169  0.2535
    1MOL    H65   65   7.415   6.943   0.674 -0.7405 -2.1289 -3.5416
    1MOL    H66   66   7.324   6.896   0.814  2.6720 -2.1522  0.5247
    1MOL    H67   67   7.141   6.792   0.686  0.0574  0.3721  1.3258
    1MOL    H68   68   7.222   6.844   0.537  2.5969 -0.6164 -0.2123
    1MOL    H69   69   7.187   7.088   0.600 -1.1697  1.0433  0.1476
    1MOL    H70   70   7.126   7.045   0.756 -3.4516 -0.9950  0.4413
    1MOL    H71   71   6.943   6.919   0.633  1.8246 -1.2140 -0.9772
    1MOL    H72   72   7.014   6.973   0.479  2.2922 -0.2369  0.5331
    1MOL    H73   73   6.957   7.224   0.579 -0.7791  0.6684  3.7796
    1MOL    H74   74   6.885   7.136   0.704  1.4415  0.1730  0.2178
    1MOL    H75   75   6.771   7.053   0.456 -0.0401  1.6998 -2.9492
    1MOL    C76   76   6.681   7.215   0.533  0.0408 -0.4045  0.5646
    1MOL    O77   77   6.697   7.325   0.582  0.5681  0.0532  0.5077
    1MOL    C78   78   6.555   7.187   0.456  0.0071  0.2269 -0.0860
    1MOL    C79   79   6.432   7.272   0.485  1.0117  0.2959 -0.4840
    1MOL    C80   80   6.372   7.234   0.629 -0.2324 -0.5178 -0.7774
    1MOL    C81   81   6.218   7.261   0.628 -0.2630  0.2649  0.2499
    1MOL    C82   82   6.192   7.403   0.586  0.3218 -0.5090  0.0785
    1MOL    C83   83   6.249   7.511   0.683  0.4819 -0.4964  0.5384
    1MOL    C84   84   6.243   7.653   0.622  0.5375 -0.3404  0.9006
    1MOL    C85   85   6.314   0.074   0.699  0.0461  0.2771 -0.1369
    1MOL    C86   86   6.459   0.052   0.720  0.3061  0.3975  0.0561
    1MOL    C87   87   6.546   0.028   0.596  0.6910  0.4777 -0.5987
    1MOL    C88   88   6.697   0.017   0.634  0.2087 -0.2161 -0.0530
    1MOL    N89   89   6.717   7.590   0.718  0.4706  0.4098 -0.1453
    1MOL    H90   90   6.529   7.083   0.475  1.3637  0.1936  1.7031
    1MOL    H91   91   6.569   7.196   0.348 -1.4366  3.0809 -0.0753
    1MOL    H92   92   6.449   7.379   0.470  0.4009  0.6148  1.0721
    1MOL    H93   93   6.354   7.259   0.410 -0.1722 -0.1251  0.8003
    1MOL    H94   94   6.421   7.290   0.709 -0.9289  0.2450 -0.8732
    1MOL    H95   95   6.389   7.128   0.645 -0.5333 -0.2937  1.0719
    1MOL    H96   96   6.188   7.185   0.556 -0.5928  1.7458 -1.2009
    1MOL    H97   97   6.173   7.234   0.724  1.4260 -0.2845  0.8938
    1MOL    H98   98   6.085   7.424   0.586  0.7822  1.9656 -0.4859
    1MOL    H99   99   6.210   7.412   0.479  1.2125 -1.4488  0.1398
    1MOL   H100  100   6.355   7.491   0.702  0.7647  0.4140 -0.0444
    1MOL   H101  101   6.196   7.498   0.777  1.7970 -1.8638  1.1145
    1MOL   H102  102   6.139   7.682   0.610  1.1087  0.6211 -2.3335
    1MOL   H103  103   6.282   7.646   0.520  2.4532  1.6317  1.4586
    1MOL   H104  104   6.271   0.080   0.799  1.7888 -0.9873  0.7110
    1MOL   H105  105   6.293   0.175   0.664  1.1140  0.7009  0.4185
    1MOL   H106  106   6.481   7.671   0.796  2.4099 -2.9285 -3.6259
    1MOL   H107  107   6.497   0.139   0.774  1.5502 -0.3401  0.3975
    1MOL   H108  108   6.529   0.109   0.526 -4.3888  1.9063  2.0622
    1MOL   H109  109   6.519   7.627   0.549  2.1380  0.3414 -1.1782
    1MOL   H110  110   6.737   0.105   0.684 -0.4364  1.2716 -2.0739
    1MOL   H111  111   6.748   7.693   0.539  0.0397 -1.1026  0.0201
    1MOL   H112  112   6.740   7.507   0.665  0.4128  1.1260 -1.3039
    1MOL   C113  113   6.716   7.589   0.849  0.6193 -0.6222  0.6846
    1MOL   O114  114   6.696   0.004   0.912 -0.2226 -0.5740  0.0288
    1MOL   C115  115   6.735   7.454   0.922  0.3931  0.0399  0.0968
    1MOL   C116  116   6.700   7.451   1.071  0.3167  0.2036  0.2036
    1MOL   C117  117   6.551   7.463   1.110 -0.0303 -0.6010  0.0377
    1MOL   C118  118   6.520   7.440   1.262  0.2618 -0.2964 -0.2254
    1MOL   C119  119   6.590   7.535   1.366 -0.1691 -0.4337 -0.1302
    1MOL   C120  120   6.492   7.615   1.457 -0.0080  0.6212  0.4513
    1MOL   C121  121   6.569   0.021   1.542 -0.0911  0.3045 -0.3370
    1MOL   C122  122   6.486   0.136   1.610 -0.5982 -0.3321  0.3634
    1MOL   C123  123   6.413   0.093   1.742 -0.9941 -0.1251  0.2720
    1MOL   C124  124   6.361   0.199   1.832 -0.5579  0.1726 -0.2298
    1MOL   C125  125   6.314   0.135   1.965  0.1801  0.1612  1.0869
    1MOL   N126  126   6.233   0.012   1.945 -0.3579  0.5312 -0.1142
    1MOL   H127  127   6.838   7.423   0.908  0.5422 -1.5477  4.0297
    1MOL   H128  128   6.668   7.379   0.880  0.6655 -0.3333  0.3346
    1MOL   H129  129   6.733   7.359   1.117  0.6851 -0.3655 -1.1613
    1MOL   H130  130   6.762   7.529   1.115 -0.7328  2.7228 -2.5069
    1MOL   H131  131   6.490   7.400   1.045  1.6618 -0.1569 -2.0548
    1MOL   H132  132   6.532   7.566   1.078 -0.8767 -0.2419  1.6775
    1MOL   H133  133   6.411   7.440   1.269  0.2969  0.4443  0.3791
    1MOL   H134  134   6.552   7.340   1.291  0.2997 -0.6642 -1.4905
    1MOL   H135  135   6.659   7.601   1.314  0.3904 -0.5330  0.4863
    1MOL   H136  136   6.654   7.487   1.440  0.4114  0.3652 -0.1124
    1MOL   H137  137   6.458   7.537   1.526 -0.4476 -0.6605 -1.1580
    1MOL   H138  138   6.406   7.634   1.392 -0.3693  1.4988  1.1838
    1MOL   H139  139   6.638   0.070   1.473  1.8553 -1.2643  0.4422
    1MOL   H140  140   6.630   7.663   1.616 -1.0294  0.2174  0.3762
    1MOL   H141  141   6.411   0.162   1.536 -0.4549 -1.3865 -0.1602
    1MOL   H142  142   6.557   0.217   1.627 -1.6238  0.4992  0.7159
    1MOL   H143  143   6.488   0.044   1.804 -1.7173 -2.3235 -0.5536
    1MOL   H144  144   6.333   0.027   1.708  0.0233 -0.8088 -0.7980
    1MOL   H145  145   6.276   0.250   1.788  0.4277  1.3092 -0.8689
    1MOL   H146  146   6.442   0.269   1.856  0.3583 -0.7913 -0.4719
    1MOL   H147  147   6.267   0.216   2.022 -0.4866  1.6756 -1.4927
    1MOL   H148  148   6.399   0.106   2.025  0.0220 -1.9511  0.3263
    1MOL   H149  149   6.288   7.621   1.952 -1.2845 -0.4911 -4.2370
    1MOL   C150  150   6.106   7.693   1.914  0.1680  0.3790  0.1244
    1MOL   O151  151   6.037   0.093   1.886 -0.1700 -0.0269 -0.3003
    1MOL   C152  152   6.057   7.548   1.914 -0.8454 -0.0238 -0.5479
    1MOL   C153  153   5.905   7.543   1.919 -0.0511 -0.0264 -0.1120
    1MOL   C154  154   5.859   7.397   1.908  0.1666 -0.4498 -1.0665
    1MOL   C155  155   5.706   7.389   1.911  0.2403 -0.4647 -0.3275
    1MOL   C156  156   5.628   7.421   1.787 -0.9869 -0.1249  0.0456
    1MOL   C157  157   5.475   7.394   1.792  0.5189  0.1715  0.5745
    1MOL   C158  158   5.394   7.416   1.662 -0.0533  0.0662  0.5754
    1MOL   C159  159   5.264   7.337   1.667 -0.1113  0.6985 -0.2453
    1MOL   C160  160   5.198   7.316   1.534  0.1266 -0.1946  0.0694
    1MOL   C161  161   5.058   7.249   1.552 -0.7776 -0.2074  0.4824
    1MOL   C162  162   5.000   7.216   1.411 -0.0679 -0.0698 -0.8221
    1MOL   N163  163   4.975   7.341   1.331 -0.2853  0.3159  0.4992
    1MOL   H164  164   6.101   7.497   2.000 -0.6200  0.6087 -0.2873
    1MOL   H165  165   6.082   7.511   1.814  0.9433  2.1051 -0.9383
    1MOL   H166  166   5.875   7.601   2.006  1.5479  1.2319 -0.3815
    1MOL   H167  167   5.871   7.596   1.830  1.7897  0.1585 -0.7082
    1MOL   H168  168   5.906   7.346   1.992 -0.2685 -0.0672 -0.5868
    1MOL   H169  169   5.893   7.361   1.811 -1.3801 -2.2096 -0.9836
    1MOL   H170  170   5.676   7.290   1.945 -1.7853  0.5639  1.0031
    1MOL   H171  171   5.664   7.449   1.993  0.5222 -0.9940  0.2059
    1MOL   H172  172   5.652   7.355   1.703  2.7613  2.4817 -1.0666
    1MOL   H173  173   5.649   7.519   1.744 -0.6237 -0.2794 -0.1342
    1MOL   H174  174   5.435   7.452   1.875  0.1941  0.4927  0.1940
    1MOL   H175  175   5.470   7.287   1.810 -1.6023 -0.0315 -1.1133
    1MOL   H176  176   5.453   7.373   1.581 -2.1883  0.1771 -1.0465
    1MOL   H177  177   5.382   7.519   1.627  1.2039 -0.2931 -0.9976
    1MOL   H178  178   5.198   7.396   1.731  1.7086  1.0880  1.3321
    1MOL   H179  179   5.279   7.236   1.707  0.6777 -0.1891 -2.6946
    1MOL   H180  180   5.270   7.255   1.479  1.4176  0.5306  0.9235
    1MOL   H181  181   5.187   7.404   1.471 -1.0748 -0.6714 -0.3976
    1MOL   H182  182   4.988   7.301   1.618  0.6809 -1.6214  3.2311
    1MOL   H183  183   5.064   7.154   1.604  0.7315 -0.4227 -0.0709
    1MOL   H184  184   4.905   7.162   1.417 -0.3612  0.6872  2.6685
    1MOL   H185  185   5.064   7.147   1.356  0.9453  2.0269 -2.3070
    1MOL   H186  186   4.887   7.384   1.355 -2.1052 -3.8501  1.7175
    1MOL   C187  187   5.035   7.384   1.223 -0.1966 -0.3665  0.6453
    1MOL   O188  188   5.128   7.324   1.170  0.0532  0.1710  0.9626
    1MOL   C189  189   4.985   7.513   1.157 -0.0306  0.2772 -0.0490
    1MOL   C190  190   4.929   7.485   1.012  0.3482  0.8944  0.1025
    1MOL   C191  191   4.798   7.399   0.999 -0.4547 -0.0493 -0.6523
    1MOL   C192  192   4.765   7.350   0.863  0.4664 -0.1447  0.5792
    1MOL   C193  193   4.695   7.457   0.773 -0.1431 -0.3716  0.5819
    1MOL   C194  194   4.689   7.406   0.631 -0.1108  0.1035  0.2455
    1MOL   C195  195   4.630   7.505   0.528  0.2405  0.0143  0.3320
    1MOL   C196  196   4.667   7.478   0.381  0.5965  0.0195  0.9174
    1MOL   C197  197   4.584   7.359   0.333  0.0548  0.1021 -0.2948
    1MOL   C198  198   4.617   7.311   0.183 -0.4732  0.7148 -0.3604
    1MOL   C199  199   4.534   7.187   0.132  0.0853  0.4058  0.2133
    1MOL   N200  200   4.543   7.070   0.221 -0.0138 -0.0306 -0.2141
    1MOL   H201  201   5.073   7.575   1.139  0.0868 -0.3556 -1.7514
    1MOL   H202  202   4.901   7.557   1.209 -1.0713  0.8052 -2.1132
    1MOL   H203  203   4.902   7.580   0.965 -0.5004  0.5849 -0.0556
    1MOL   H204  204   5.011   7.448   0.950 -0.4476  1.2132 -1.1608
    1MOL   H205  205   4.705   7.445   1.033  0.3476 -0.1669  1.7972
    1MOL   H206  206   4.803   7.308   1.059 -0.5171  0.1405 -0.3539
    1MOL   H207  207   4.861   7.310   0.829  2.6772  3.2390  2.5292
    1MOL   H208  208   4.699   7.265   0.881 -3.2576  2.6382  0.6626
    1MOL   H209  209   4.757   7.547   0.777 -0.7629  0.0839  0.1701
    1MOL   H210  210   4.591   7.474   0.804 -0.9235 -1.0303 -1.6386
    1MOL   H211  211   4.635   7.312   0.623 -2.7904  1.7919 -2.5649
    1MOL   H212  212   4.787   7.380   0.592  0.2969  0.6922  0.8711
    1MOL   H213  213   4.679   7.599   0.554  0.8402  0.0924 -1.0291
    1MOL   H214  214   4.524   7.519   0.549  0.2890  2.5008 -0.8040
    1MOL   H215  215   4.774   7.458   0.371  0.4530  0.2139 -1.1107
    1MOL   H216  216   4.646   7.570   0.326 -1.1404  0.7969  2.8305
    1MOL   H217  217   4.477   7.382   0.333  0.3696  1.6302  0.0376
    1MOL   H218  218   4.601   7.276   0.402  0.8648 -0.1140 -0.7563
    1MOL   H219  219   4.721   7.283   0.196 -0.9813 -1.5291 -0.8372
    1MOL   H220  220   4.597   7.395   0.117  2.0423  2.0679  0.5465
    1MOL   H221  221   4.548   7.161   0.027  1.5414  2.0962 -0.0484
    1MOL   H222  222   4.429   7.214   0.133  0.2593  1.1094  0.1450
    1MOL   H223  223   4.582   7.086   0.313 -0.4705  0.0184 -0.0290
    1MOL   C224  224   4.484   6.952   0.201  1.0355 -0.1424 -0.8397
    1MOL   O225  225   4.481   6.876   0.297 -0.7288  0.2934 -0.3918
    1MOL   C226  226   4.422   6.904   0.058 -0.1839  0.4615  0.1828
    1MOL   C227  227   4.267   6.869   0.046  0.0861 -0.3585 -0.7447
    1MOL   C228  228   4.194   6.997   0.012 -0.3041 -1.2270 -0.1902
    1MOL   C229  229   4.051   6.973   7.668  0.5451 -0.2746 -0.2803
    1MOL   C230  230   3.992   7.100   7.603  0.8012 -0.6361 -0.6975
    1MOL   C231  231   3.842   7.079   7.556  0.0572 -1.1746  0.1260
    1MOL   C232  232   3.839   6.986   7.423 -0.5564 -0.5559 -0.6067
    1MOL   C233  233   3.700   6.978   7.367  0.0583 -0.2313 -0.1230
    1MOL   C234  234   3.665   7.092   7.271  0.5865  0.1027  0.2310
    1MOL   C235  235   3.519   7.102   7.227 -0.3007 -0.4763  0.0395
    1MOL   C236  236   3.483   7.216   7.130  0.2990 -0.2930 -0.0399
    1MOL   N237  237   3.344   7.211   7.092  0.0202  0.2146 -0.3018
    1MOL   H238  238   4.464   6.811   0.019 -0.4626  0.4380 -0.0628
    1MOL   H239  239   4.453   6.971   7.672 -0.6420  1.6482  0.9699
    1MOL   H240  240   4.250   6.801   7.657 -0.2323 -0.2010 -0.8080
    1MOL   H241  241   4.235   6.828   0.142  0.2432  1.6940  0.2341
    1MOL   H242  242   4.245   7.034   7.617  0.4777  0.0053  0.7578
    1MOL   H243  243   4.210   7.080   0.081  0.7830 -0.8942 -0.8239
    1MOL   H244  244   4.039   6.895   7.593 -2.2759 -1.8891  1.7173
    1MOL   H245  245   3.987   6.941   0.057  0.0822 -0.6578 -0.7787
    1MOL   H246  246   4.056   7.126   7.519  2.5968  0.6597  0.9942
    1MOL   H247  247   4.004   7.178   7.678 -0.1822  0.3244 -1.5265
    1MOL   H248  248   3.782   7.169   7.545  1.7137 -0.0252  0.1419
    1MOL   H249  249   3.783   7.030   7.633 -1.0483  0.5187  0.3798
    1MOL   H250  250   3.872   6.885   7.448  0.6443  0.4364  2.1247
    1MOL   H251  251   3.918   7.008   7.352 -0.6246 -1.0120 -0.8209
    1MOL   H252  252   3.623   6.959   7.442  1.7791 -1.2462  1.4296
    1MOL   H253  253   3.712   6.886   7.310 -1.9016 -1.0866  0.7922
    1MOL   H254  254   3.727   7.098   7.181  2.9671  0.3782  1.8456
    1MOL   H255  255   3.686   7.179   7.334 -0.5372  0.5780 -0.0340
    1MOL   H256  256   3.462   7.097   7.319  2.1046 -0.1221  1.5932
    1MOL   H257  257   3.494   7.013   7.169 -3.0827  0.0623  0.3616
    1MOL   H258  258   3.547   7.204   7.043 -0.5542 -2.2540 -0.4213
    1MOL   H259  259   3.515   7.306   7.183  1.7154  0.3602 -1.9621
    1MOL   H260  260   3.302   7.121   7.072  0.6895  0.0032 -0.7739
    1MOL   C261  261   3.280   7.317   7.058 -0.1790  0.2194  1.0037
    1MOL   O262  262   3.329   7.429   7.056 -0.3040 -0.2087 -0.0563
    1MOL   C263  263   3.139   7.307   7.002  0.0059 -0.3108  0.0758
    1MOL   C264  264   3.071   7.442   6.990  0.3936 -0.0481  0.7510
    1MOL   C265  265   3.032   7.505   7.129 -0.0165  0.2927  0.3610
    1MOL   C266  266   2.935   7.624   7.117  0.3377 -1.0502 -0.3029
    1MOL   C267  267   2.898   7.684   7.246 -0.2054 -0.0460  0.1444
    1MOL   C268  268   3.007   0.044   7.342  0.4247 -0.3469  0.2029
    1MOL   C269  269   2.938   0.063   7.484 -0.4913 -0.4638 -0.7392
    1MOL   C270  270   3.020   0.149   7.582  0.1140  0.8256  0.2302
    1MOL   C271  271   3.141   0.091   7.644 -0.2167  0.0261  1.1546
    1MOL   C272  272   3.210   0.163   0.069 -0.1758  0.3034 -0.1960
    1MOL   C273  273   3.347   0.093   0.114  0.1122  0.1287  0.5369
    1MOL   N274  274   3.388   0.149   0.238 -0.5458  0.1392 -0.4701
    1MOL   H275  275   3.082   7.248   7.074  0.6485  0.0748  0.9139
    1MOL   H276  276   3.142   7.251   6.909 -0.5033 -0.2184  0.0024
    1MOL   H277  277   3.130   7.514   6.933 -0.7573 -0.2565 -0.7128
    1MOL   H278  278   2.996   7.427   6.913  2.7372  2.5976 -2.1537
    1MOL   H279  279   3.126   7.530   7.179  0.3217 -1.2692  0.5174
    1MOL   H280  280   2.981   7.439   7.199  0.7354 -1.2429 -0.5195
    1MOL   H281  281   2.989   0.012   7.068  1.3293 -0.8633  1.0845
    1MOL   H282  282   2.855   7.592   7.050 -0.1835 -3.2653  1.3339
    1MOL   H283  283   2.837   7.616   7.305 -0.8983  1.2860  0.9847
    1MOL   H284  284   2.836   0.077   7.225 -0.3758 -0.0523  0.6149
    1MOL   H285  285   3.042   0.143   7.314 -3.1390  1.1698  0.8425
    1MOL   H286  286   3.098   7.679   7.351  2.0562  2.1648  0.7486
    1MOL   H287  287   2.914   7.658   7.524 -3.6719  0.5021 -0.0712
    1MOL   H288  288   2.841   0.111   7.472 -0.2059  0.6188  1.0434
    1MOL   H289  289   2.948   0.170   7.661  0.0379  0.0869  0.3627
    1MOL   H290  290   3.049   0.242   7.532  0.0588  2.2214  2.6882
    1MOL   H291  291   3.211   0.080   7.561 -0.4620  1.7282  0.7088
    1MOL   H292  292   3.123   7.682   7.676  0.8040 -0.3275  0.6236
    1MOL   H293  293   3.139   0.158   0.151 -1.1594 -1.8089 -1.1459
    1MOL   H294  294   3.222   0.268   0.042  2.3524 -0.2603 -1.4351
    1MOL   H295  295   3.428   0.087   0.041  1.0532 -3.9785  1.7322
    1MOL   H296  296   3.329   7.683   0.143 -1.7492 -0.0303 -1.0810
    1MOL   H297  297   3.371   0.100   0.325 -2.4495  1.9953  0.2480
    1MOL   C298  298   3.446   0.273   0.242 -0.2074  0.4970 -0.1613
    1MOL   O299  299   3.447   0.351   0.148  0.0620  0.7082  0.1556
    1MOL   C300  300   3.499   0.320   0.376 -0.2126 -0.3908 -0.9056
    1MOL   C301  301   3.604   0.437   0.359  0.1265  0.2818  0.2388
    1MOL   C302  302   3.730   0.385   0.292 -0.3192  0.2107  0.1402
    1MOL   C303  303   3.844   0.483   0.285  0.0651  0.2988  0.0181
    1MOL   C304  304   3.822   0.622   0.221 -0.0590 -0.7995  0.2605
    1MOL   C305  305   3.804   0.603   0.065 -0.0803  1.2746 -0.1912
    1MOL   C306  306   3.779   0.738   0.014  0.1783 -0.3942  0.2198
    1MOL   C307  307   3.725   0.732   7.564  0.6491  0.8520 -0.0892
    1MOL   C308  308   3.750   0.865   7.489  0.1775 -0.0341  0.0636
    1MOL   C309  309   3.674   0.984   7.543 -0.7905 -0.0390 -0.3263
    1MOL   C310  310   3.687   1.093   7.435  0.9482 -0.3546  0.2500
    1MOL   N311  311   3.631   1.223   7.475  0.9390  0.0056 -1.1173
    1MOL   H312  312   3.546   0.237   0.429  0.3233 -0.9784 -2.2856
    1MOL   H313  313   3.413   0.360   0.430  0.9709 -0.1831  0.8528
    1MOL   H314  314   3.560   0.525   0.313  1.2290 -0.0208 -1.4204
    1MOL   H315  315   3.629   0.465   0.461 -0.1134  2.2632 -0.2400
    1MOL   H316  316   3.712   0.352   0.190  0.8900  0.1494 -0.0622
    1MOL   H317  317   3.759   0.299   0.353  1.4249  1.3027  0.8804
    1MOL   H318  318   3.884   0.491   0.386 -1.9244 -1.8540  1.0087
    1MOL   H319  319   3.929   0.442   0.231  0.7045  0.7049  0.6967
    1MOL   H320  320   3.901   0.694   0.242  0.0454  0.7919 -4.8996
    1MOL   H321  321   3.736   0.670   0.268 -0.6339 -0.0656 -1.4916
    1MOL   H322  322   3.719   0.536   0.053  1.8350 -1.3731  0.5137
    1MOL   H323  323   3.889   0.563   0.010 -0.5706  1.4605 -1.0863
    1MOL   H324  324   3.867   0.803   0.012  0.0690 -0.2462  0.2260
    1MOL   H325  325   3.706   0.791   0.075  0.9775  1.4181 -0.3389
    1MOL   H326  326   3.619   0.711   7.556  0.9662 -0.5782 -0.6849
    1MOL   H327  327   3.777   0.655   7.508 -0.7679  0.2517 -0.5927
    1MOL   H328  328   3.723   0.850   7.385 -0.7956 -0.7833  0.4224
    1MOL   H329  329   3.857   0.885   7.475 -0.0046  1.5228  0.7302
    1MOL   H330  330   3.727   1.024   7.630 -1.5111 -0.9129  0.5423
    1MOL   H331  331   3.571   0.955   7.566 -0.2077 -1.2564  0.8151
    1MOL   H332  332   3.625   1.074   7.348 -0.4806 -0.6332  1.3174
    1MOL   H333  333   3.791   1.118   7.412  0.5453  1.2312  0.0704
    1MOL   H334  334   3.538   1.244   7.443  0.9509  1.8011 -0.0569
    1MOL   C335  335   3.698   1.311   7.553 -0.0085  0.3281  0.2620
    1MOL   O336  336   3.823   1.304   7.578  0.0034  0.3804  0.1161
    1MOL   C337  337   3.629   1.443   7.602  0.1828 -0.1514  0.2451
    1MOL   C338  338   3.607   1.442   0.059 -0.1313  0.3197 -0.3697
    1MOL   C339  339   3.519   1.551   0.121  0.3965  0.7812  0.1355
    1MOL   C340  340   3.510   1.550   0.272  0.1398 -0.0681 -0.2349
    1MOL   C341  341   3.379   1.621   0.316 -0.3076 -0.0470  0.6369
    1MOL   C342  342   3.356   1.763   0.269 -0.0988  0.5808  0.0435
    1MOL   C343  343   3.233   1.829   0.340  0.4772 -0.2449 -0.0090
    1MOL   C344  344   3.212   1.971   0.297 -0.3467  0.7195 -0.0622
    1MOL   C345  345   3.102   2.033   0.383  0.2703  0.0297  0.5888
    1MOL   C346  346   3.086   2.182   0.353  0.6637  0.3826 -0.2846
    1MOL   C347  347   2.964   2.232   0.435 -0.5296 -0.3232 -0.7413
    1MOL   N348  348   2.915   2.357   0.385 -0.1771 -0.0721 -0.5420
    1MOL   H349  349   3.527   1.449   7.563  0.7168 -3.0403 -1.7474
    1MOL   H350  350   3.695   1.526   7.576  0.2169 -0.1583  0.3112
    1MOL   H351  351   3.574   1.342   0.086  0.5862  0.6677  1.9379
    1MOL   H352  352   3.697   1.444   0.120  0.2835 -1.9806 -0.8580
    1MOL   H353  353   3.420   1.535   0.078  0.0196  2.9991  0.1040
    1MOL   H354  354   3.538   1.655   0.092 -0.0280  0.3830 -1.6657
    1MOL   H355  355   3.510   1.452   0.321  3.3200  0.7440  1.5334
    1MOL   H356  356   3.589   1.614   0.313 -1.2418  0.6388  1.3788
    1MOL   H357  357   3.373   1.618   0.425 -1.0263 -0.7827  0.5799
    1MOL   H358  358   3.297   1.554   0.291  0.3689 -0.6867  0.1195
    1MOL   H359  359   3.346   1.773   0.161 -1.2492  1.4688  0.2199
    1MOL   H360  360   3.440   1.827   0.295  0.3233 -0.1191  0.4260
    1MOL   H361  361   3.263   1.837   0.444  3.0380  3.0295 -0.9236
    1MOL   H362  362   3.142   1.769   0.343  0.1393  0.2784  0.2886
    1MOL   H363  363   3.168   1.976   0.197 -1.0461 -0.0342  0.1974
    1MOL   H364  364   3.307   2.023   0.294  1.1751 -1.8622  1.8324
    1MOL   H365  365   3.129   2.023   0.488  0.7798 -1.2899  0.3437
    1MOL   H366  366   3.011   1.976   0.370  0.5012  0.1909 -2.0088
    1MOL   H367  367   3.068   2.206   0.248  1.7831 -0.0154 -0.5725
    1MOL   H368  368   3.165   2.249   0.389 -0.2179  0.3673  1.7298
    1MOL   H369  369   2.992   2.252   0.538 -0.8688  0.6917 -0.8422
    1MOL   H370  370   2.887   2.162   0.467 -1.1383  0.5888 -0.2105
    1MOL   H371  371   2.978   2.427   0.346 -2.6555  2.7900  0.3949
    1MOL   C372  372   2.787   2.402   0.381  0.1810 -0.2660 -0.1559
    1MOL   O373  373   2.687   2.336   0.421 -0.0090 -0.5276  0.5760
    1MOL   C374  374   2.768   2.553   0.346 -0.1888  0.3510  0.0575
    1MOL   C375  375   2.622   2.613   0.364  0.5101  0.1830 -0.2748
    1MOL   C376  376   2.586   2.617   0.512 -0.9489 -1.1937  0.0003
    1MOL   C377  377   2.443   2.660   0.542  0.1632 -0.4636  0.2215
    1MOL   C378  378   2.340   2.560   0.497 -0.0300  0.4053 -0.2888
    1MOL   C379  379   2.338   2.434   0.595 -0.6552  0.3829  0.2061
    1MOL   C380  380   2.211   2.352   0.586 -0.2020 -1.1837 -0.1359
    1MOL   C381  381   2.215   2.245   0.693 -0.1214  0.4926  0.0674
    1MOL   C382  382   2.105   2.137   0.672 -0.0577  0.6095  0.1900
    1MOL   C383  383   2.084   2.059   0.800  0.5667 -0.3472  0.3830
    1MOL   C384  384   2.193   1.955   0.810 -0.1994 -0.0392  0.6972
    1MOL   N385  385   2.164   1.863   0.924  0.5740  0.1124  0.3446
    1MOL   H386  386   2.793   2.568   0.241 -0.8938 -2.8403 -0.6388
    1MOL   H387  387   2.836   2.620   0.397 -0.9324  0.8382  0.4177
    1MOL   H388  388   2.616   2.714   0.321 -0.7723 -0.4712 -1.6993
    1MOL   H389  389   2.551   2.549   0.311  0.4391  0.0665 -0.0361
    1MOL   H390  390   2.658   2.680   0.565  0.0348 -1.9639 -0.4072
    1MOL   H391  391   2.610   2.516   0.545  1.2315 -0.7775 -0.2693
    1MOL   H392  392   2.434   2.685   0.647 -0.1185  0.4481 -0.0138
    1MOL   H393  393   2.448   2.760   0.500  1.4378 -0.8336 -0.5606
    1MOL   H394  394   2.358   2.520   0.397 -0.7779  1.0846 -0.6998
    1MOL   H395  395   2.244   2.611   0.495  1.2545  2.8222 -1.3947
    1MOL   H396  396   2.346   2.470   0.697  0.5993 -1.0504  0.6273
    1MOL   H397  397   2.430   2.377   0.582 -1.0461 -0.6660  1.8783
    1MOL   H398  398   2.207   2.319   0.483  1.5468 -1.0288 -0.2613
    1MOL   H399  399   2.123   2.414   0.604 -0.3954 -1.4307 -0.2289
    1MOL   H400  400   2.196   2.295   0.788  2.0270  1.9370 -0.2203
    1MOL   H401  401   2.314   2.199   0.698  0.1613  1.1148  0.1483
    1MOL   H402  402   2.128   2.088   0.578 -3.4519 -1.4321  0.3131
    1MOL   H403  403   2.011   2.188   0.650 -2.5740 -2.9866  2.0465
    1MOL   H404  404   1.999   1.993   0.785  0.7667 -0.5990  0.3522
    1MOL   H405  405   2.054   2.118   0.887 -1.9322 -0.5292 -0.3102
    1MOL   H406  406   2.287   2.007   0.829 -0.0562 -0.3740  0.9256
    1MOL   H407  407   2.204   1.901   0.716  0.5931  0.7144  0.3480
    1MOL   H408  408   2.068   1.833   0.930  0.2191  1.0740 -0.3865
    1MOL   C409  409   2.253   1.807   1.009  0.1088 -0.9619 -0.3794
    1MOL   O410  410   2.211   1.752   1.112  0.7244  0.9029  0.0893
    1MOL   C411  411   2.398   1.850   1.001  0.1290  0.3488 -0.0811
    1MOL   C412  412   2.487   1.793   1.115  0.4179  0.1544 -0.4228
    1MOL   C413  413   2.478   1.875   1.243  0.1424  0.6996  0.6623
    1MOL   C414  414   2.568   1.826   1.364 -0.0785 -0.4068  0.3451
    1MOL   C415  415   2.582   1.929   1.477  0.8626  0.1536  0.1799
    1MOL   C416  416   2.620   1.860   1.612  0.2654 -0.7003  0.0439
    1MOL   C417  417   2.646   1.963   1.721 -0.2282 -0.2219 -0.5338
    1MOL   C418  418   2.703   1.913   1.861 -0.1787  0.3531  0.2257
    1MOL   C419  419   2.602   1.828   1.940 -0.1208  0.2484 -0.4954
    1MOL   C420  420   2.670   1.719   2.018 -0.3131  0.0998 -0.0288
    1MOL   C421  421   2.564   1.625   2.082 -0.1921 -0.6132  0.0607
    1MOL   N422  422   2.627   1.506   2.143 -0.4284 -0.1699 -0.2681
    1MOL   H423  423   2.405   1.958   0.992 -0.6291  0.7035  3.0460
    1MOL   H424  424   2.436   1.820   0.903  0.3784  0.0344  0.1123
    1MOL   H425  425   2.458   1.688   1.123  0.0817  0.1469 -1.7267
    1MOL   H426  426   2.591   1.787   1.085  1.1803  1.4824  1.7811
    1MOL   H427  427   2.378   1.874   1.287 -0.7092 -1.3764 -1.2352
    1MOL   H428  428   2.496   1.981   1.228 -1.2902  0.8238 -0.2751
    1MOL   H429  429   2.516   1.737   1.401 -0.9943 -0.6927 -1.5399
    1MOL   H430  430   2.667   1.807   1.323  0.2215  0.0171  0.8670
    1MOL   H431  431   2.488   1.984   1.474  2.5297  3.0361 -1.4316
    1MOL   H432  432   2.658   2.003   1.453  1.6434 -1.3525 -2.1765
    1MOL   H433  433   2.715   1.807   1.600 -0.2033 -1.6197  0.2855
    1MOL   H434  434   2.545   1.786   1.640 -1.3374  0.1850 -1.8121
    1MOL   H435  435   2.554   2.021   1.730 -0.0125  0.0093  0.2656
    1MOL   H436  436   2.724   2.030   1.686 -1.2180  1.2775  0.0836
    1MOL   H437  437   2.719   1.993   1.933  0.6773  1.9804 -1.7578
    1MOL   H438  438   2.797   1.858   1.856 -0.6792 -0.8277  2.6661
    1MOL   H439  439   2.542   1.771   1.869 -1.4676  0.0371  0.7868
    1MOL   H440  440   2.528   1.885   1.997  1.5494  1.6584  0.3294
    1MOL   H441  441   2.737   1.750   2.098  0.2163  1.6403 -1.0509
    1MOL   H442  442   2.728   1.663   1.943 -0.1647  0.3954 -0.1338
    1MOL   H443  443   2.482   1.609   2.012 -0.4880  2.3292 -0.3112
    1MOL   H444  444   2.514   1.678   2.163 -0.1681  0.1100 -0.3911
    1MOL   H445  445   2.634   1.500   2.243  0.0247 -0.3103 -0.3051
    1MOL   C446  446   2.653   1.395   2.075 -0.7556  0.0696 -0.4320
    1MOL   O447  447   2.637   1.382   1.958  0.2964 -0.3967  0.6796
    1MOL   C448  448   2.697   1.269   2.149  0.0458 -0.7789  0.1949
    1MOL   C449  449   2.678   1.136   2.068  0.7808  0.0183  0.1304
    1MOL   C450  450   2.764   1.023   2.129 -0.1593  0.0362  0.5250
    1MOL   C451  451   2.772   0.892   2.057 -0.0714  0.7001 -0.6368
    1MOL   C452  452   2.839   0.783   2.142  0.2877  0.4334  0.2989
    1MOL   C453  453   2.796   0.640   2.100 -0.3022  0.0245 -0.9308
    1MOL   C454  454   2.856   0.525   2.181 -0.2663  0.5283 -0.1866
    1MOL   C455  455   3.004   0.500   2.174 -0.0328  0.4645 -0.6540
    1MOL   C456  456   3.047   0.446   2.038 -0.3131 -0.1051 -0.0274
    1MOL   C457  457   3.200   0.439   2.007 -0.4353  0.0308 -1.0199
    1MOL   C458  458   3.282   0.304   2.019  0.4232 -0.1559  0.1285
    1MOL   N459  459   3.415   0.341   1.978 -0.5548  0.4017 -0.4488
    1MOL   H460  460   2.657   1.265   2.250 -0.9147  1.7677 -0.0471
    1MOL   H461  461   2.805   1.282   2.160 -0.0473  0.2752 -0.0103
    1MOL   H462  462   2.572   1.111   2.062  1.0385 -0.9480 -0.6395
    1MOL   H463  463   2.708   1.150   1.964 -0.0368 -1.4579 -0.3130
    1MOL   H464  464   2.746   1.009   2.235 -0.8084  1.1077  0.5631
    1MOL   H465  465   2.861   1.073   2.129 -1.5563  2.8818 -1.3283
    1MOL   H466  466   2.667   0.868   2.045  0.1488  0.2308 -1.6311
    1MOL   H467  467   2.813   0.902   1.957  0.7865  0.8242 -0.2785
    1MOL   H468  468   2.811   0.805   2.245  1.5758  0.9389  0.5571
    1MOL   H469  469   2.946   0.806   2.137 -0.2780  3.7599  2.0682
    1MOL   H470  470   2.800   0.617   1.994 -0.8881 -3.5068 -0.2170
    1MOL   H471  471   2.692   0.642   2.132  0.3519 -0.1280  1.3256
    1MOL   H472  472   2.811   0.429   2.156  0.6224  0.7090 -2.5969
    1MOL   H473  473   2.812   0.537   2.280  0.8603 -1.0835  0.5500
    1MOL   H474  474   3.041   0.428   2.246 -0.6282  2.1660  1.4030
    1MOL   H475  475   3.056   0.595   2.191  1.6750 -0.5875  0.0739
    1MOL   H476  476   2.997   0.503   1.959  1.8237  1.1461 -0.5225
    1MOL   H477  477   3.015   0.343   2.028  0.3381 -0.1046 -2.3638
    1MOL   H478  478   3.246   0.525   2.057 -0.8344 -0.2742 -0.1371
    1MOL   H479  479   3.197   0.461   1.900  0.0414 -0.1021 -1.0647
    1MOL   H480  480   3.241   0.228   1.952 -2.2229  1.8488 -0.6028
    1MOL   H481  481   3.279   0.269   2.122 -0.6842  1.2113  0.5778
    1MOL   H482  482   3.420   0.418   1.913  0.3988 -1.5232 -2.7309
    1MOL   C483  483   3.522   0.270   2.002  0.7454  0.4723 -0.3152
    1MOL   O484  484   3.511   0.162   2.062  0.7240  0.1258 -0.3394
    1MOL   C485  485   3.648   0.319   1.932  0.1676  0.4860  0.5332
    1MOL   C486  486   3.701   0.220   1.825  0.5857 -0.3389 -0.1081
    1MOL   C487  487   3.592   0.143   1.741 -0.5474  0.0216 -0.1237
    1MOL   C488  488   3.509   0.235   1.648  0.3567 -0.2058 -0.8992
    1MOL   C489  489   3.395   0.164   1.576  0.8643  0.4968 -0.1323
    1MOL   C490  490   3.293   0.254   1.502  0.1140  0.3034  0.2817
    1MOL   C491  491   3.202   0.339   1.601 -0.7720 -1.1427  0.3638
    1MOL   C492  492   3.087   0.414   1.526  0.0477  0.6135 -0.5977
    1MOL   C493  493   3.019   0.502   1.630 -0.5441 -0.6667 -0.2007
    1MOL   C494  494   2.894   0.581   1.568 -0.0875  0.1711 -0.5248
    1MOL   C495  495   2.810   0.501   1.470 -0.2490  0.0988 -0.0029
    1MOL   N496  496   2.691   0.580   1.442 -0.2303 -0.4002  0.1235
    1MOL   H497  497   3.723   0.344   2.006  0.4435  0.6427  0.2028
    1MOL   H498  498   3.628   0.415   1.885  0.1978 -0.2164 -0.9728
    1MOL   H499  499   3.772   0.272   1.761 -0.8431  0.5321 -1.0072
    1MOL   H500  500   3.764   0.152   1.882 -0.4776 -1.1489  0.1131
    1MOL   H501  501   3.533   0.077   1.805 -3.0319  1.6731 -0.6686
    1MOL   H502  502   3.653   0.083   1.673  1.2720  1.1385  0.4611
    1MOL   H503  503   3.460   0.316   1.703  1.3545 -0.8970  1.0673
    1MOL   H504  504   3.571   0.286   1.574  1.1587  2.0662  1.2519
    1MOL   H505  505   3.353   0.104   1.658  2.2893  0.5568  0.6592
    1MOL   H506  506   3.445   0.092   1.511  1.5681  0.9708 -0.1135
    1MOL   H507  507   3.240   0.191   1.430  2.4477  0.9425 -2.0818
    1MOL   H508  508   3.344   0.321   1.432  0.5846 -0.0527  0.2828
    1MOL   H509  509   3.275   0.410   1.639 -2.0254  1.1054 -1.2934
    1MOL   H510  510   3.168   0.274   1.681 -1.0852 -1.0080  0.3420
    1MOL   H511  511   3.016   0.346   1.479  0.5246  0.6066 -1.3056
    1MOL   H512  512   3.144   0.476   1.458  2.1708  1.0486  1.4825
    1MOL   H513  513   3.094   0.572   1.668  0.3380 -1.0260 -1.2430
    1MOL   H514  514   2.984   0.438   1.711  1.0412 -1.2066  0.0858
    1MOL   H515  515   2.929   0.665   1.508  1.0989 -0.7158 -1.1063
    1MOL   H516  516   2.838   0.615   1.654  0.7308  0.1860  0.0069
    1MOL   H517  517   2.783   0.410   1.524 -0.7155  1.0318  1.3488
    1MOL   H518  518   2.872   0.473   1.384 -0.3295  1.0215 -0.3650
    1MOL   H519  519   2.620   0.580   1.515  0.1106  3.9134  0.5756
    1MOL   C520  520   2.667   0.652   1.323 -0.0888  0.7183  0.3017
    1MOL   O521  521   2.749   0.666   1.233 -0.1763 -0.1068  0.5016
    1MOL   C522  522   2.534   0.721   1.309 -0.8628  0.2801 -0.6669
    1MOL   C523  523   2.489   0.719   1.161 -1.0803  0.3104  0.6802
    1MOL   C524  524   2.455   0.580   1.109 -0.5309 -0.5727  0.6668
    1MOL   C525  525   2.409   0.569   0.963 -0.0327  0.2277  0.6090
    1MOL   C526  526   2.362   0.435   0.911  0.0785  0.6315 -0.1181
    1MOL   C527  527   2.282   0.448   0.780  0.3753  0.2905  0.8263
    1MOL   C528  528   2.211   0.308   0.728 -0.9733 -0.6581 -0.0709
    1MOL   C529  529   2.168   0.331   0.585 -0.5772 -0.6277 -0.4999
    1MOL   C530  530   2.119   0.197   0.529  0.8576 -0.0426 -1.1693
    1MOL   C531  531   2.222   0.090   0.500  0.2755 -0.1209 -0.7036
    1MOL   C532  532   2.174   7.658   0.414 -0.6029 -0.1111 -0.4855
    1MOL   N533  533   2.286   7.566   0.403  0.5179  0.0362  0.5661
    1MOL   H534  534   2.543   0.820   1.352 -2.6434 -0.2678  1.0502
    1MOL   H535  535   2.461   0.673   1.374  1.9725 -0.4245  2.0980
    1MOL   H536  536   2.403   0.783   1.141  0.2473  1.7707 -0.4732
    1MOL   H537  537   2.567   0.761   1.098  0.5119 -2.5661  0.6877
    1MOL   H538  538   2.378   0.532   1.168 -1.9432 -0.4099 -0.9786
    1MOL   H539  539   2.551   0.529   1.119  0.0561  0.5660  0.8826
    1MOL   H540  540   2.332   0.645   0.948  1.0955  1.4738  0.9898
    1MOL   H541  541   2.489   0.604   0.898  1.0065  1.3825  2.4362
    1MOL   H542  542   2.300   0.393   0.991 -0.9050 -0.2670 -1.3289
    1MOL   H543  543   2.447   0.370   0.891 -0.1603 -0.3913  2.0183
    1MOL   H544  544   2.344   0.481   0.697  1.4220 -0.3614  1.3393
    1MOL   H545  545   2.200   0.519   0.786 -1.2556 -1.5730  0.8712
    1MOL   H546  546   2.133   0.264   0.790  0.1303 -1.8079  0.5228
    1MOL   H547  547   2.299   0.246   0.714 -1.1508 -1.1740  1.0557
    1MOL   H548  548   2.248   0.357   0.516 -1.0125 -0.6453 -1.0082
    1MOL   H549  549   2.089   0.404   0.572  0.2086  0.0902 -1.3433
    1MOL   H550  550   2.078   0.235   0.436  1.6832 -0.5799 -1.7611
    1MOL   H551  551   2.037   0.160   0.591  0.5673 -0.3777 -1.7518
    1MOL   H552  552   2.268   0.061   0.595 -0.8861  0.4230  0.0357
    1MOL   H553  553   2.310   0.130   0.450  0.0297  1.0926 -0.1916
    1MOL   H554  554   2.125   7.682   0.320 -0.0114 -0.3901 -0.8624
    1MOL   H555  555   2.093   7.602   0.462  0.1501  0.1309  1.1167
    1MOL   H556  556   2.377   7.610   0.404  1.2353 -1.4311  1.8175
    1MOL   C557  557   2.292   7.439   0.363  0.1004  0.2228  0.0985
    1MOL   O558  558   2.191   7.371   0.327  0.0203  0.5933  0.0422
    1MOL   C559  559   2.430   7.370   0.360  0.1641 -0.0480  0.2066
    1MOL   C560  560   2.442   7.262   0.258  0.4445 -0.1706  0.9709
    1MOL   C561  561   2.576   7.176   0.273 -0.1787 -0.0486 -0.5265
    1MOL   C562  562   2.580   7.056   0.179 -0.4908 -0.5091  0.0108
    1MOL   C563  563   2.719   6.995   0.177 -0.2957 -0.1778 -0.0097
    1MOL   C564  564   2.766   6.937   0.048 -0.8912  0.0428 -0.0430
    1MOL   C565  565   2.692   6.809   0.022 -0.7349  0.2035  0.7667
    1MOL   C566  566   2.740   6.726   7.594 -0.8083  0.1714 -0.7057
    1MOL   C567  567   2.736   6.805   7.460 -0.0356  0.5309 -0.3155
    1MOL   C568  568   2.807   6.736   7.343 -0.3249 -0.8139  0.8513
    1MOL   C569  569   2.762   6.594   7.300 -0.3797 -0.8460 -0.1536
    1MOL   N570  570   2.845   6.550   7.194 -0.4591  0.5499 -0.0944
    1MOL   H571  571   2.442   7.326   0.459 -0.4295  2.4508  1.4068
    1MOL   H572  572   2.509   7.445   0.357  0.3347 -0.1099  2.2027
    1MOL   H573  573   2.360   7.190   0.265  0.2778  0.0040  0.8145
    1MOL   H574  574   2.437   7.304   0.158  0.6546 -2.0232  0.1577
    1MOL   H575  575   2.572   7.134   0.374  0.7866 -0.3670 -0.6187
    1MOL   H576  576   2.661   7.242   0.257  0.3425 -0.1030  1.8032
    1MOL   H577  577   2.503   6.983   0.203 -1.1287  0.2797  0.4095
    1MOL   H578  578   2.549   7.079   0.077  1.9419 -0.4771 -0.7373
    1MOL   H579  579   2.716   6.930   0.264 -2.1335 -1.4795 -1.0180
    1MOL   H580  580   2.793   7.071   0.203 -0.0168  0.1093 -1.6347
    1MOL   H581  581   2.871   6.910   0.043 -1.1804 -1.1902  0.3820
    1MOL   H582  582   2.761   7.015   7.666  0.1060 -0.2148 -0.3854
    1MOL   H583  583   2.585   6.832   0.019 -0.6679  0.3560 -1.5143
    1MOL   H584  584   2.704   6.742   0.107 -0.0287 -1.5370 -0.6801
    1MOL   H585  585   2.675   6.640   7.577 -0.4972 -0.2800  0.3515
    1MOL   H586  586   2.835   6.678   7.615 -0.5589  0.6891 -0.6546
    1MOL   H587  587   2.791   6.899   7.470 -1.5913  1.3605  0.8215
    1MOL   H588  588   2.632   6.836   7.446 -0.9252 -1.4692  1.6172
    1MOL   H589  589   2.910   6.718   7.376  0.1295 -0.2416 -0.2547
    1MOL   H590  590   2.819   6.805   7.260 -0.5186  0.5242  1.9180
    1MOL   H591  591   2.657   6.598   7.270 -0.6948  1.9906  1.1182
    1MOL   H592  592   2.768   6.525   7.384  0.5572 -0.0076  0.4719
    1MOL   H593  593   2.935   6.509   7.216  0.6037  2.3772 -0.9002
    1MOL   C594  594   2.810   6.526   7.068 -0.1938 -0.2567  0.1021
    1MOL   O595  595   2.704   6.571   7.023 -0.4455  0.9098 -1.0304
    1MOL   C596  596   2.900   6.433   6.993  0.3173  0.5499 -0.2606
    1MOL   C597  597   2.977   6.518   6.886 -0.6484 -0.3308 -0.7016
    1MOL   C598  598   3.072   6.628   6.935  0.7375 -0.2840 -0.0579
    1MOL   C599  599   3.179   6.676   6.839  0.2964  0.2730 -1.2914
    1MOL   C600  600   3.278   6.769   6.912  0.0030 -0.0100  0.2151
    1MOL   C601  601   3.379   6.817   6.806  0.2974 -0.4849 -0.2037
    1MOL   C602  602   3.489   6.899   6.869  0.9417 -0.2485  0.2096
    1MOL   C603  603   3.615   6.905   6.780  0.2430 -0.3295 -0.5405
    1MOL   C604  604   3.738   6.950   6.856 -0.3220 -0.0020  0.3562
    1MOL   C605  605   3.865   6.924   6.771  0.2555  0.3562  0.2301
    1MOL   C606  606   3.893   6.771   6.770  0.4544  0.3722  0.0639
    1MOL   N607  607   4.026   6.752   6.716  0.1800 -0.0885  0.3741
    1MOL   H608  608   2.847   6.359   6.934  3.2429 -0.4802 -1.6931
    1MOL   H609  609   2.965   6.368   7.051  0.9767  0.7871 -0.7293
    1MOL   H610  610   3.039   6.460   6.818  1.1574  1.8626 -0.9863
    1MOL   H611  611   2.904   6.558   6.816 -2.4039 -1.4039  0.4706
    1MOL   H612  612   3.122   6.583   7.021 -3.3237  0.4174  2.7909
    1MOL   H613  613   3.023   6.707   6.992  0.2622  0.1083 -1.0129
    1MOL   H614  614   3.244   6.592   6.811 -0.0043 -0.4630  0.1743
    1MOL   H615  615   3.130   6.724   6.755 -3.6176  1.2948  1.4108
    1MOL   H616  616   3.331   6.696   6.973  0.1282 -0.7836 -0.8073
    1MOL   H617  617   3.230   6.852   6.963 -0.3424 -0.8380  1.2532
    1MOL   H618  618   3.320   6.872   6.732 -0.9975 -2.3560 -0.6049
    1MOL   H619  619   3.429   6.734   6.756 -0.2352  0.1141 -1.7658
    1MOL   H620  620   3.520   6.852   6.963  1.0105 -1.1176 -0.2416
    1MOL   H621  621   3.442   6.995   6.889  1.3197 -0.1027  0.4274
    1MOL   H622  622   3.593   6.977   6.701  1.8464  2.5897  1.5845
    1MOL   H623  623   3.628   6.813   6.723  0.9084 -1.2030  1.0153
    1MOL   H624  624   3.745   6.890   6.947 -2.0632 -0.1649  0.4007
    1MOL   H625  625   3.737   7.056   6.883 -1.4149  0.0431  0.1645
    1MOL   H626  626   3.954   6.969   6.817  0.6168 -0.9198  0.7873
    1MOL   H627  627   3.845   6.959   6.670  0.8070 -2.9243 -1.0679
    1MOL   H628  628   3.824   6.732   6.695 -2.1124  0.2854  2.3986
    1MOL   H629  629   3.878   6.713   6.861  0.0226 -2.0463 -1.4878
    1MOL   H630  630   4.094   6.827   6.717 -0.3561  0.4211 -0.7516
    1MOL   C631  631   4.076   6.645   6.654  0.4785 -0.0393 -0.4003
    1MOL   O632  632   4.017   6.540   6.627 -0.1321 -0.1753  0.1864
    1MOL   C633  633   4.229   6.639   6.631 -0.5806 -0.4594 -0.2945
    1MOL   C634  634   4.294   6.523   6.703  0.0418 -0.2444  0.4429
    1MOL   C635  635   4.282   6.520   6.851 -0.6211  0.5622 -0.5676
    1MOL   C636  636   4.379   6.422   6.921 -0.1377 -0.0139 -0.4345
    1MOL   C637  637   4.329   6.392   7.064 -0.5443  0.1491  0.2419
    1MOL   C638  638   4.410   6.300   7.147  0.4518  0.4310 -0.1108
    1MOL   C639  639   4.379   6.149   7.119  0.0937 -0.2784 -0.8400
    1MOL   C640  640   4.466   6.054   7.202  0.8414  0.8165  0.7015
    1MOL   C641  641   4.431   6.037   7.353  0.5548  0.3539 -0.1724
    1MOL   C642  642   4.540   5.947   7.413 -0.0423  0.4499 -0.0732
    1MOL   C643  643   4.510   5.927   7.566  0.0377 -0.2930  0.0988
    1MOL   N644  644   4.540   5.799   7.608 -0.1272 -0.1741 -0.2708
    1MOL   H645  645   4.275   6.731   6.668 -0.1951  0.1999 -2.3267
    1MOL   H646  646   4.249   6.642   6.524 -0.1002 -1.9408 -0.2615
    1MOL   H647  647   4.270   6.422   6.671 -1.9342 -0.0831  1.3310
    1MOL   H648  648   4.400   6.539   6.685 -0.3959  0.7124 -1.4111
    1MOL   H649  649   4.178   6.496   6.873 -0.0330 -0.1836  1.5074
    1MOL   H650  650   4.291   6.619   6.896  0.2000 -0.4005  1.4194
    1MOL   H651  651   4.349   6.331   6.868  0.2657 -1.3504  1.5604
    1MOL   H652  652   4.485   6.445   6.920 -0.5385  1.8588 -0.2772
    1MOL   H653  653   4.228   6.356   7.080 -0.3175  0.2451  1.9747
    1MOL   H654  654   4.328   6.490   7.112 -2.3463 -0.3083  1.1715
    1MOL   H655  655   4.378   6.322   7.249  2.4710 -1.9920  1.1303
    1MOL   H656  656   4.514   6.331   7.140  1.1312 -1.7561 -0.2854
    1MOL   H657  657   4.380   6.120   7.014 -2.6186 -1.3367 -0.6003
    1MOL   H658  658   4.274   6.152   7.145  0.0247 -1.0068 -1.0368
    1MOL   H659  659   4.563   6.100   7.180  1.6300 -0.8664  0.5982
    1MOL   H660  660   4.480   5.953   7.162  1.2662 -0.0681  2.9904
    1MOL   H661  661   4.336   5.989   7.378  0.6952  0.0663 -0.1977
    1MOL   H662  662   4.434   6.138   7.395  0.3653 -0.5344  2.0373
    1MOL   H663  663   4.635   5.995   7.387  0.8939 -1.6247 -0.5890
    1MOL   H664  664   4.534   5.849   7.365 -0.5398  0.6345 -0.3972
    1MOL   H665  665   4.407   5.953   7.590 -0.0150  1.3962 -1.7956
    1MOL   H666  666   4.565   5.996   7.630 -0.7372  1.3813 -1.0066
    1MOL   H667  667   4.460   5.737   7.605 -0.1071 -0.3208  1.6326
    1MOL   C668  668   4.661   5.757   7.648  0.1440 -0.4823 -0.0983
    1MOL   O669  669   4.760   5.830   7.672 -0.1445  0.7662  0.1001
    1MOL   C670  670   4.668   5.611   7.663  0.9125  0.1513 -0.1356
    1MOL   C671  671   4.797   5.548   0.027 -0.2607 -0.0195  0.6799
    1MOL   C672  672   4.802   5.561   0.179 -0.3466  0.4485 -0.7555
    1MOL   C673  673   4.941   5.502   0.231  0.1114  0.1060 -0.2090
    1MOL   C674  674   4.955   5.538   0.381  0.3716  0.1097 -0.9613
    1MOL   C675  675   5.070   5.460   0.450 -0.4768 -0.9218 -0.8181
    1MOL   C676  676   5.056   5.481   0.604 -0.4498 -0.2854 -0.2307
    1MOL   C677  677   5.165   5.425   0.694  0.1685 -0.1163  0.6722
    1MOL   C678  678   5.190   5.272   0.694  0.2691 -0.1437  0.0330
    1MOL   C679  679   5.078   5.187   0.752  0.0877 -0.2440  0.5663
    1MOL   C680  680   5.097   5.038   0.756  0.3658 -1.1722 -0.5833
    1MOL   N681  681   4.986   4.965   0.827 -0.0110  0.4606 -0.6460
    1MOL   H682  682   4.659   5.584   7.558  2.3347 -0.7247 -0.0402
    1MOL   H683  683   4.578   5.573   0.020  0.4037  1.8053  0.2112
    1MOL   H684  684   4.793   5.442   0.002 -1.5404 -0.2134  1.6830
    1MOL   H685  685   4.888   5.583   7.672 -0.4347 -3.6863 -2.5023
    1MOL   H686  686   4.717   5.504   0.215 -0.1982  0.8890  0.2961
    1MOL   H687  687   4.794   5.667   0.202  1.3495  1.1592 -3.1600
    1MOL   H688  688   4.937   5.394   0.220 -0.8529 -0.0292  1.3644
    1MOL   H689  689   5.030   5.538   0.180  0.3587 -0.8955 -0.4796
    1MOL   H690  690   4.862   5.505   0.428 -0.1657  1.5126 -1.0400
    1MOL   H691  691   4.969   5.644   0.401 -0.5058 -0.1468  1.1618
    1MOL   H692  692   5.171   5.479   0.415  0.0933 -1.3978  0.5124
    1MOL   H693  693   5.043   5.355   0.434 -1.8621 -0.5217 -1.2189
    1MOL   H694  694   4.953   5.462   0.634  0.3787 -0.6217  2.5368
    1MOL   H695  695   5.068   5.589   0.611  2.9671 -0.5342 -1.3666
    1MOL   H696  696   5.134   5.454   0.794 -0.5142 -0.9608  0.7141
    1MOL   H697  697   5.256   5.484   0.683 -0.3769  0.6335  0.1345
    1MOL   H698  698   5.277   5.263   0.759  1.3587  2.8500 -0.9581
    1MOL   H699  699   5.241   5.250   0.600  1.7379 -1.7431  1.1542
    1MOL   H700  700   4.984   5.218   0.707 -0.4062  1.1439  2.4557
    1MOL   H701  701   5.076   5.228   0.853  2.0406 -0.4706  0.7200
    1MOL   H702  702   5.194   5.030   0.806  0.3726 -0.4340 -0.4779
    1MOL   H703  703   5.089   4.996   0.656 -1.7248  0.9302 -1.3341
    1MOL   H704  704   5.007   4.920   0.915 -1.1976  0.6345 -0.2629
    1MOL   C705  705   4.868   4.927   0.781  0.2131 -0.7803  0.0524
    1MOL   O706  706   4.815   4.955   0.670  0.0307  0.7743  0.1563
    1MOL   C707  707   4.787   4.840   0.885 -0.4735  0.0028 -0.3165
    1MOL   C708  708   4.668   4.752   0.827 -0.2285  0.3306 -0.3823
    1MOL   C709  709   4.589   4.683   0.939 -0.4387  0.0913 -0.1290
    1MOL   C710  710   4.486   4.577   0.889 -1.1645  0.0285  0.4688
    1MOL   C711  711   4.550   4.439   0.843 -0.1962 -0.4149  0.2911
    1MOL   C712  712   4.449   4.353   0.775  0.0793 -0.3338 -0.1361
    1MOL   C713  713   4.351   4.287   0.867  0.0721 -0.2459  0.4228
    1MOL   C714  714   4.233   4.234   0.781 -0.7467  0.0082 -0.4564
    1MOL   C715  715   4.130   4.164   0.866  0.3168 -0.2528 -0.1338
    1MOL   C716  716   4.007   4.135   0.785  0.2863  0.3687 -0.3985
    1MOL   C717  717   3.909   4.030   0.846 -0.4294  0.1955  0.2004
    1MOL   N718  718   3.800   4.009   0.754  0.1834 -0.6775  0.4012
    1MOL   H719  719   4.751   4.908   0.963  2.1593 -0.3206  1.2496
    1MOL   H720  720   4.866   4.780   0.930  0.6503  0.9332 -1.0158
    1MOL   H721  721   4.609   4.824   0.770 -2.3547  0.9489  2.4557
    1MOL   H722  722   4.721   4.686   0.759  1.4183  0.4550  0.7572
    1MOL   H723  723   4.520   4.758   0.979 -1.0468 -0.8634  0.6361
    1MOL   H724  724   4.664   4.670   1.016  0.7959  1.2285 -1.1024
    1MOL   H725  725   4.424   4.550   0.974 -0.5508 -1.0969  0.5742
    1MOL   H726  726   4.422   4.621   0.812 -0.4714  2.9985  1.5303
    1MOL   H727  727   4.603   4.388   0.924  1.8183  0.5892 -0.3647
    1MOL   H728  728   4.625   4.458   0.767 -0.1559 -2.8651 -0.3315
    1MOL   H729  729   4.505   4.269   0.735 -0.5434 -0.8713  0.1281
    1MOL   H730  730   4.396   4.408   0.697  0.5582  0.1258 -0.1401
    1MOL   H731  731   4.320   4.367   0.935  0.2291 -0.5411  0.8444
    1MOL   H732  732   4.397   4.217   0.937  0.6004 -0.3582 -0.0353
    1MOL   H733  733   4.269   4.171   0.700  1.7507 -0.1935  0.7522
    1MOL   H734  734   4.190   4.320   0.730  1.2862  0.8276 -0.8310
    1MOL   H735  735   4.101   4.227   0.950  1.3505 -0.7237  0.5708
    1MOL   H736  736   4.170   4.072   0.906  1.8293 -1.1255 -3.4677
    1MOL   H737  737   4.045   4.104   0.688 -3.2315 -0.0595 -1.7240
    1MOL   H738  738   3.950   4.225   0.762  1.6188  1.5423  0.8247
    1MOL   H739  739   3.859   4.067   0.936 -0.5542  1.5509 -0.4112
    1MOL   H740  740   3.955   3.935   0.872  1.0293  0.8990  0.2209
    1MOL   H741  741   3.755   4.098   0.734  0.0767 -0.8487 -0.1398
    1MOL   H742  742   3.721   3.953   0.781  0.0236 -1.3740 -1.4173
    2MOL     C1  743   5.688   1.051   4.332  0.0702 -0.7918 -0.3339
    2MOL     O2  744   5.641   1.090   4.441  0.7815 -0.6151  0.5137
    2MOL     C3  745   5.649   0.921   4.270 -0.2406  0.3352  0.1290
    2MOL     C4  746   5.594   0.804   4.365  0.5836  0.1725 -0.1650
    2MOL     C5  747   5.441   0.829   4.391  0.1232  0.3090 -0.1109
    2MOL     C6  748   5.404   0.756   4.523 -0.0570 -0.0219  0.5702
    2MOL     C7  749   5.264   0.792   4.562 -0.3762  0.0376  0.1386
    2MOL     C8  750   5.219   0.736   4.707  0.3557  0.8620  0.5435
    2MOL     C9  751   5.064   0.732   4.720  0.3128 -0.9826  0.3503
    2MOL    C10  752   5.003   0.861   4.780  0.9928  0.0710 -0.4700
    2MOL    C11  753   4.852   0.857   4.818 -0.6957 -0.1780  0.1111
    2MOL    C12  754   4.771   0.785   4.707 -0.0166  0.1704  0.1238
    2MOL    C13  755   4.621   0.792   4.715 -0.0709  0.4517 -0.5173
    2MOL    N14  756   4.557   0.703   4.614  0.0600  0.2774 -0.4311
    2MOL    H15  757   5.733   0.883   4.213  0.1851  1.8530 -0.2629
    2MOL    H16  758   5.582   0.947   4.188 -0.6659 -0.8291  0.0950
    2MOL    H17  759   5.608   0.706   4.320 -0.3905 -0.0386 -0.0262
    2MOL    H18  760   5.663   0.810   4.449  1.2438 -1.8717 -0.5387
    2MOL    H19  761   5.378   0.786   4.313  2.1187  1.0746 -2.2217
    2MOL    H20  762   5.426   0.935   4.412  0.7053  0.0113  1.8909
    2MOL    H21  763   5.418   0.649   4.515 -3.3727 -0.6034  1.5922
    2MOL    H22  764   5.470   0.783   4.605  0.6947  1.3145 -0.4441
    2MOL    H23  765   5.189   0.767   4.487  0.3416  0.7186 -0.8278
    2MOL    H24  766   5.259   0.901   4.567  0.2156  0.1085 -0.5688
    2MOL    H25  767   5.266   0.798   4.783  0.5425  0.8559  0.4345
    2MOL    H26  768   5.257   0.634   4.713 -3.0289 -0.4500  0.4445
    2MOL    H27  769   5.033   0.653   4.788 -2.1982  0.5218  1.0077
    2MOL    H28  770   5.024   0.708   4.622  1.4506 -1.8568  0.0862
    2MOL    H29  771   5.022   0.945   4.714  1.3929  0.7341  0.4707
    2MOL    H30  772   5.056   0.890   4.871  0.7602  0.1434 -0.3547
    2MOL    H31  773   4.819   0.961   4.816 -0.4463 -0.1112 -0.6160
    2MOL    H32  774   4.832   0.802   4.910 -0.5369  1.7859  1.3378
    2MOL    H33  775   4.800   0.680   4.711 -1.0026 -0.1477 -0.8274
    2MOL    H34  776   4.797   0.823   4.608 -1.1335 -1.1909 -0.7128
    2MOL    H35  777   4.591   0.895   4.695  1.7924  1.0013 -0.5462
    2MOL    H36  778   4.573   0.771   4.810  1.8545  2.0601  0.8481
    2MOL    H37  779   4.617   0.636   4.570  0.2475  0.4057 -0.3689
    2MOL    H38  780   5.764   1.107   4.277 -0.3746  1.6233  1.3960
    2MOL    C39  781   4.430   0.718   4.568 -0.8131  0.5297 -0.2949
    2MOL    O40  782   4.343   0.790   4.613 -0.2993 -0.1138  0.2688
    2MOL    C41  783   4.396   0.619   4.457  0.0357  0.6730  0.1798
    2MOL    C42  784   4.397   0.687   4.318 -0.2652  0.4495  0.3388
    2MOL    C43  785   4.294   0.636   4.222  0.6399  0.4768  0.5868
    2MOL    C44  786   4.332   0.493   4.176  1.0054  0.0786 -0.2014
    2MOL    C45  787   4.267   0.444   4.048 -0.1504 -0.3060  0.1019
    2MOL    C46  788   4.303   0.293   4.036 -0.1760  0.0282  0.5119
    2MOL    C47  789   4.230   0.223   3.921 -0.4895  0.0127  0.2625
    2MOL    C48  790   4.297   0.085   3.893 -0.1028 -0.7028  0.4242
    2MOL    C49  791   4.263   0.039   3.750 -0.1445 -0.4655  0.0144
    2MOL    C50  792   4.361   7.622   3.702  0.1636  0.5322 -0.7532
    2MOL    C51  793   4.310   7.597   3.559 -0.5502  0.1270 -0.8730
    2MOL    N52  794   4.329   0.015   3.472  0.5061 -0.1569 -0.1227
    2MOL    H53  795   4.296   0.585   4.487  0.0419  0.2257 -0.3036
    2MOL    H54  796   4.458   0.529   4.460  1.6527  1.6881 -1.9136
    2MOL    H55  797   4.389   0.795   4.324  1.5452  0.5885  0.4039
    2MOL    H56  798   4.494   0.657   4.278 -0.1623  2.1108 -0.6908
    2MOL    H57  799   4.300   0.701   4.135  2.6659 -1.4273 -0.7404
    2MOL    H58  800   4.190   0.648   4.253  0.2704  1.7808 -1.0965
    2MOL    H59  801   4.438   0.477   4.156  0.5384 -1.8802 -1.1354
    2MOL    H60  802   4.309   0.425   4.258 -0.1357  2.8256  1.8457
    2MOL    H61  803   4.304   0.511   3.970 -1.6316 -1.8640 -2.0060
    2MOL    H62  804   4.159   0.459   4.054 -0.6234 -2.5388 -2.2367
    2MOL    H63  805   4.285   0.238   4.128  0.6693 -2.3542 -0.6996
    2MOL    H64  806   4.411   0.295   4.023 -0.2008 -2.4535 -0.2386
    2MOL    H65  807   4.226   0.296   3.840  0.5584  1.0144  1.0918
    2MOL    H66  808   4.123   0.207   3.939 -0.0343 -2.6397  0.8895
    2MOL    H67  809   4.263   0.015   3.968 -1.3350 -0.5365  0.0320
    2MOL    H68  810   4.406   0.083   3.897  0.1198  1.5907 -2.3392
    2MOL    H69  811   4.282   0.127   3.687  1.3271 -2.3604 -2.2908
    2MOL    H70  812   4.158   0.012   3.743  0.6554 -3.7645 -0.0858
    2MOL    H71  813   4.338   7.531   3.758 -0.2613  0.6883 -0.6673
    2MOL    H72  814   4.467   7.646   3.709  0.4832 -0.9205 -0.4460
    2MOL    H73  815   4.204   7.570   3.560 -0.8329  1.2699 -0.2514
    2MOL    H74  816   4.368   7.511   3.525  0.2739  0.0814  0.6101
    2MOL    H75  817   4.253   0.081   3.483 -1.6627 -2.4029 -0.8927
    2MOL    C76  818   4.436   0.048   3.396 -0.2375 -0.2382 -0.2817
    2MOL    O77  819   4.536   7.673   3.403 -0.0370  0.0734  0.7760
    2MOL    C78  820   4.429   0.180   3.320  0.3007 -0.0732 -0.2704
    2MOL    C79  821   4.334   0.282   3.380 -0.3759 -0.4369 -0.0637
    2MOL    C80  822   4.393   0.348   3.506 -0.2620  0.1672 -0.1471
    2MOL    C81  823   4.295   0.447   3.582  0.3916 -0.0268  0.1945
    2MOL    C82  824   4.364   0.516   3.700  0.7001 -0.7360  0.2868
    2MOL    C83  825   4.451   0.638   3.681  0.4301 -0.3950 -0.4422
    2MOL    C84  826   4.478   0.716   3.812 -0.0479 -0.4549 -0.0144
    2MOL    C85  827   4.590   0.817   3.792  0.0585  0.7957  1.2377
    2MOL    C86  828   4.607   0.925   3.898  0.0839  0.8075 -0.8297
    2MOL    C87  829   4.722   1.022   3.863  0.3014  0.8887  0.4368
    2MOL    C88  830   4.755   1.119   3.984  0.2575 -0.1097  0.2055
    2MOL    N89  831   4.752   1.052   4.108 -0.0174  0.3634 -0.6212
    2MOL    H90  832   4.393   0.148   3.222  0.2046 -0.3884 -0.1327
    2MOL    H91  833   4.521   0.235   3.301  0.2896  0.0122 -0.0776
    2MOL    H92  834   4.307   0.371   3.322 -1.8580 -1.3941 -0.8777
    2MOL    H93  835   4.235   0.247   3.411 -1.0899  2.4300  1.0656
    2MOL    H94  836   4.485   0.400   3.479 -0.8870  0.8922 -0.9041
    2MOL    H95  837   4.431   0.277   3.580 -0.3758 -0.6326 -0.8452
    2MOL    H96  838   4.250   0.520   3.515 -1.2603 -2.3676 -1.3269
    2MOL    H97  839   4.204   0.396   3.615 -0.5134 -0.3072 -2.5819
    2MOL    H98  840   4.419   0.443   3.761 -0.3454 -0.6155  1.3744
    2MOL    H99  841   4.290   0.553   3.770  1.1501 -0.8441  0.8290
    2MOL   H100  842   4.396   0.699   3.610  0.4488 -0.8833 -0.8766
    2MOL   H101  843   4.550   0.616   3.639  0.7932  0.3371  0.0123
    2MOL   H102  844   4.495   0.654   3.900  1.1852 -0.5153 -0.2942
    2MOL   H103  845   4.384   0.769   3.825  1.0611  1.4987  0.1545
    2MOL   H104  846   4.579   0.867   3.696 -0.4423  1.9416  1.8875
    2MOL   H105  847   4.683   0.759   3.794 -1.9055 -2.5883 -1.6513
    2MOL   H106  848   4.616   0.867   3.990 -2.3114 -1.8048 -2.1760
    2MOL   H107  849   4.517   0.986   3.899 -1.2805 -1.1094 -2.4877
    2MOL   H108  850   4.700   1.087   3.778 -0.5874  1.0148  0.7593
    2MOL   H109  851   4.796   0.949   3.830 -0.1784  1.2263 -1.4619
    2MOL   H110  852   4.690   1.207   3.986  0.5763  0.1516 -0.7388
    2MOL   H111  853   4.854   1.163   3.968  0.9327 -1.1716  1.3596
    2MOL   H112  854   4.669   1.001   4.135  1.1119 -0.5085  1.3262
    2MOL   C113  855   4.835   1.069   4.211 -0.3655  0.0341  0.2144
    2MOL   O114  856   4.937   1.142   4.205 -0.1355  0.0235 -0.0531
    2MOL   C115  857   4.803   0.997   4.349  0.6011  0.0500  0.3273
    2MOL   C116  858   4.746   1.086   4.455 -0.3903 -0.0914 -0.0773
    2MOL   C117  859   4.606   1.127   4.405  0.6251 -0.0085 -0.0436
    2MOL   C118  860   4.551   1.231   4.510 -0.0566 -0.4316 -0.4373
    2MOL   C119  861   4.430   1.310   4.462  0.8797  0.0144 -0.0781
    2MOL   C120  862   4.469   1.439   4.387 -0.2258  0.0383 -0.6097
    2MOL   C121  863   4.357   1.539   4.338 -0.6517  0.2534 -0.7212
    2MOL   C122  864   4.419   1.677   4.300  0.2753 -0.0015 -0.0212
    2MOL   C123  865   4.526   1.674   4.187 -0.0461 -0.0796  0.2541
    2MOL   C124  866   4.567   1.824   4.151 -0.3857 -0.5883  0.3628
    2MOL   C125  867   4.644   1.893   4.263  0.1008  0.4678  0.3611
    2MOL   N126  868   4.673   2.032   4.216  0.0529  0.0118  0.0505
    2MOL   H127  869   4.897   0.950   4.378 -0.2670 -0.5316  2.2603
    2MOL   H128  870   4.743   0.907   4.335  1.3071 -0.3996  0.1275
    2MOL   H129  871   4.762   1.040   4.553 -0.6040  0.2741  0.1310
    2MOL   H130  872   4.805   1.178   4.458 -0.0608 -0.3195  0.9553
    2MOL   H131  873   4.536   1.044   4.402 -0.5754  0.8537  2.0825
    2MOL   H132  874   4.612   1.181   4.311  0.1527  2.3552  1.2266
    2MOL   H133  875   4.512   1.177   4.596  0.2505  0.4281  0.2476
    2MOL   H134  876   4.622   1.303   4.551  0.2616 -0.8179 -0.3124
    2MOL   H135  877   4.368   1.335   4.548  0.2745  1.1226 -0.8296
    2MOL   H136  878   4.363   1.248   4.402  0.2816  0.5363  0.0443
    2MOL   H137  879   4.534   1.402   4.308 -0.3092 -0.9109 -0.2408
    2MOL   H138  880   4.539   1.490   4.453 -0.4217 -1.8354  1.1202
    2MOL   H139  881   4.289   1.556   4.421 -1.4226  2.0127 -1.6624
    2MOL   H140  882   4.291   1.505   4.257  0.1077  1.5210 -1.8965
    2MOL   H141  883   4.457   1.732   4.386  0.6591 -2.0501  1.1403
    2MOL   H142  884   4.341   1.744   4.262 -1.1915 -1.5957  0.1024
    2MOL   H143  885   4.488   1.626   4.097  0.6934 -0.3003  0.0596
    2MOL   H144  886   4.615   1.616   4.210 -0.1943 -0.4784 -0.1822
    2MOL   H145  887   4.479   1.884   4.129  1.8638  1.7964 -2.3908
    2MOL   H146  888   4.621   1.823   4.057 -0.4900  1.0799  0.2728
    2MOL   H147  889   4.740   1.843   4.278  0.0928  0.2373 -0.3336
    2MOL   H148  890   4.594   1.902   4.359 -1.0127 -2.0930  0.0680
    2MOL   H149  891   4.592   2.090   4.196  1.2039  1.4294 -0.6144
    2MOL   C150  892   4.789   2.083   4.182 -0.4877 -0.0758 -0.0791
    2MOL   O151  893   4.888   2.014   4.175 -0.1425  0.2228  0.1623
    2MOL   C152  894   4.806   2.230   4.185  0.2724  0.3333  0.3759
    2MOL   C153  895   4.894   2.301   4.069  0.3630 -0.6876 -0.7988
    2MOL   C154  896   4.902   2.449   4.096 -0.3378  0.0496 -0.0652
    2MOL   C155  897   5.001   2.528   4.014 -0.4545 -0.2478  0.1622
    2MOL   C156  898   4.947   2.540   3.867 -0.0452  0.8226  0.3647
    2MOL   C157  899   5.025   2.449   3.769  0.2547  0.3804  0.0187
    2MOL   C158  900   5.172   2.494   3.739 -0.0159 -0.2296  0.6619
    2MOL   C159  901   5.187   2.589   3.620 -0.0823 -0.4168 -0.5245
    2MOL   C160  902   5.329   2.610   3.581  0.0130 -0.1389  0.6296
    2MOL   C161  903   5.393   2.501   3.506  0.2278 -0.1116 -0.0688
    2MOL   C162  904   5.545   2.499   3.483  0.1435  0.8437  0.0006
    2MOL   N163  905   5.615   2.441   3.602  0.0088  0.1714 -0.2378
    2MOL   H164  906   4.861   2.246   4.278  0.3256 -2.6306  0.8930
    2MOL   H165  907   4.709   2.279   4.193  0.1724  0.4355 -1.3620
    2MOL   H166  908   4.987   2.249   4.089 -0.1294 -1.5772 -0.7979
    2MOL   H167  909   4.856   2.275   3.970 -2.2510  1.4634 -0.4249
    2MOL   H168  910   4.929   2.461   4.201  2.7365  0.0004 -0.8166
    2MOL   H169  911   4.800   2.486   4.080 -0.6237 -0.6098  0.2130
    2MOL   H170  912   5.009   2.631   4.047  0.5577 -0.1875 -0.2637
    2MOL   H171  913   5.096   2.475   4.020  1.1813  2.6221  0.4315
    2MOL   H172  914   4.967   2.641   3.831 -3.7758  1.1187 -1.1203
    2MOL   H173  915   4.838   2.541   3.867 -0.0644  0.4972  2.2191
    2MOL   H174  916   4.970   2.440   3.675 -1.6129  2.0736  0.9282
    2MOL   H175  917   5.023   2.353   3.821  0.8815  0.2927 -0.1148
    2MOL   H176  918   5.242   2.411   3.721  0.5896  0.8744 -2.4837
    2MOL   H177  919   5.209   2.550   3.824  0.2326  1.7207 -0.6995
    2MOL   H178  920   5.143   2.681   3.658  0.4672 -0.4949  0.2864
    2MOL   H179  921   5.120   2.571   3.536 -0.0878 -1.7739 -0.2315
    2MOL   H180  922   5.385   2.614   3.675 -0.0494  0.3318  0.6467
    2MOL   H181  923   5.335   2.712   3.544  0.7660 -0.7136 -0.9180
    2MOL   H182  924   5.343   2.498   3.409  0.3141  0.9810 -0.1549
    2MOL   H183  925   5.367   2.402   3.545 -0.1629  0.0917  0.1834
    2MOL   H184  926   5.582   2.597   3.454  0.6941 -0.0074 -2.2691
    2MOL   H185  927   5.573   2.429   3.404  2.0023 -0.5919  1.8881
    2MOL   H186  928   5.653   2.499   3.676  0.6241  1.2658 -1.3847
    2MOL   C187  929   5.621   2.309   3.625  0.8443 -0.4896  0.3557
    2MOL   O188  930   5.565   2.229   3.549  0.1278  0.3724  0.0282
    2MOL   C189  931   5.707   2.264   3.742  0.1720  0.4917  0.0649
    2MOL   C190  932   5.652   2.135   3.814 -0.0369  0.3201 -0.3520
    2MOL   C191  933   5.553   2.157   3.938 -0.4598  0.2590 -0.1610
    2MOL   C192  934   5.543   2.034   4.033  0.8135 -0.7702  0.1174
    2MOL   C193  935   5.477   2.078   4.165  0.4248  0.3693 -0.5527
    2MOL   C194  936   5.414   1.961   4.242  0.4751  0.2818 -0.4035
    2MOL   C195  937   5.523   1.874   4.310 -0.1843 -0.7093  0.7156
    2MOL   C196  938   5.472   1.756   4.382  0.4877 -0.4849  0.4392
    2MOL   C197  939   5.575   1.669   4.462 -0.3322  0.6080  0.7737
    2MOL   C198  940   5.527   1.537   4.514  0.5319  0.0759 -0.5817
    2MOL   C199  941   5.633   1.460   4.597 -0.8930  0.0080  0.4209
    2MOL   N200  942   5.576   1.332   4.645 -0.0799 -0.2156 -0.0291
    2MOL   H201  943   5.716   2.347   3.812 -0.7544 -0.4564  1.3368
    2MOL   H202  944   5.809   2.241   3.711  0.1982 -0.8213  1.0406
    2MOL   H203  945   5.605   2.068   3.743  1.0810 -0.6831 -0.1564
    2MOL   H204  946   5.740   2.081   3.851 -1.8000 -2.4153 -0.0515
    2MOL   H205  947   5.457   2.184   3.893 -1.0581 -1.4780  0.0286
    2MOL   H206  948   5.582   2.244   3.998 -1.5429  0.1236  0.5780
    2MOL   H207  949   5.485   1.967   3.970 -0.6174  0.2210  0.3455
    2MOL   H208  950   5.632   1.980   4.063  2.3119  2.1516  1.1556
    2MOL   H209  951   5.392   2.142   4.143 -0.0415 -0.3263 -0.8119
    2MOL   H210  952   5.554   2.139   4.212 -0.8681  0.5063  1.4625
    2MOL   H211  953   5.355   1.910   4.165 -3.5416  0.2947  2.5203
    2MOL   H212  954   5.332   1.983   4.309  0.9082  0.6433  0.0081
    2MOL   H213  955   5.566   1.944   4.381  0.7077 -0.4510 -0.0638
    2MOL   H214  956   5.602   1.843   4.241 -2.8437  0.6726 -3.1504
    2MOL   H215  957   5.424   1.694   4.306 -0.3523  0.8528 -0.1215
    2MOL   H216  958   5.390   1.776   4.451 -1.5991  0.9775 -2.4030
    2MOL   H217  959   5.618   1.732   4.540 -0.3654  0.4216  0.9437
    2MOL   H218  960   5.664   1.646   4.405 -0.2395  1.6889  0.4796
    2MOL   H219  961   5.485   1.475   4.435  1.1499 -0.0813 -0.7859
    2MOL   H220  962   5.453   1.560   4.591 -0.2087 -0.7548 -1.0282
    2MOL   H221  963   5.662   1.525   4.680  1.9869  2.4588 -2.3688
    2MOL   H222  964   5.723   1.432   4.544 -2.3600 -1.2903 -1.4399
    2MOL   H223  965   5.578   1.259   4.575 -0.6114 -1.5272  1.2888
    2MOL   C224  966   5.516   1.307   4.761  0.0568  0.6919  0.0807
    2MOL   O225  967   5.527   1.388   4.851 -0.6893 -0.3386 -0.0124
    2MOL   C226  968   5.462   1.165   4.793 -0.0765  0.3922  0.7194
    2MOL   C227  969   5.548   1.100   4.900 -0.2541 -0.4756 -0.0655
    2MOL   C228  970   5.498   0.967   4.953 -0.6771  0.1600  0.0559
    2MOL   C229  971   5.600   0.925   5.069 -0.0794  0.2483 -0.2316
    2MOL   C230  972   5.571   0.781   5.131  0.1253 -0.3250 -0.0157
    2MOL   C231  973   5.702   0.709   5.189  0.2713  0.1600  0.8011
    2MOL   C232  974   5.661   0.576   5.257  0.1912  0.4341  0.0562
    2MOL   C233  975   5.778   0.501   5.314 -0.1124  0.9066  0.5255
    2MOL   C234  976   5.750   0.353   5.361 -0.5515  0.2337 -0.0987
    2MOL   C235  977   5.876   0.271   5.384  0.3375 -0.2584  0.6532
    2MOL   C236  978   5.993   0.324   5.459  0.4952 -0.1772 -0.3396
    2MOL   N237  979   5.951   0.366   5.593  0.1442  0.0161  0.1440
    2MOL   H238  980   5.471   1.110   4.699 -1.1794 -0.1230  0.9114
    2MOL   H239  981   5.358   1.174   4.824 -0.0860 -0.6479  0.9901
    2MOL   H240  982   5.647   1.094   4.855  0.2699  3.7192  0.3511
    2MOL   H241  983   5.557   1.174   4.979  0.5010 -1.5660  0.8799
    2MOL   H242  984   5.489   0.904   4.865  2.2774  2.2160 -1.8361
    2MOL   H243  985   5.398   0.970   4.996  0.1271  1.5225  1.9025
    2MOL   H244  986   5.698   0.929   5.022  1.7546 -0.8749  3.2806
    2MOL   H245  987   5.609   1.003   5.144 -0.9901 -0.8036  0.9944
    2MOL   H246  988   5.512   0.714   5.070  0.5284 -1.3774  0.7444
    2MOL   H247  989   5.511   0.798   5.221 -1.8803 -2.1870 -0.9580
    2MOL   H248  990   5.755   0.770   5.262 -0.1276  2.9590 -1.1501
    2MOL   H249  991   5.773   0.687   5.109 -3.8729 -2.3639 -2.3574
    2MOL   H250  992   5.605   0.522   5.180 -1.1410  1.0832  0.5444
    2MOL   H251  993   5.582   0.612   5.324  0.8822  2.0092  0.0451
    2MOL   H252  994   5.829   0.558   5.391 -3.1886  0.0656  3.2688
    2MOL   H253  995   5.855   0.501   5.237  0.8705  0.0636  1.5032
    2MOL   H254  996   5.691   0.297   5.289  1.1206 -1.5598 -0.1081
    2MOL   H255  997   5.701   0.353   5.458  0.3909 -0.7637  0.3866
    2MOL   H256  998   5.920   0.228   5.294  3.4517 -1.2904  2.5505
    2MOL   H257  999   5.842   0.178   5.429 -1.2538 -0.9655 -1.9367
    2MOL   H258 1000   6.032   0.405   5.397  0.8827 -0.4794 -0.4973
    2MOL   H259 1001   6.066   0.243   5.465  0.5593  0.0007  1.5136
    2MOL   H260 1002   5.892   0.311   5.654 -0.2221 -0.5265 -0.6976
    2MOL   C261 1003   5.983   0.487   5.649 -0.0821  0.5154  0.2636
    2MOL   O262 1004   6.060   0.560   5.594 -0.1557  0.0061 -0.1967
    2MOL   C263 1005   5.900   0.525   5.771  0.0612  0.0774  0.3924
    2MOL   C264 1006   5.797   0.636   5.734 -0.3355 -0.3513 -0.1288
    2MOL   C265 1007   5.696   0.666   5.846  0.2554  0.0894  0.5558
    2MOL   C266 1008   5.725   0.782   5.952  0.0871  0.3807 -0.1433
    2MOL   C267 1009   5.699   0.921   5.897 -0.1903  0.3476  0.4980
    2MOL   C268 1010   5.696   1.021   6.014 -0.0452 -0.1467  0.1745
    2MOL   C269 1011   5.737   1.168   5.970 -0.4662 -0.3054 -0.4110
    2MOL   C270 1012   5.743   1.273   6.086 -0.0000  0.1011  0.7850
    2MOL   C271 1013   5.599   1.317   6.134  0.4028  0.0258  0.4803
    2MOL   C272 1014   5.603   1.442   6.221  0.2551 -0.1024 -0.5823
    2MOL   C273 1015   5.477   1.464   6.299 -0.4700  0.3746 -0.2042
    2MOL   N274 1016   5.493   1.599   6.357 -0.2044 -0.4319  0.2726
    2MOL   H275 1017   5.974   0.559   5.845 -0.4520 -0.0404  0.9611
    2MOL   H276 1018   5.855   0.435   5.812 -1.9917  0.5043 -0.8771
    2MOL   H277 1019   5.853   0.723   5.701  0.6209 -0.3671  1.4008
    2MOL   H278 1020   5.735   0.600   5.652 -1.6323 -0.2588  0.7980
    2MOL   H279 1021   5.689   0.573   5.903  1.3618  0.3875  1.2127
    2MOL   H280 1022   5.599   0.684   5.801  0.0916  2.4783  1.7680
    2MOL   H281 1023   5.661   0.760   6.037 -0.3457 -0.1550 -0.6047
    2MOL   H282 1024   5.830   0.777   5.980  0.5603  0.4225 -1.8670
    2MOL   H283 1025   5.606   0.946   5.844  1.0734  1.7053 -1.1390
    2MOL   H284 1026   5.780   0.950   5.830  0.5940 -1.8257  0.4858
    2MOL   H285 1027   5.774   0.992   6.085 -1.1805 -2.5975  0.4674
    2MOL   H286 1028   5.604   1.024   6.072 -0.8103  0.8858 -1.0545
    2MOL   H287 1029   5.668   1.215   5.899 -0.3722  0.6599  0.1295
    2MOL   H288 1030   5.830   1.167   5.914 -0.2688 -1.7888 -0.0722
    2MOL   H289 1031   5.798   1.363   6.059 -0.1791 -0.1157 -0.3352
    2MOL   H290 1032   5.810   1.241   6.166 -1.2956  2.0245  2.6685
    2MOL   H291 1033   5.541   1.234   6.173 -0.2895 -0.9538 -2.4832
    2MOL   H292 1034   5.526   1.336   6.056 -0.9421 -1.7881  1.2651
    2MOL   H293 1035   5.620   1.517   6.143 -4.7051  1.2239 -0.5537
    2MOL   H294 1036   5.687   1.436   6.289  0.3980  0.9676 -0.6515
    2MOL   H295 1037   5.465   1.384   6.372 -0.9972  1.4158  0.8855
    2MOL   H296 1038   5.390   1.474   6.234 -0.6923  2.2166  0.3273
    2MOL   H297 1039   5.581   1.642   6.333 -0.8783  0.4694 -0.6717
    2MOL   C298 1040   5.400   1.677   6.404  0.2121  0.3550  0.2066
    2MOL   O299 1041   5.424   1.796   6.428 -0.0720  0.0391  0.1945
    2MOL   C300 1042   5.261   1.617   6.430  0.7320 -0.0436  0.0557
    2MOL   C301 1043   5.162   1.711   6.491 -0.4972  0.1738 -0.7968
    2MOL   C302 1044   5.026   1.663   6.515  1.1488 -0.3117  0.0470
    2MOL   C303 1045   4.935   1.769   6.569 -0.5506  0.0045  0.6719
    2MOL   C304 1046   4.784   1.736   6.555  0.3270  0.3061 -0.3414
    2MOL   C305 1047   4.740   1.630   6.660  0.6300 -0.8402 -0.2839
    2MOL   C306 1048   4.588   1.591   6.653  0.0339  0.0695 -0.3786
    2MOL   C307 1049   4.561   1.496   6.540  0.1353 -0.5095  0.6338
    2MOL   C308 1050   4.479   1.555   6.422  0.3870 -0.9357  0.1795
    2MOL   C309 1051   4.457   1.471   6.306 -0.1772  0.2904 -0.1106
    2MOL   C310 1052   4.396   1.538   6.183 -0.2565  0.1968 -0.1522
    2MOL   N311 1053   4.396   1.458   6.059  0.1766  1.0789 -0.3716
    2MOL   H312 1054   5.271   1.526   6.490  1.9811 -0.1329 -0.2710
    2MOL   H313 1055   5.221   1.583   6.334 -1.1454 -3.6610  2.0069
    2MOL   H314 1056   5.206   1.751   6.582  0.0596 -1.1216 -0.4850
    2MOL   H315 1057   5.152   1.789   6.416  0.7539  0.9007 -0.2347
    2MOL   H316 1058   5.034   1.584   6.589 -0.5486 -0.2964  0.2771
    2MOL   H317 1059   4.983   1.604   6.434 -0.6409 -0.3480  0.9965
    2MOL   H318 1060   4.976   1.811   6.660  2.0606 -2.9584  0.9322
    2MOL   H319 1061   4.954   1.851   6.500 -2.7219  0.2945  0.3766
    2MOL   H320 1062   4.767   1.685   6.460  0.6928  1.7662 -1.1971
    2MOL   H321 1063   4.713   1.818   6.546  0.0466 -0.0187 -1.0928
    2MOL   H322 1064   4.759   1.663   6.762 -1.3863 -0.1010 -0.1279
    2MOL   H323 1065   4.806   1.544   6.646  1.8034 -0.1359  0.7917
    2MOL   H324 1066   4.518   1.674   6.653 -0.8909 -0.7022 -1.3121
    2MOL   H325 1067   4.561   1.531   6.740 -1.7475  0.3022 -0.7621
    2MOL   H326 1068   4.502   1.416   6.583 -0.3514  0.0670  1.0568
    2MOL   H327 1069   4.649   1.442   6.504 -0.2531 -1.1629  0.6580
    2MOL   H328 1070   4.536   1.643   6.393 -0.7236 -1.0638 -2.5183
    2MOL   H329 1071   4.385   1.596   6.459 -1.2021 -3.5001 -0.8866
    2MOL   H330 1072   4.396   1.391   6.348 -0.9137  1.0332  0.2429
    2MOL   H331 1073   4.547   1.422   6.269 -0.8197 -0.4501 -0.7255
    2MOL   H332 1074   4.462   1.620   6.153  0.8511 -0.5834  0.0947
    2MOL   H333 1075   4.302   1.581   6.216 -0.4148 -0.1714 -0.1205
    2MOL   H334 1076   4.459   1.477   5.982 -0.1646  0.6733 -0.7561
    2MOL   C335 1077   4.309   1.359   6.031  0.4824 -0.1794 -0.2423
    2MOL   O336 1078   4.223   1.321   6.112 -0.6771 -0.8673  0.5315
    2MOL   C337 1079   4.328   1.289   5.895 -0.0301 -0.1442  0.1208
    2MOL   C338 1080   4.246   1.160   5.864  0.7989 -0.4019 -0.5394
    2MOL   C339 1081   4.294   1.041   5.935  0.0155  1.4986  0.1009
    2MOL   C340 1082   4.254   1.025   6.079 -0.4303 -0.2898  0.1816
    2MOL   C341 1083   4.259   0.879   6.121 -0.9264  0.5053 -0.4584
    2MOL   C342 1084   4.191   0.852   6.253  0.1993  0.5823  0.6352
    2MOL   C343 1085   4.174   0.704   6.285  0.0908  0.0756 -0.0140
    2MOL   C344 1086   4.301   0.626   6.314  0.5630  0.5530 -0.1366
    2MOL   C345 1087   4.370   0.655   6.447 -0.1336  0.0573 -0.7481
    2MOL   C346 1088   4.418   0.527   6.510  0.2867  0.4445  0.0303
    2MOL   C347 1089   4.452   0.551   6.662 -0.1402  0.1363  0.0165
    2MOL   N348 1090   4.498   0.427   6.713  0.3111 -0.3910 -0.4168
    2MOL   H349 1091   4.435   1.284   5.876 -0.3964  1.6139 -2.7635
    2MOL   H350 1092   4.286   1.363   5.827 -0.3228  0.6207  1.1238
    2MOL   H351 1093   4.139   1.168   5.886  1.1315 -1.1985  1.5166
    2MOL   H352 1094   4.250   1.136   5.758 -1.8668  0.9473 -0.9977
    2MOL   H353 1095   4.401   1.032   5.920 -0.3721  0.9627 -2.6566
    2MOL   H354 1096   4.244   0.958   5.885  0.3947  1.5373 -0.3456
    2MOL   H355 1097   4.324   1.082   6.141 -2.3889  2.1523  0.2390
    2MOL   H356 1098   4.154   1.067   6.085  0.7062  2.6353 -0.3749
    2MOL   H357 1099   4.366   0.855   6.130 -0.7651  1.3021 -0.2650
    2MOL   H358 1100   4.215   0.811   6.048 -0.8195 -0.8383  0.6935
    2MOL   H359 1101   4.088   0.888   6.243  0.1028  0.1629  0.1250
    2MOL   H360 1102   4.240   0.888   6.344  0.2200 -0.3454  0.9930
    2MOL   H361 1103   4.122   0.660   6.200  0.0272 -0.2275  0.1826
    2MOL   H362 1104   4.102   0.706   6.366  1.2578  0.1655  1.0277
    2MOL   H363 1105   4.369   0.623   6.228  0.6696  2.2884 -0.1198
    2MOL   H364 1106   4.259   0.526   6.320 -0.5850  0.8067 -3.0728
    2MOL   H365 1107   4.301   0.702   6.517 -1.2785 -2.7535  0.0661
    2MOL   H366 1108   4.448   0.732   6.445  0.5304 -0.6228 -1.3008
    2MOL   H367 1109   4.498   0.480   6.454 -1.1542 -0.2774 -1.4611
    2MOL   H368 1110   4.339   0.452   6.503 -3.5398  3.9718  2.9124
    2MOL   H369 1111   4.370   0.594   6.719  0.2860  2.8290 -1.3202
    2MOL   H370 1112   4.529   0.628   6.656 -1.3589  1.2087 -2.1689
    2MOL   H371 1113   4.430   0.361   6.749  2.3516 -2.7915 -0.8774
    2MOL   C372 1114   4.621   0.398   6.737 -0.3959 -0.0641 -0.0072
    2MOL   O373 1115   4.714   0.469   6.712  0.5543  0.2273  0.2805
    2MOL   C374 1116   4.648   0.261   6.789  0.3889  0.0690  0.2726
    2MOL   C375 1117   4.754   0.184   6.712  0.1133 -0.6468 -0.2599
    2MOL   C376 1118   4.691   0.121   6.583 -0.8566 -0.0087  0.2743
    2MOL   C377 1119   4.799   0.046   6.492 -0.3521 -0.5222 -0.2158
    2MOL   C378 1120   4.833   7.605   6.544  0.0227 -0.1072  0.2886
    2MOL   C379 1121   4.903   7.526   6.429  0.4948 -0.1694  0.4236
    2MOL   C380 1122   4.950   7.387   6.475  0.4995 -0.2886  0.3534
    2MOL   C381 1123   5.043   7.311   6.377 -0.1754 -0.5475  0.0240
    2MOL   C382 1124   5.192   7.331   6.394  0.6409 -0.4209  0.3736
    2MOL   C383 1125   5.266   7.238   6.306 -0.8371 -0.3366 -0.4128
    2MOL   C384 1126   5.418   7.258   6.303  0.1140 -0.4056  0.7129
    2MOL   N385 1127   5.482   7.161   6.210 -0.0978 -0.1513  0.2106
    2MOL   H386 1128   4.560   0.198   6.790  1.5701 -1.6173  2.0278
    2MOL   H387 1129   4.690   0.272   6.889  1.6888  0.3083 -0.2898
    2MOL   H388 1130   4.830   0.252   6.673 -1.4279  1.7149  0.7100
    2MOL   H389 1131   4.793   0.107   6.778 -0.3677 -2.0281 -1.5627
    2MOL   H390 1132   4.655   0.204   6.522  0.7886  0.6318  0.1542
    2MOL   H391 1133   4.608   0.053   6.604 -1.5178  0.5914 -0.3292
    2MOL   H392 1134   4.774   0.040   6.386  2.4311 -2.0167 -0.8422
    2MOL   H393 1135   4.890   0.107   6.489 -0.4493 -0.4385 -1.9135
    2MOL   H394 1136   4.743   7.548   6.568  0.2914 -0.6843 -0.0844
    2MOL   H395 1137   4.890   7.601   6.637  1.4610 -1.2250 -0.6266
    2MOL   H396 1138   4.993   7.582   6.402 -0.5499  1.2438 -0.1964
    2MOL   H397 1139   4.839   7.511   6.342  0.3092  0.3565  0.4691
    2MOL   H398 1140   4.867   7.330   6.516 -0.6064  2.2345  1.7680
    2MOL   H399 1141   5.007   7.397   6.567 -1.4342 -0.8311  1.6308
    2MOL   H400 1142   5.014   7.338   6.275 -4.5785 -1.8528  0.8108
    2MOL   H401 1143   5.029   7.206   6.405  1.4212 -0.5904  0.7188
    2MOL   H402 1144   5.216   7.312   6.498 -1.4884 -2.1088  0.5816
    2MOL   H403 1145   5.214   7.436   6.372  1.9192 -0.9648 -1.0590
    2MOL   H404 1146   5.226   7.240   6.205 -0.5899 -0.9997 -0.5216
    2MOL   H405 1147   5.260   7.135   6.339  1.1979  0.0318  1.2009
    2MOL   H406 1148   5.460   7.246   6.403  3.5176 -0.6445 -0.6701
    2MOL   H407 1149   5.435   7.358   6.264 -2.0608 -0.1073  0.4606
    2MOL   H408 1150   5.428   7.106   6.145  0.9209 -0.2015 -0.6043
    2MOL   C409 1151   5.617   7.170   6.182 -0.1978 -0.6591 -0.5584
    2MOL   O410 1152   5.688   7.249   6.244 -0.5429 -0.1565  0.0570
    2MOL   C411 1153   5.665   7.086   6.068  0.5327  0.2247  0.0780
    2MOL   C412 1154   5.807   7.035   6.059  1.0671  0.0493 -0.3701
    2MOL   C413 1155   5.840   6.918   6.159 -0.4220 -0.4549  0.0698
    2MOL   C414 1156   5.967   6.842   6.155  0.4289  0.3494  0.3170
    2MOL   C415 1157   5.977   6.739   6.276 -0.4487 -0.1932  0.0832
    2MOL   C416 1158   6.103   6.662   6.277  0.6712  0.1929 -0.1363
    2MOL   C417 1159   6.108   6.535   6.367  0.3244 -0.6467  0.3410
    2MOL   C418 1160   6.240   6.459   6.350 -0.7427 -0.4528  0.0410
    2MOL   C419 1161   6.369   6.527   6.403 -0.0864 -0.4420 -0.4524
    2MOL   C420 1162   6.490   6.434   6.393 -0.2425 -0.0819 -0.3458
    2MOL   C421 1163   6.627   6.504   6.410  0.2268 -0.5514 -0.6452
    2MOL   N422 1164   6.632   6.622   6.325 -0.3207  0.0271 -0.4307
    2MOL   H423 1165   5.647   7.149   5.981  0.3851 -1.4533 -1.1353
    2MOL   H424 1166   5.597   7.004   6.044 -0.5472  1.9338 -2.9035
    2MOL   H425 1167   5.819   7.003   5.955  0.9106 -1.5881  0.1106
    2MOL   H426 1168   5.879   7.117   6.065  1.6237 -0.5556  1.2851
    2MOL   H427 1169   5.761   6.844   6.150 -1.4848  0.8598 -1.9833
    2MOL   H428 1170   5.832   6.960   6.259 -3.0008 -0.5457 -0.0740
    2MOL   H429 1171   5.964   6.791   6.059  1.3127 -1.5906  1.2891
    2MOL   H430 1172   6.057   6.904   6.152  0.7274 -0.1519 -1.4583
    2MOL   H431 1173   5.885   6.680   6.278 -1.6628  1.7021  1.7088
    2MOL   H432 1174   5.976   6.791   6.371 -0.6718 -0.1261  0.0437
    2MOL   H433 1175   6.191   6.719   6.306 -1.0193  2.7342  0.1534
    2MOL   H434 1176   6.125   6.628   6.175  1.7266  1.4020 -0.3118
    2MOL   H435 1177   6.024   6.470   6.343 -0.3860  0.6249 -0.7014
    2MOL   H436 1178   6.093   6.558   6.472 -1.5317  1.5276 -0.3580
    2MOL   H437 1179   6.255   6.420   6.250 -1.0729 -0.4838  0.0037
    2MOL   H438 1180   6.211   6.366   6.398 -0.8337 -0.7994 -0.6778
    2MOL   H439 1181   6.355   6.560   6.506  0.7797 -0.6495 -0.2644
    2MOL   H440 1182   6.384   6.623   6.354 -1.2080  1.7679  3.3327
    2MOL   H441 1183   6.497   6.392   6.292  0.0844 -0.3770 -0.2009
    2MOL   H442 1184   6.489   6.347   6.459 -0.0839  1.2001  1.3627
    2MOL   H443 1185   6.705   6.434   6.381 -0.3406 -1.3175 -0.3284
    2MOL   H444 1186   6.650   6.529   6.513  0.3847  1.5081 -1.1441
    2MOL   H445 1187   6.633   6.611   6.224 -0.0576 -1.3632 -0.2891
    2MOL   C446 1188   6.646   6.747   6.367 -0.9069  0.3391 -0.1348
    2MOL   O447 1189   6.640   6.778   6.489  0.1219  0.4234  0.4473
    2MOL   C448 1190   6.670   6.858   6.266 -0.2564 -0.4960 -0.2203
    2MOL   C449 1191   6.696   6.991   6.340 -0.7966 -0.1594 -0.8891
    2MOL   C450 1192   6.697   7.113   6.250 -0.9688  0.6353  0.5061
    2MOL   C451 1193   6.698   7.248   6.330 -0.0604 -0.0273  0.2178
    2MOL   C452 1194   6.686   7.375   6.238  0.3055 -0.3712 -0.5429
    2MOL   C453 1195   6.642   7.500   6.326 -0.1129 -0.7493 -0.1419
    2MOL   C454 1196   6.630   7.631   6.248  0.0368  0.3336  0.6666
    2MOL   C455 1197   6.585   0.049   6.330  0.2562 -0.3545 -0.2591
    2MOL   C456 1198   6.589   0.181   6.249  0.7543  0.2703  0.2696
    2MOL   C457 1199   6.697   0.283   6.304 -0.3838 -0.2621  0.0833
    2MOL   C458 1200   6.836   0.268   6.249 -0.1411  0.1272  0.2639
    2MOL   N459 1201   6.897   0.144   6.297  0.3681 -0.1515 -0.5070
    2MOL   H460 1202   6.584   6.861   6.200 -0.3715 -0.5279 -0.0707
    2MOL   H461 1203   6.760   6.841   6.206  0.8213 -1.0997  1.5247
    2MOL   H462 1204   6.610   7.012   6.405 -1.2293 -0.7686 -1.2635
    2MOL   H463 1205   6.786   6.988   6.402 -1.2667  0.3608 -0.1661
    2MOL   H464 1206   6.614   7.117   6.179 -0.7434 -1.1774  0.1105
    2MOL   H465 1207   6.789   7.097   6.193 -1.5059  0.3233 -0.2846
    2MOL   H466 1208   6.617   7.244   6.403 -0.5866 -1.1322 -0.4081
    2MOL   H467 1209   6.788   7.248   6.391 -0.9548  0.1773  1.5553
    2MOL   H468 1210   6.619   7.345   6.157  0.0506 -2.7555  0.5176
    2MOL   H469 1211   6.781   7.404   6.194  0.8912 -1.9275 -0.3402
    2MOL   H470 1212   6.719   7.523   6.399 -1.5664  1.8596  0.6419
    2MOL   H471 1213   6.549   7.474   6.377 -0.4615 -1.0788 -0.9399
    2MOL   H472 1214   6.568   7.617   6.159  0.1408 -0.7865  0.7674
    2MOL   H473 1215   6.725   7.655   6.200  0.1611 -0.0387  0.7263
    2MOL   H474 1216   6.645   0.063   6.420 -1.9070  0.7383  1.0739
    2MOL   H475 1217   6.483   0.027   6.361 -0.1477  0.9640 -0.6182
    2MOL   H476 1218   6.496   0.234   6.270  0.6079  1.1212 -2.3403
    2MOL   H477 1219   6.596   0.170   6.141 -0.3613  2.2385 -0.0243
    2MOL   H478 1220   6.698   0.301   6.412  3.3605  1.1854 -0.1134
    2MOL   H479 1221   6.665   0.376   6.259  0.1722 -0.9859 -1.8596
    2MOL   H480 1222   6.894   0.355   6.279 -2.7395  1.6302  1.0981
    2MOL   H481 1223   6.836   0.250   6.141 -3.0734 -0.8861  0.3974
    2MOL   H482 1224   6.898   0.063   6.236 -0.3473 -0.7320  0.2206
    2MOL   C483 1225   6.967   0.133   6.410 -0.1586 -0.7840 -0.3539
    2MOL   O484 1226   6.994   0.230   6.483  0.3726  0.3119  0.1749
    2MOL   C485 1227   7.023   7.686   6.431  0.5440 -0.1686 -0.1066
    2MOL   C486 1228   7.162   7.688   6.507 -0.2135 -0.3461  0.1991
    2MOL   C487 1229   7.207   7.554   6.545 -0.1118 -0.2949  0.0044
    2MOL   C488 1230   7.361   7.550   6.555 -0.3108  0.4328 -0.7195
    2MOL   C489 1231   7.409   7.415   6.603  0.2036  0.3786  0.3404
    2MOL   C490 1232   7.545   7.421   6.678 -0.1124 -0.0122 -0.2851
    2MOL   C491 1233   7.583   7.286   6.730  0.0412 -0.5784 -0.3012
    2MOL   C492 1234   0.019   7.291   6.815 -0.5094  0.1647  0.3436
    2MOL   C493 1235   0.079   7.153   6.851  0.0509 -0.2553 -0.5520
    2MOL   C494 1236   0.153   7.088   6.734  0.3792  0.4077  0.4282
    2MOL   C495 1237   0.230   6.958   6.769 -0.5280  0.1579 -0.4617
    2MOL   N496 1238   0.138   6.849   6.783  0.3866 -0.1241 -0.2579
    2MOL   H497 1239   7.028   7.638   6.333  2.9366  2.3293 -1.2440
    2MOL   H498 1240   6.953   7.621   6.484  0.4887  0.8318  1.0550
    2MOL   H499 1241   7.236   0.044   6.445 -0.0294 -0.1520  0.5767
    2MOL   H500 1242   7.147   0.056   6.595 -1.9049 -0.9361  0.3547
    2MOL   H501 1243   7.182   7.486   6.463  1.8734 -1.3064  0.1936
    2MOL   H502 1244   7.159   7.506   6.630  0.0170 -1.4102 -0.5417
    2MOL   H503 1245   7.420   7.585   6.470  2.6033 -2.6921 -0.0798
    2MOL   H504 1246   7.395   7.620   6.630  1.0882 -1.6458  0.6293
    2MOL   H505 1247   7.419   7.352   6.515 -1.5338 -0.2902  0.5925
    2MOL   H506 1248   7.334   7.362   6.663  2.5913 -1.5237  1.7203
    2MOL   H507 1249   7.518   7.482   6.764  2.3630  0.1168  0.4327
    2MOL   H508 1250   7.626   7.460   6.617  1.8016 -0.5507  1.8180
    2MOL   H509 1251   7.589   7.219   6.644  2.0921  0.2680 -0.8402
    2MOL   H510 1252   7.497   7.245   6.784 -1.1635  2.0509 -0.1215
    2MOL   H511 1253   0.008   7.338   6.913  1.9977  0.5074  0.4955
    2MOL   H512 1254   0.096   7.346   6.760 -0.4613  0.4364  0.6829
    2MOL   H513 1255   0.006   7.085   6.896 -2.2666  1.4711 -1.5560
    2MOL   H514 1256   0.145   7.178   6.934  0.8170  3.2339 -2.1337
    2MOL   H515 1257   0.214   7.163   6.684 -0.0514  0.2569 -0.3188
    2MOL   H516 1258   0.080   7.056   6.660  1.6745 -1.0953 -0.2532
    2MOL   H517 1259   0.282   6.963   6.865  0.0198 -1.8325 -0.6289
    2MOL   H518 1260   0.308   6.933   6.699  1.6218 -0.4985  2.0890
    2MOL   H519 1261   0.040   6.872   6.769  0.4869  0.2028 -0.4388
    2MOL   C520 1262   0.170   6.723   6.792  0.4577  1.1618  0.7515
    2MOL   O521 1263   0.288   6.692   6.782  0.6436  0.2963 -0.1524
    2MOL   C522 1264   0.053   6.621   6.817 -0.0963  0.3973  0.7718
    2MOL   C523 1265   0.083   6.533   6.946  0.4066 -0.1649  1.1395
    2MOL   C524 1266   7.660   6.444   6.962 -0.3273  0.0118  0.3670
    2MOL   C525 1267   7.652   6.368   7.092  0.5049 -0.0122 -1.0135
    2MOL   C526 1268   0.037   6.235   7.103 -0.4450 -0.1377  0.3659
    2MOL   C527 1269   0.037   6.157   7.237 -0.9331 -0.0057  0.0292
    2MOL   C528 1270   0.152   6.055   7.244 -0.3020  0.1025  0.3186
    2MOL   C529 1271   0.161   5.989   7.380  1.0949 -0.3689 -0.2576
    2MOL   C530 1272   0.270   5.881   7.374 -0.6633  0.1574  0.1504
    2MOL   C531 1273   0.236   5.748   7.298  0.5327 -0.2025 -0.3562
    2MOL   C532 1274   0.342   5.641   7.349  0.2309  1.1354  0.2312
    2MOL   N533 1275   0.325   5.519   7.263  0.3972 -0.2700 -0.4195
    2MOL   H534 1276   0.042   6.554   6.732  0.8580  2.2453 -0.8590
    2MOL   H535 1277   7.649   6.669   6.825  0.3032  0.9394  2.7660
    2MOL   H536 1278   0.180   6.485   6.939  2.1600  2.8173  3.6588
    2MOL   H537 1279   0.096   6.596   7.034  0.9863 -1.2585  1.8509
    2MOL   H538 1280   7.633   6.379   6.879  0.5612 -0.0261  0.1073
    2MOL   H539 1281   7.573   6.509   6.957  0.0546  0.5057  0.1574
    2MOL   H540 1282   7.689   6.429   7.175 -0.9314 -3.4161  2.2592
    2MOL   H541 1283   7.547   6.344   7.109  0.4655 -0.6515 -2.1490
    2MOL   H542 1284   0.140   6.258   7.077  0.3621  0.2865  3.6575
    2MOL   H543 1285   0.015   6.173   7.016  0.3137  1.8755 -1.3121
    2MOL   H544 1286   7.634   6.114   7.263  0.3165 -0.8901  3.3512
    2MOL   H545 1287   0.063   6.228   7.315  1.0721  0.3593 -0.9450
    2MOL   H546 1288   0.247   6.107   7.236  0.1861 -1.1303 -2.7705
    2MOL   H547 1289   0.144   5.980   7.165 -0.6003 -1.6839  2.0083
    2MOL   H548 1290   0.063   5.946   7.400  0.5477 -0.3491 -2.7556
    2MOL   H549 1291   0.191   6.059   7.457  1.5134 -1.1220  0.2679
    2MOL   H550 1292   0.285   5.862   7.480  0.7369 -0.7189 -0.1905
    2MOL   H551 1293   0.365   5.927   7.346  0.0839 -1.1804  0.4600
    2MOL   H552 1294   0.232   5.762   7.190 -3.1209  0.0533 -0.2448
    2MOL   H553 1295   0.134   5.724   7.327  0.3451  0.8235 -0.1699
    2MOL   H554 1296   0.341   5.619   7.455  2.4025 -0.7963 -0.1214
    2MOL   H555 1297   0.442   5.681   7.337 -0.3477  1.6999 -3.5426
    2MOL   H556 1298   0.403   5.486   7.207 -0.7752 -1.3657 -1.4601
    2MOL   C557 1299   0.215   5.440   7.262 -0.4502  0.2911 -0.1814
    2MOL   O558 1300   0.126   5.463   7.346  0.2138  0.5105 -0.0799
    2MOL   C559 1301   0.210   5.324   7.159  0.6013 -0.8553  0.6261
    2MOL   C560 1302   0.093   5.230   7.162 -0.1146  0.7830  0.8259
    2MOL   C561 1303   7.659   5.284   7.081 -0.0872  0.0662 -0.6195
    2MOL   C562 1304   7.523   5.208   7.109 -0.2375  0.1604 -0.1402
    2MOL   C563 1305   7.419   5.245   6.996 -0.3273 -0.9589  0.2052
    2MOL   C564 1306   7.373   5.395   7.006  0.1352 -0.2057  0.4815
    2MOL   C565 1307   7.279   5.427   6.887 -0.0071  0.3650 -0.4729
    2MOL   C566 1308   7.256   5.575   6.869  0.3502  0.2358 -0.1528
    2MOL   C567 1309   7.209   5.611   6.722 -0.4174 -0.4321 -0.2339
    2MOL   C568 1310   7.184   5.760   6.704 -0.0488 -0.6283 -0.3802
    2MOL   C569 1311   7.161   5.791   6.558 -0.6565  0.0424 -0.1767
    2MOL   N570 1312   7.041   5.717   6.498 -0.0602 -0.0686  0.5068
    2MOL   H571 1313   0.301   5.266   7.179  1.5891 -0.0108 -1.3641
    2MOL   H572 1314   0.226   5.366   7.060  1.8338  1.8395  1.9208
    2MOL   H573 1315   0.122   5.136   7.115  1.0694  0.8376  1.4372
    2MOL   H574 1316   0.060   5.207   7.263  1.4969  0.5407  1.3030
    2MOL   H575 1317   7.685   5.274   6.976  0.1473 -0.1764 -0.5373
    2MOL   H576 1318   7.648   5.392   7.095  3.2053  0.3238  0.3844
    2MOL   H577 1319   7.542   5.102   7.088 -0.5870  0.2685 -1.0293
    2MOL   H578 1320   7.483   5.214   7.210  1.2353 -0.2976  0.4802
    2MOL   H579 1321   7.326   5.190   7.008 -0.6680 -0.3437  0.3599
    2MOL   H580 1322   7.462   5.236   6.896  0.1788 -0.0123  0.3348
    2MOL   H581 1323   7.457   5.465   7.006  0.4563 -0.5746  2.2038
    2MOL   H582 1324   7.326   5.408   7.103  0.2226  0.8705  0.3894
    2MOL   H583 1325   7.182   5.377   6.890  0.9027 -1.4670 -0.5673
    2MOL   H584 1326   7.318   5.390   6.792 -3.1087 -2.1827 -0.8428
    2MOL   H585 1327   7.354   5.622   6.878  1.4817 -1.6240 -2.3231
    2MOL   H586 1328   7.188   5.616   6.945  0.3351  0.9100 -0.5203
    2MOL   H587 1329   7.131   5.539   6.695  1.3721 -2.6604  0.4352
    2MOL   H588 1330   7.292   5.572   6.664  0.8593 -1.2359  2.0884
    2MOL   H589 1331   7.261   5.826   6.742 -1.8306  0.5558  1.2511
    2MOL   H590 1332   7.093   5.780   6.762  0.9700  0.9415  0.7033
    2MOL   H591 1333   7.257   5.776   6.508  0.4885 -3.5298  2.8928
    2MOL   H592 1334   7.130   5.895   6.546 -1.1078 -0.0908 -0.1853
    2MOL   H593 1335   7.059   5.637   6.439 -3.2444  1.0988 -2.2212
    2MOL   C594 1336   6.918   5.753   6.524  0.7361 -0.1051  0.6188
    2MOL   O595 1337   6.885   5.856   6.578  0.1618  0.5177 -0.1961
    2MOL   C596 1338   6.810   5.663   6.461  0.2064 -0.5733 -0.2197
    2MOL   C597 1339   6.720   5.612   6.573 -0.3717 -0.0299  0.2505
    2MOL   C598 1340   6.612   5.522   6.514  0.1391 -0.2246  0.1032
    2MOL   C599 1341   6.505   5.472   6.613  0.6259 -0.0526  1.0999
    2MOL   C600 1342   6.408   5.365   6.557  0.5689  0.4109 -0.6769
    2MOL   C601 1343   6.319   5.284   6.653  0.8050  0.2862  0.0545
    2MOL   C602 1344   6.219   5.183   6.589 -1.1100 -0.1441  0.2927
    2MOL   C603 1345   6.111   5.132   6.684 -0.4164  0.3439  0.8708
    2MOL   C604 1346   6.162   5.028   6.790  0.7645  0.5058 -0.1402
    2MOL   C605 1347   6.058   4.952   6.873 -0.7065 -0.2272  0.6200
    2MOL   C606 1348   5.958   5.042   6.949  0.4564 -0.2659 -0.3138
    2MOL   N607 1349   5.860   4.964   7.023 -0.8925  0.0912  0.2930
    2MOL   H608 1350   6.855   5.578   6.409  2.3312 -0.4180  1.3074
    2MOL   H609 1351   6.754   5.729   6.396 -1.1652 -0.8299  0.6617
    2MOL   H610 1352   6.776   5.557   6.649  0.5418  0.9090  0.2753
    2MOL   H611 1353   6.669   5.694   6.623 -3.2328 -1.9481  0.6126
    2MOL   H612 1354   6.658   5.431   6.474  1.7823  1.0107 -0.8449
    2MOL   H613 1355   6.562   5.568   6.429 -1.1388  0.7245  1.3370
    2MOL   H614 1356   6.560   5.437   6.700  1.7770  1.4825  1.0241
    2MOL   H615 1357   6.449   5.558   6.650  0.8091  0.1242  0.9677
    2MOL   H616 1358   6.463   5.296   6.493  2.7440  1.0974  0.4135
    2MOL   H617 1359   6.343   5.427   6.495 -1.1219  1.0096  1.6077
    2MOL   H618 1360   6.250   5.353   6.701  1.4621  0.9156  0.0934
    2MOL   H619 1361   6.375   5.240   6.736  2.5784  0.5259 -0.9872
    2MOL   H620 1362   6.279   5.104   6.543  0.3481  0.4188  1.1858
    2MOL   H621 1363   6.171   5.234   6.506 -1.1489  0.1715  0.5087
    2MOL   H622 1364   6.037   5.093   6.614  0.1180  0.9851 -0.0704
    2MOL   H623 1365   6.070   5.220   6.735  0.3056  1.3951 -0.3103
    2MOL   H624 1366   6.228   5.083   6.857  2.2795  1.2884 -2.2079
    2MOL   H625 1367   6.238   4.960   6.751 -1.1084 -1.3844 -0.5081
    2MOL   H626 1368   6.116   4.896   6.947  0.1191 -0.8149 -0.4544
    2MOL   H627 1369   5.996   4.891   6.807 -0.1272 -2.4208  2.0228
    2MOL   H628 1370   5.909   5.113   6.882  0.3668 -2.1212 -2.2774
    2MOL   H629 1371   6.017   5.094   7.024 -0.3566 -1.5214  1.2215
    2MOL   H630 1372   5.823   4.882   6.977  0.4914  0.0347 -0.7519
    2MOL   C631 1373   5.818   4.992   7.148 -0.4500 -0.1248 -0.4000
    2MOL   O632 1374   5.856   5.092   7.214 -0.5510  0.2407 -0.0382
    2MOL   C633 1375   5.719   4.895   7.207  0.5064  0.8614 -0.3451
    2MOL   C634 1376   5.615   4.944   7.313  0.0947  0.2943  0.4082
    2MOL   C635 1377   5.504   5.043   7.258  0.0404  0.2523 -0.1250
    2MOL   C636 1378   5.397   4.963   7.178 -0.9420 -0.3594 -0.0640
    2MOL   C637 1379   5.281   5.049   7.155  0.5568 -0.9608  0.6772
    2MOL   C638 1380   5.160   4.962   7.110  0.3700  0.3033 -0.1440
    2MOL   C639 1381   5.042   5.030   7.052 -1.0138 -0.4479  0.0580
    2MOL   C640 1382   4.920   4.937   7.034  0.0677  0.5904  0.6665
    2MOL   C641 1383   4.790   5.019   7.007 -0.2047  0.0369  0.2274
    2MOL   C642 1384   4.661   4.935   7.037 -0.2173  0.1192 -0.0306
    2MOL   C643 1385   4.624   4.831   6.933 -0.3590  0.1555 -0.4139
    2MOL   N644 1386   4.575   4.888   6.808 -0.6279 -0.2196 -0.6615
    2MOL   H645 1387   5.788   4.825   7.253 -1.0546  0.8047  2.0176
    2MOL   H646 1388   5.672   4.831   7.133 -0.2667  1.8118 -0.6866
    2MOL   H647 1389   5.583   4.867   7.384  0.4828 -2.0535 -1.8796
    2MOL   H648 1390   5.675   4.997   7.387 -1.5514  1.6276  0.8067
    2MOL   H649 1391   5.552   5.134   7.221  1.3370 -0.3023  0.1622
    2MOL   H650 1392   5.440   5.065   7.343 -1.8099 -1.1996 -1.0980
    2MOL   H651 1393   5.443   4.929   7.085  2.0326  4.4468 -0.5174
    2MOL   H652 1394   5.368   4.877   7.237  0.7734 -0.6273  0.4255
    2MOL   H653 1395   5.296   5.124   7.077 -0.4474 -0.7542  0.6729
    2MOL   H654 1396   5.245   5.108   7.240 -1.0043 -2.3489  1.0126
    2MOL   H655 1397   5.123   4.895   7.188 -1.7624 -1.6667 -2.7010
    2MOL   H656 1398   5.203   4.894   7.036  0.3531 -0.0017  0.1281
    2MOL   H657 1399   5.060   5.072   6.953 -1.5197  1.3607  0.7111
    2MOL   H658 1400   5.021   5.120   7.111  0.6608 -0.8343  1.2594
    2MOL   H659 1401   4.903   4.893   7.132 -0.0546 -1.1872 -0.1317
    2MOL   H660 1402   4.928   4.855   6.963  0.3557 -0.9836  2.4786
    2MOL   H661 1403   4.773   5.060   6.908 -0.3450 -0.2014  0.1531
    2MOL   H662 1404   4.795   5.107   7.071 -0.0041  0.0160  0.2388
    2MOL   H663 1405   4.575   4.999   7.052 -1.4903 -1.5679  0.0786
    2MOL   H664 1406   4.667   4.896   7.139 -2.9550  0.3175  0.2302
    2MOL   H665 1407   4.545   4.769   6.973  0.5928  0.3299  1.7993
    2MOL   H666 1408   4.702   4.755   6.920 -1.3547 -1.2655  1.7309
    2MOL   H667 1409   4.638   4.905   6.731 -0.3875 -1.0410 -0.6442
    2MOL   C668 1410   4.448   4.907   6.780 -0.0652 -0.0839 -0.1137
    2MOL   O669 1411   4.355   4.886   6.855 -0.2896  0.0040 -0.1129
    2MOL   C670 1412   4.426   4.959   6.638 -0.1854  0.2054 -0.3042
    2MOL   C671 1413   4.291   4.925   6.566 -0.3295 -0.3630 -0.4838
    2MOL   C672 1414   4.264   4.777   6.525 -0.2526  0.0131  0.3929
    2MOL   C673 1415   4.111   4.754   6.493 -0.2469 -0.0339 -0.1510
    2MOL   C674 1416   4.078   4.605   6.455  0.4033 -1.0033 -1.6778
    2MOL   C675 1417   3.929   4.576   6.426  0.2301 -0.1174  0.7043
    2MOL   C676 1418   3.893   4.438   6.364 -0.3932 -0.3462 -0.4941
    2MOL   C677 1419   3.751   4.421   6.375 -0.0601 -0.6458  0.0345
    2MOL   C678 1420   3.699   4.300   6.296 -0.2547 -0.4927  0.0704
    2MOL   C679 1421   3.703   4.300   6.143 -0.0323 -0.1756  0.3897
    2MOL   C680 1422   3.629   4.179   6.080  0.1800  0.0350 -0.3865
    2MOL   N681 1423   3.648   4.175   5.936 -0.3422 -0.1401  0.9184
    2MOL   H682 1424   4.510   4.951   6.569  0.2497  1.7990  0.0074
    2MOL   H683 1425   4.423   5.068   6.645 -2.2812  0.0669  1.7089
    2MOL   H684 1426   4.213   4.957   6.636  0.7921 -0.7013  0.9485
    2MOL   H685 1427   4.280   4.981   6.473  2.8335 -0.0143 -0.7041
    2MOL   H686 1428   4.293   4.700   6.596 -1.0627 -1.8114 -1.2282
    2MOL   H687 1429   4.322   4.752   6.435 -0.7844  1.6202 -0.4199
    2MOL   H688 1430   4.044   4.787   6.573  1.1480  1.5062  0.4328
    2MOL   H689 1431   4.095   4.820   6.408 -2.5997  0.2412  0.4703
    2MOL   H690 1432   4.102   4.539   6.539 -0.7832  0.2031 -0.3730
    2MOL   H691 1433   4.140   4.573   6.371 -1.6532 -1.3428 -3.0981
    2MOL   H692 1434   3.897   4.646   6.349  1.5234 -0.0579  0.1998
    2MOL   H693 1435   3.860   4.601   6.505 -1.0474 -0.8505 -0.1664
    2MOL   H694 1436   3.940   4.355   6.416  0.2175  0.1875 -0.1948
    2MOL   H695 1437   3.927   4.435   6.261 -2.2315 -2.0044 -1.0789
    2MOL   H696 1438   3.694   4.507   6.337 -2.1552 -1.3366  1.5150
    2MOL   H697 1439   3.721   4.420   6.479 -0.3709 -2.1897 -0.0580
    2MOL   H698 1440   3.598   4.280   6.331  1.5290 -0.6583  5.6179
    2MOL   H699 1441   3.754   4.211   6.325 -0.6146 -0.7319  0.0213
    2MOL   H700 1442   3.807   4.293   6.112 -0.3066  0.1446 -0.6376
    2MOL   H701 1443   3.665   4.389   6.093  1.6618 -0.4720 -1.4870
    2MOL   H702 1444   3.524   4.181   6.111  0.1642 -1.8531 -0.2166
    2MOL   H703 1445   3.684   4.096   6.125  1.1109  1.2246  0.7099
    2MOL   H704 1446   3.702   4.246   5.889  0.7896 -1.1537  0.6644
    2MOL   C705 1447   3.595   4.081   5.861  0.2740  1.3091  0.8883
    2MOL   O706 1448   3.527   3.993   5.911  0.0655 -0.4998  0.2149
    2MOL   C707 1449   3.624   4.097   5.715  0.3956  0.5809  0.1502
    2MOL   C708 1450   3.540   4.001   5.627  0.3615  0.8623 -0.2573
    2MOL   C709 1451   3.550   4.027   5.474 -0.2597  0.2912 -0.1902
    2MOL   C710 1452   3.438   3.955   5.390 -0.2874  0.3838  0.0860
    2MOL   C711 1453   3.442   3.969   5.238 -0.1143  0.3448  0.1204
    2MOL   C712 1454   3.539   3.869   5.175  0.4209  0.0715  0.7633
    2MOL   C713 1455   3.519   3.869   5.020 -0.1484 -0.0443 -0.1992
    2MOL   C714 1456   3.612   3.758   4.947 -0.0417 -0.1613 -0.3274
    2MOL   C715 1457   3.541   3.624   4.951 -0.0673  0.0581 -0.3646
    2MOL   C716 1458   3.602   3.510   4.865  0.0853 -0.5402 -0.2995
    2MOL   C717 1459   3.549   3.372   4.898  0.2251 -0.1845  0.0645
    2MOL   N718 1460   3.406   3.371   4.891  0.0134 -0.0147 -0.5403
    2MOL   H719 1461   3.728   4.074   5.693  0.1920 -0.2138  0.0298
    2MOL   H720 1462   3.602   4.201   5.690 -1.1548 -0.2216 -1.9653
    2MOL   H721 1463   3.560   3.895   5.638 -0.8328  0.8946  2.5955
    2MOL   H722 1464   3.436   4.009   5.657  0.6382  3.6004  0.1020
    2MOL   H723 1465   3.650   3.996   5.444 -0.8633 -2.8405  0.8400
    2MOL   H724 1466   3.538   4.133   5.450 -1.0349 -0.1977 -2.0765
    2MOL   H725 1467   3.430   3.851   5.420  0.0410  0.1759 -0.5365
    2MOL   H726 1468   3.338   3.990   5.414 -0.9989 -0.4465 -1.5994
    2MOL   H727 1469   3.458   4.072   5.208 -0.9903  1.0509  1.9953
    2MOL   H728 1470   3.340   3.945   5.208  0.2536  0.1716 -1.0032
    2MOL   H729 1471   3.520   3.768   5.212 -1.8811 -0.2243 -1.1574
    2MOL   H730 1472   3.639   3.886   5.217  0.3534  1.3834  0.4218
    2MOL   H731 1473   3.553   3.966   4.983 -1.0823  1.1606  1.9971
    2MOL   H732 1474   3.418   3.849   4.983  0.3083 -1.2037 -0.8387
    2MOL   H733 1475   3.710   3.742   4.992 -0.4694 -0.4457  0.5145
    2MOL   H734 1476   3.618   3.786   4.842 -2.8040 -0.2608 -0.5641
    2MOL   H735 1477   3.436   3.621   4.923 -0.3130  0.5401  0.4818
    2MOL   H736 1478   3.529   3.588   5.054  1.7969 -0.9839 -0.4968
    2MOL   H737 1479   3.710   3.518   4.880  0.4108 -3.3840 -0.8497
    2MOL   H738 1480   3.586   3.521   4.758 -0.8447  2.2325  0.0766
    2MOL   H739 1481   3.585   3.353   4.999  1.0786  0.0442 -0.1977
    2MOL   H740 1482   3.594   3.309   4.821 -1.0587 -1.0157 -0.0227
    2MOL   H741 1483   3.365   3.419   4.970  1.6973 -2.7249  2.0956
    2MOL   H742 1484   3.368   3.279   4.909 -4.9771  2.0375  0.0526
    3MOL     C1 1485   4.203   2.724   3.385  0.3304  0.1397  0.0201
    3MOL     O2 1486   4.211   2.845   3.369  0.8725  0.0094  0.8206
    3MOL     C3 1487   4.070   2.642   3.349  0.0324 -0.3098 -0.1538
    3MOL     C4 1488   4.033   2.654   3.200  0.1517  0.0445 -0.5145
    3MOL     C5 1489   4.117   2.572   3.100  0.6659 -0.3098  0.4671
    3MOL     C6 1490   4.076   2.581   2.958 -0.5033  0.5769 -0.8407
    3MOL     C7 1491   4.180   2.518   2.863  0.6190  0.1021  0.0035
    3MOL     C8 1492   4.162   2.539   2.712  0.4017 -0.0308  0.0128
    3MOL     C9 1493   4.283   2.569   2.629  0.1134  0.3930 -0.0050
    3MOL    C10 1494   4.351   2.702   2.658 -0.1312  0.0053  0.0459
    3MOL    C11 1495   4.494   2.701   2.597  0.0948 -0.1182 -0.3694
    3MOL    C12 1496   4.566   2.835   2.615  0.2550  0.5784  0.4082
    3MOL    C13 1497   4.706   2.833   2.548  0.5701 -0.1347 -0.2343
    3MOL    N14 1498   4.767   2.964   2.559 -0.0057 -0.0039 -0.6813
    3MOL    H15 1499   3.985   2.691   3.396  0.2924  0.2824 -0.2990
    3MOL    H16 1500   4.080   2.537   3.376  0.9336 -0.2313 -0.1560
    3MOL    H17 1501   3.928   2.623   3.194  0.6806 -1.5004 -2.7160
    3MOL    H18 1502   4.021   2.757   3.166 -2.0887 -0.1663 -0.4343
    3MOL    H19 1503   4.108   2.466   3.122  0.0811 -0.5519 -0.9270
    3MOL    H20 1504   4.221   2.605   3.104 -0.0135  1.9269  0.3638
    3MOL    H21 1505   3.982   2.527   2.950 -0.7496  1.0319 -1.0591
    3MOL    H22 1506   4.053   2.683   2.927 -1.5457  0.4160 -0.6012
    3MOL    H23 1507   4.178   2.411   2.883 -2.4899  0.1518  0.1936
    3MOL    H24 1508   4.279   2.555   2.889  0.9737 -2.1815  1.9641
    3MOL    H25 1509   4.092   2.622   2.709  1.0690  0.5023 -1.6670
    3MOL    H26 1510   4.103   2.460   2.666 -1.8508  1.7127 -0.1605
    3MOL    H27 1511   4.242   2.556   2.528  2.1913 -2.3209 -0.5673
    3MOL    H28 1512   4.363   2.495   2.640  1.5636  1.9274 -0.0729
    3MOL    H29 1513   4.352   2.722   2.765 -2.3381 -2.9449  0.6730
    3MOL    H30 1514   4.306   2.786   2.605 -0.6153 -1.3968 -1.7929
    3MOL    H31 1515   4.494   2.668   2.493 -3.6517 -0.9394 -0.1889
    3MOL    H32 1516   4.546   2.624   2.655 -1.2129 -0.0197  0.9689
    3MOL    H33 1517   4.584   2.859   2.720 -1.3524  0.0489  0.8188
    3MOL    H34 1518   4.508   2.915   2.571  1.2256  2.6868  2.8230
    3MOL    H35 1519   4.709   2.804   2.443 -0.4973  1.9082 -0.8473
    3MOL    H36 1520   4.772   2.764   2.601 -0.0956 -0.5121  0.0965
    3MOL    H37 1521   4.722   3.047   2.522 -2.5695 -0.5588  1.1065
    3MOL    H38 1522   4.288   2.664   3.416 -0.4082 -0.6408  0.5813
    3MOL    C39 1523   4.886   3.005   2.612 -0.1359  0.0548 -0.0966
    3MOL    O40 1524   4.957   2.933   2.676  0.2463 -0.0541  0.1243
    3MOL    C41 1525   4.918   3.156   2.605 -0.0633  0.3717  0.4772
    3MOL    C42 1526   5.070   3.191   2.604 -0.3509 -0.1003  0.9376
    3MOL    C43 1527   5.165   3.128   2.492 -0.2322  1.2630  0.0820
    3MOL    C44 1528   5.303   3.186   2.496 -0.0282 -0.3278  0.6842
    3MOL    C45 1529   5.371   3.144   2.369 -0.0791  0.1282 -0.0087
    3MOL    C46 1530   5.503   3.213   2.331 -0.1453  0.0198  0.0972
    3MOL    C47 1531   5.479   3.354   2.260 -0.2636 -0.7021  0.3289
    3MOL    C48 1532   5.620   3.420   2.257  0.9207 -0.6207  0.2309
    3MOL    C49 1533   5.637   3.551   2.173  0.0454  1.0582 -0.6133
    3MOL    C50 1534   5.790   3.576   2.186 -0.0383  0.0090 -0.0982
    3MOL    C51 1535   5.831   3.709   2.114 -0.0279  0.4457 -0.0674
    3MOL    N52 1536   5.979   3.714   2.118 -0.0537 -0.7471 -0.3692
    3MOL    H53 1537   4.872   3.203   2.692 -0.1438  1.3523 -0.0923
    3MOL    H54 1538   4.866   3.191   2.516 -0.2346  1.7583  1.1126
    3MOL    H55 1539   5.089   3.298   2.617  0.5509 -0.1706  0.2468
    3MOL    H56 1540   5.107   3.163   2.703 -0.2701 -0.7094  0.7376
    3MOL    H57 1541   5.114   3.147   2.398  1.9402 -2.7502 -2.0549
    3MOL    H58 1542   5.175   3.020   2.505  2.8134  1.4446 -0.3284
    3MOL    H59 1543   5.297   3.293   2.514 -0.4208 -0.7670  3.3508
    3MOL    H60 1544   5.352   3.155   2.588 -1.3704 -0.3083  1.4181
    3MOL    H61 1545   5.304   3.159   2.283 -0.1642  1.0682  0.2131
    3MOL    H62 1546   5.392   3.038   2.382 -1.6449 -0.4889 -2.0853
    3MOL    H63 1547   5.560   3.143   2.270 -0.6006  0.6894 -1.1187
    3MOL    H64 1548   5.557   3.233   2.424  0.8121  0.9182 -0.6484
    3MOL    H65 1549   5.405   3.416   2.311  0.3490  0.3177 -0.0335
    3MOL    H66 1550   5.452   3.339   2.155  1.8837  1.4128 -0.5675
    3MOL    H67 1551   5.692   3.349   2.216 -1.1884 -1.1219 -2.7477
    3MOL    H68 1552   5.650   3.449   2.358 -0.7412  3.1366 -0.2895
    3MOL    H69 1553   5.584   3.635   2.219 -4.1447 -2.2853  0.9377
    3MOL    H70 1554   5.611   3.531   2.069  2.3265 -0.2634 -0.9470
    3MOL    H71 1555   5.847   3.491   2.150 -0.6312  0.1978 -1.5300
    3MOL    H72 1556   5.812   3.591   2.291 -0.0249 -1.7771  0.1539
    3MOL    H73 1557   5.781   3.801   2.145 -0.5543  0.4975 -1.0556
    3MOL    H74 1558   5.802   3.705   2.009  0.1929  0.9799 -0.1518
    3MOL    H75 1559   6.023   3.672   2.199 -1.1078 -0.4431  0.3711
    3MOL    C76 1560   6.055   3.804   2.050 -0.1039 -0.0783 -0.3460
    3MOL    O77 1561   6.014   3.885   1.970  0.2736  0.7245  0.5426
    3MOL    C78 1562   6.199   3.803   2.098 -0.5338 -0.5697 -0.0200
    3MOL    C79 1563   6.302   3.876   2.009 -0.4415  0.5415  0.1208
    3MOL    C80 1564   6.337   3.777   1.896 -1.4479 -0.2427 -0.4515
    3MOL    C81 1565   6.440   3.839   1.796  0.0017  1.4947  0.6168
    3MOL    C82 1566   6.549   3.739   1.751 -0.3336  0.7715  0.8170
    3MOL    C83 1567   6.656   3.810   1.672 -0.1340  1.0079  0.3503
    3MOL    C84 1568   6.740   3.731   1.579 -0.3218  0.0487 -0.3872
    3MOL    C85 1569   6.836   3.627   1.649 -0.2120 -0.1871  0.1131
    3MOL    C86 1570   6.920   3.555   1.536  0.0500 -0.3690 -0.6067
    3MOL    C87 1571   7.015   3.457   1.595 -0.9657 -0.8120 -0.5006
    3MOL    C88 1572   7.126   3.409   1.496 -0.0408 -0.0224  0.4490
    3MOL    N89 1573   7.077   3.302   1.403 -0.2031  0.1923  0.0323
    3MOL    H90 1574   6.230   3.706   2.137 -1.8006 -0.7820  0.4754
    3MOL    H91 1575   6.197   3.863   2.189  1.2469 -0.0568 -0.3039
    3MOL    H92 1576   6.260   3.970   1.972 -1.3328  0.3042  0.5233
    3MOL    H93 1577   6.386   3.898   2.075 -1.5902  0.4764  1.6397
    3MOL    H94 1578   6.262   3.714   1.848  0.0432 -2.1443 -0.3843
    3MOL    H95 1579   6.385   3.696   1.952 -1.6686 -0.3055 -0.3519
    3MOL    H96 1580   6.382   3.886   1.716  3.1475  0.2140 -2.5843
    3MOL    H97 1581   6.492   3.922   1.843  1.6623  1.4423 -1.0375
    3MOL    H98 1582   6.502   3.655   1.699  0.1890  0.1630  1.3105
    3MOL    H99 1583   6.593   3.679   1.830 -2.5357  1.3852  2.5463
    3MOL   H100 1584   6.713   3.886   1.725 -1.4500  1.8250  0.6102
    3MOL   H101 1585   6.603   3.856   1.589  3.0819 -0.7434 -2.8760
    3MOL   H102 1586   6.792   3.814   1.532  0.0240  0.6275  0.9781
    3MOL   H103 1587   6.684   3.688   1.496 -0.8719 -0.0078  0.0112
    3MOL   H104 1588   6.782   3.561   1.715 -0.4489  0.7808  0.8983
    3MOL   H105 1589   6.911   3.672   1.713  1.9244 -1.7538 -1.2187
    3MOL   H106 1590   6.962   3.640   1.483  0.2213 -0.9378 -1.4063
    3MOL   H107 1591   6.853   3.501   1.469 -2.8475  2.6381 -0.2286
    3MOL   H108 1592   6.959   3.378   1.644 -2.2982  0.4662  0.0703
    3MOL   H109 1593   7.067   3.512   1.674 -0.6948 -2.3481  0.4203
    3MOL   H110 1594   7.209   3.372   1.556 -2.7698 -1.4049  3.5566
    3MOL   H111 1595   7.169   3.497   1.448  1.4676  0.1823  2.1023
    3MOL   H112 1596   6.990   3.316   1.355 -1.3821  1.3410  2.4394
    3MOL   C113 1597   7.142   3.191   1.374  0.1718  0.0599  0.4607
    3MOL   O114 1598   7.248   3.166   1.430 -0.3314  0.2117  0.1040
    3MOL   C115 1599   7.086   3.101   1.259 -0.8960  0.0382  0.2016
    3MOL   C116 1600   7.195   3.086   1.146  0.3176 -0.1108 -0.2683
    3MOL   C117 1601   7.240   3.218   1.083  0.4207 -0.7386  0.3313
    3MOL   C118 1602   7.133   3.305   1.016  0.3064 -1.1301  0.1739
    3MOL   C119 1603   7.194   3.432   0.953 -0.1672 -0.7169  0.4422
    3MOL   C120 1604   7.096   3.516   0.874 -0.1310 -0.6115 -0.7095
    3MOL   C121 1605   7.149   3.652   0.832  0.3447  0.4337 -0.2842
    3MOL   C122 1606   7.269   3.653   0.742 -0.2739 -0.8373 -0.7425
    3MOL   C123 1607   7.331   3.792   0.724 -0.1705 -0.4756  0.0081
    3MOL   C124 1608   7.460   3.800   0.649 -0.1990  0.0876  0.4841
    3MOL   C125 1609   7.500   3.946   0.625 -0.9888  0.2251 -0.2365
    3MOL   N126 1610   7.623   3.969   0.547 -0.4030 -0.6811  0.4175
    3MOL   H127 1611   6.990   3.138   1.222 -2.0694 -3.0006  0.0763
    3MOL   H128 1612   7.064   3.001   1.296  0.1219 -0.3476 -0.2369
    3MOL   H129 1613   7.287   3.044   1.185  0.3845 -1.2184 -1.5924
    3MOL   H130 1614   7.155   3.027   1.063  1.3345 -0.9419 -0.1649
    3MOL   H131 1615   7.317   3.202   1.007 -0.7486 -0.7751 -0.8581
    3MOL   H132 1616   7.305   3.273   1.151  0.5313  1.1957 -1.2839
    3MOL   H133 1617   7.084   3.246   0.938 -1.6231 -1.5757  1.7038
    3MOL   H134 1618   7.052   3.336   1.081  0.9311  1.3236 -0.1666
    3MOL   H135 1619   7.265   3.389   0.882  0.5586  2.1149 -0.6003
    3MOL   H136 1620   7.257   3.485   1.024  1.3878 -1.9858  0.0621
    3MOL   H137 1621   7.010   3.543   0.934 -0.1011  2.5480 -1.9743
    3MOL   H138 1622   7.058   3.458   0.790  0.9174  0.1759 -1.7577
    3MOL   H139 1623   7.181   3.696   0.926 -1.5448 -0.1049  0.6316
    3MOL   H140 1624   7.069   3.720   0.802  0.1973  0.3033 -0.1837
    3MOL   H141 1625   7.236   3.619   0.644 -0.3877  0.6421 -1.2268
    3MOL   H142 1626   7.347   3.593   0.789  0.3871  1.0155  0.5910
    3MOL   H143 1627   7.344   3.832   0.825 -1.2746 -2.1995  0.8621
    3MOL   H144 1628   7.259   3.859   0.678 -0.0335 -1.2018 -1.2820
    3MOL   H145 1629   7.435   3.749   0.556  0.1988  0.9237 -0.0975
    3MOL   H146 1630   7.536   3.743   0.701 -1.7866 -1.8460  0.7655
    3MOL   H147 1631   7.525   3.993   0.721 -1.7816  0.3163 -0.0661
    3MOL   H148 1632   7.421   4.013   0.590 -0.8458 -0.1760 -1.3084
    3MOL   H149 1633   7.685   4.043   0.576  1.6397 -1.6560 -1.3928
    3MOL   C150 1634   7.661   3.908   0.429 -0.1892 -0.5296 -0.4250
    3MOL   O151 1635   7.596   3.826   0.368 -0.7903 -0.4209 -0.1900
    3MOL   C152 1636   0.089   3.973   0.358 -0.1959 -0.0341 -0.8003
    3MOL   C153 1637   0.072   3.973   0.210  0.1200 -1.3815 -0.2713
    3MOL   C154 1638   0.208   4.027   0.145 -0.3058  0.4214 -0.3087
    3MOL   C155 1639   0.205   4.031   7.684  0.5339 -0.8123 -0.2650
    3MOL   C156 1640   0.113   4.136   7.627  0.5850 -0.7961 -0.1533
    3MOL   C157 1641   0.091   4.113   7.479 -0.0728 -0.6449  0.0584
    3MOL   C158 1642   0.205   4.148   7.381 -0.2724 -0.1514  0.2408
    3MOL   C159 1643   0.179   4.099   7.242  0.2536  0.1590 -0.5495
    3MOL   C160 1644   0.280   4.167   7.151 -0.1438  0.0039 -0.3212
    3MOL   C161 1645   0.274   4.097   7.003 -0.3471  0.6915 -0.1652
    3MOL   C162 1646   0.349   4.174   6.901  0.2373 -0.4788 -0.2661
    3MOL   N163 1647   0.356   4.115   6.764 -0.7633  0.2622 -0.4041
    3MOL   H164 1648   0.177   3.914   0.385 -0.6583 -0.1515  0.5017
    3MOL   H165 1649   0.114   4.076   0.379  2.6637 -0.7089 -0.7322
    3MOL   H166 1650   0.059   3.868   0.183  3.0886 -1.3417 -2.0653
    3MOL   H167 1651   7.681   4.038   0.190  1.2273  0.1211 -0.2202
    3MOL   H168 1652   0.279   3.952   0.180 -1.2376  0.4973  1.8096
    3MOL   H169 1653   0.232   4.127   0.181  2.6647 -0.8960  1.5754
    3MOL   H170 1654   0.307   4.039   7.646  0.3853  0.1281 -0.4830
    3MOL   H171 1655   0.183   3.933   7.642  0.5972 -0.7238 -0.5034
    3MOL   H172 1656   0.144   4.239   7.643 -4.5053  0.7844  0.1692
    3MOL   H173 1657   0.017   4.118   7.675 -0.4367 -2.2700 -2.6210
    3MOL   H174 1658   0.008   4.181   7.458 -1.5756 -2.3792  0.2330
    3MOL   H175 1659   0.051   4.013   7.461  1.8634 -1.1485 -1.6850
    3MOL   H176 1660   0.296   4.097   7.413 -0.6947 -2.2860 -1.8505
    3MOL   H177 1661   0.223   4.255   7.392  1.1856 -0.3138 -0.3973
    3MOL   H178 1662   0.077   4.126   7.218  0.2061  0.8834  0.4609
    3MOL   H179 1663   0.194   3.992   7.229 -0.7852 -0.1509  0.7759
    3MOL   H180 1664   0.379   4.170   7.197 -0.8579  2.6709  1.1241
    3MOL   H181 1665   0.258   4.272   7.135  0.6878 -0.0485 -1.9721
    3MOL   H182 1666   0.171   4.072   6.976 -0.0930  0.4656 -0.9269
    3MOL   H183 1667   0.316   3.997   7.008 -0.8615  0.5068  0.5771
    3MOL   H184 1668   0.447   4.193   6.945 -0.6395 -1.5115  2.2780
    3MOL   H185 1669   0.303   4.273   6.898 -1.0925 -1.0896 -0.4397
    3MOL   H186 1670   0.327   4.019   6.756 -1.0184  0.1269  1.8713
    3MOL   C187 1671   0.385   4.195   6.664  0.9938  0.1709  0.8841
    3MOL   O188 1672   0.413   4.315   6.676 -0.3337  0.1292  0.0718
    3MOL   C189 1673   0.378   4.129   6.525 -0.1198  0.1208  0.5563
    3MOL   C190 1674   0.243   4.155   6.449 -0.8364 -0.7026 -0.6056
    3MOL   C191 1675   0.209   4.303   6.400 -0.3265 -0.5214  0.6441
    3MOL   C192 1676   0.073   4.319   6.330 -1.1722 -0.6384 -0.0318
    3MOL   C193 1677   0.049   4.474   6.293  0.3997  0.3115 -0.3404
    3MOL   C194 1678   7.591   4.497   6.248  0.1182 -0.2031  0.0978
    3MOL   C195 1679   7.554   4.632   6.180  0.0797  0.4527  0.0350
    3MOL   C196 1680   7.402   4.657   6.170 -0.0876  0.4353  0.5828
    3MOL   C197 1681   7.374   4.783   6.081 -0.3297  0.0799 -0.1785
    3MOL   C198 1682   7.232   4.829   6.064  0.4641  0.7894  0.1004
    3MOL   C199 1683   7.181   4.894   6.190 -0.2552  1.1049  0.0940
    3MOL   N200 1684   7.049   4.964   6.160 -0.3776  0.0925 -0.3444
    3MOL   H201 1685   0.407   4.025   6.537 -0.8758 -0.1106  0.4585
    3MOL   H202 1686   0.452   4.172   6.458  0.0911 -1.1701 -0.0485
    3MOL   H203 1687   0.252   4.090   6.362  0.6755 -0.5245 -0.5954
    3MOL   H204 1688   0.162   4.124   6.515  0.0083 -0.6458  0.4809
    3MOL   H205 1689   0.284   4.346   6.334  0.6472 -0.5457  1.7246
    3MOL   H206 1690   0.215   4.378   6.478 -0.2572  0.2963 -0.1444
    3MOL   H207 1691   0.083   4.260   6.238  2.2198  2.3232 -1.7005
    3MOL   H208 1692   7.683   4.281   6.389 -1.4310  1.0480  0.6922
    3MOL   H209 1693   0.121   4.508   6.220  2.6012 -2.0415  0.6710
    3MOL   H210 1694   0.067   4.538   6.380  0.8265 -1.8885  1.2365
    3MOL   H211 1695   7.533   4.484   6.339 -1.5350  0.6836 -0.8060
    3MOL   H212 1696   7.572   4.414   6.179 -0.8291 -0.0905  0.2196
    3MOL   H213 1697   7.589   4.632   6.077 -2.2442 -1.6083 -0.8203
    3MOL   H214 1698   7.600   4.718   6.228  0.9858  0.5438 -0.9774
    3MOL   H215 1699   7.360   4.682   6.268 -2.2431  1.6052 -0.6159
    3MOL   H216 1700   7.351   4.567   6.135  1.9880 -0.5892  0.1221
    3MOL   H217 1701   7.422   4.771   5.984 -1.9642  1.0934 -1.1396
    3MOL   H218 1702   7.431   4.866   6.122 -2.8519  0.2208  3.2481
    3MOL   H219 1703   7.181   4.743   6.021  1.5097  1.1443 -1.9322
    3MOL   H220 1704   7.234   4.904   5.984 -1.8207  1.1502  0.3469
    3MOL   H221 1705   7.253   4.961   6.237 -0.4893  1.6270 -0.2936
    3MOL   H222 1706   7.167   4.815   6.264  1.9043 -0.7866 -1.4354
    3MOL   H223 1707   6.962   4.914   6.151  0.3596 -1.2240 -0.4597
    3MOL   C224 1708   7.030   5.095   6.155  0.0816  0.6116 -0.7652
    3MOL   O225 1709   7.117   5.181   6.166 -0.9068 -0.3740 -0.0783
    3MOL   C226 1710   6.883   5.129   6.132 -0.0096 -0.8081  0.5528
    3MOL   C227 1711   6.801   5.171   6.255 -0.6629  0.5207  0.3024
    3MOL   C228 1712   6.665   5.212   6.216 -0.7736  0.2918 -0.4135
    3MOL   C229 1713   6.573   5.107   6.152 -0.5868 -0.2944 -0.0116
    3MOL   C230 1714   6.427   5.131   6.168 -0.5024 -0.1883  0.3392
    3MOL   C231 1715   6.341   5.035   6.099  0.2416 -0.0370  1.0206
    3MOL   C232 1716   6.186   5.053   6.119 -0.0654 -0.1530 -0.0827
    3MOL   C233 1717   6.096   4.968   6.033  0.0631  0.5288  1.4430
    3MOL   C234 1718   6.094   4.820   6.071 -0.1410  0.6260  0.0927
    3MOL   C235 1719   6.057   4.716   5.967  0.6750 -0.2272 -0.6530
    3MOL   C236 1720   6.056   4.579   6.027  0.4547 -0.1890  0.5112
    3MOL   N237 1721   6.179   4.508   6.040 -0.3092 -0.1379  0.6017
    3MOL   H238 1722   6.830   5.069   6.058  1.5270  1.4696 -2.5066
    3MOL   H239 1723   6.882   5.217   6.067  2.1455 -0.0453  1.5126
    3MOL   H240 1724   6.793   5.075   6.306 -2.4577 -0.4210 -1.6423
    3MOL   H241 1725   6.862   5.244   6.308 -0.3697 -1.5813  2.9575
    3MOL   H242 1726   6.680   5.303   6.159 -5.2649  1.1306 -0.4030
    3MOL   H243 1727   6.621   5.226   6.315  2.0334 -0.0756  0.9404
    3MOL   H244 1728   6.607   5.106   6.048  2.0399  2.4262  0.7474
    3MOL   H245 1729   6.601   5.005   6.180  0.1548  0.2278  1.1779
    3MOL   H246 1730   6.412   5.231   6.126  1.2019  0.6555  1.6758
    3MOL   H247 1731   6.407   5.132   6.275 -0.1571  1.5347  0.4133
    3MOL   H248 1732   6.381   4.937   6.127  0.8315 -0.5465 -1.4818
    3MOL   H249 1733   6.362   5.033   5.992  0.5512 -1.5170  1.1030
    3MOL   H250 1734   6.160   5.157   6.103  0.0514 -0.1516 -0.2535
    3MOL   H251 1735   6.166   5.040   6.226  0.3967  1.6793  0.2429
    3MOL   H252 1736   6.149   4.978   5.938 -0.8202  2.4695  1.1274
    3MOL   H253 1737   5.994   5.004   6.022 -0.5165 -0.5935  2.9273
    3MOL   H254 1738   6.025   4.803   6.153 -0.5262  2.5186  0.1708
    3MOL   H255 1739   6.192   4.781   6.099 -1.3595 -3.0318 -0.4404
    3MOL   H256 1740   6.123   4.714   5.881 -0.3622 -0.9459 -1.4354
    3MOL   H257 1741   5.953   4.728   5.937  0.2538 -0.3831  0.7105
    3MOL   H258 1742   5.991   4.517   5.966  0.2716  0.3547  0.1496
    3MOL   H259 1743   6.018   4.579   6.129  1.6884 -2.3609  0.9884
    3MOL   H260 1744   6.215   4.488   6.133  1.1816 -2.1110 -0.3672
    3MOL   C261 1745   6.232   4.422   5.947 -0.1053 -0.8675 -0.4661
    3MOL   O262 1746   6.182   4.407   5.833 -0.1521 -0.2019  0.0745
    3MOL   C263 1747   6.361   4.345   5.985 -0.4501  1.0727  0.8694
    3MOL   C264 1748   6.481   4.405   5.912 -0.1878 -0.0994 -0.6717
    3MOL   C265 1749   6.614   4.394   5.984 -0.3194  0.2936 -0.0178
    3MOL   C266 1750   6.651   4.245   6.009  0.0844  0.0566 -0.2117
    3MOL   C267 1751   6.791   4.221   6.058  0.3126 -0.5786 -0.4885
    3MOL   C268 1752   6.837   4.074   6.045  0.7452  0.3704 -0.4612
    3MOL   C269 1753   6.977   4.051   6.107  0.3024  0.7282  0.8095
    3MOL   C270 1754   7.010   3.899   6.126  0.0046 -0.2227 -0.4116
    3MOL   C271 1755   7.130   3.885   6.213 -0.1410  0.0809  0.2433
    3MOL   C272 1756   7.267   3.918   6.146 -0.0759  0.0219  0.0868
    3MOL   C273 1757   7.382   3.874   6.233  1.1176 -0.0796  0.5506
    3MOL   N274 1758   7.516   3.903   6.176  0.3510 -0.2462 -0.6201
    3MOL   H275 1759   6.337   4.239   5.975 -2.6666  1.4142  2.1370
    3MOL   H276 1760   6.389   4.353   6.090  1.4636  1.7070  0.3321
    3MOL   H277 1761   6.485   4.370   5.808 -0.1361  2.1946 -1.4781
    3MOL   H278 1762   6.466   4.512   5.897  1.4889  0.0573 -1.3649
    3MOL   H279 1763   6.612   4.442   6.082  0.2793 -0.3035  0.3004
    3MOL   H280 1764   6.697   4.446   5.936 -0.5445  1.4205  0.7994
    3MOL   H281 1765   6.583   4.195   6.078  2.7952  0.8247  3.1841
    3MOL   H282 1766   6.641   4.213   5.905  2.5857  0.0344 -0.4872
    3MOL   H283 1767   6.789   4.263   6.158 -1.5727 -0.6124 -0.4910
    3MOL   H284 1768   6.866   4.274   5.999  0.1352 -0.7137 -0.8372
    3MOL   H285 1769   6.852   4.036   5.944 -1.1896 -2.4600  0.2562
    3MOL   H286 1770   6.765   4.014   6.101  1.2352  0.7146  0.5553
    3MOL   H287 1771   6.972   4.093   6.208  0.7800  1.1408  0.6638
    3MOL   H288 1772   7.054   4.098   6.046  1.5585 -2.9191 -0.6146
    3MOL   H289 1773   7.032   3.856   6.028  2.2633  0.4125 -0.2191
    3MOL   H290 1774   6.926   3.845   6.168 -1.1401  2.2075  0.5519
    3MOL   H291 1775   7.133   3.779   6.240 -1.9627 -0.1281 -0.2855
    3MOL   H292 1776   7.116   3.938   6.307  2.1143 -0.3053  0.8202
    3MOL   H293 1777   7.275   4.024   6.121  0.8982 -0.0011  0.2885
    3MOL   H294 1778   7.277   3.876   6.046 -0.7556  0.5228 -0.1898
    3MOL   H295 1779   7.366   3.767   6.243 -0.7668 -0.0221 -1.4305
    3MOL   H296 1780   7.374   3.917   6.333 -0.9809  0.9293 -0.0273
    3MOL   H297 1781   7.529   3.976   6.108  0.0008 -0.9278 -1.4385
    3MOL   C298 1782   7.635   3.870   6.234  1.0361 -0.2647 -0.6749
    3MOL   O299 1783   7.634   3.811   6.336 -0.7818  0.4071 -0.3174
    3MOL   C300 1784   0.071   3.927   6.162  0.1174  0.0629 -0.1952
    3MOL   C301 1785   0.141   3.828   6.073 -0.4726  0.5131  0.1512
    3MOL   C302 1786   0.264   3.876   5.994  0.5689  0.1559  1.0584
    3MOL   C303 1787   0.324   3.766   5.909  0.1458  0.3247 -0.0767
    3MOL   C304 1788   0.476   3.780   5.890  0.2688  0.9949 -0.0035
    3MOL   C305 1789   0.543   3.655   5.822 -0.0405  0.2244  0.2206
    3MOL   C306 1790   0.494   3.641   5.669 -0.5657 -0.3890 -0.1609
    3MOL   C307 1791   0.555   3.531   5.589  0.0389 -0.3437 -0.0435
    3MOL   C308 1792   0.494   3.527   5.452  0.5173  0.2685  0.4042
    3MOL   C309 1793   0.542   3.407   5.370 -0.2252  0.1872 -0.4084
    3MOL   C310 1794   0.490   3.405   5.221  0.4233  0.2125 -0.7823
    3MOL   N311 1795   0.348   3.379   5.220  0.2195  0.2783 -0.1256
    3MOL   H312 1796   0.145   3.960   6.234  0.3896  1.1452 -0.9643
    3MOL   H313 1797   0.045   4.013   6.100  2.6278  1.0237  0.0213
    3MOL   H314 1798   0.167   3.741   6.133 -0.8659 -0.4567 -1.0639
    3MOL   H315 1799   0.071   3.788   6.000  0.7794 -2.3489  0.4541
    3MOL   H316 1800   0.336   3.908   6.070 -1.8489  0.3934  3.3181
    3MOL   H317 1801   0.241   3.962   5.931  1.8313  0.6392  1.2424
    3MOL   H318 1802   0.324   3.671   5.963  0.2819  0.2307 -0.2415
    3MOL   H319 1803   0.276   3.743   5.814 -1.2517 -2.2192  1.2082
    3MOL   H320 1804   0.538   3.806   5.976  1.4156 -0.9474 -0.2419
    3MOL   H321 1805   0.489   3.864   5.821 -0.8354 -0.5256 -2.1149
    3MOL   H322 1806   0.516   3.553   5.851 -4.5643  0.8555 -1.3565
    3MOL   H323 1807   0.651   3.668   5.822  0.1930 -1.0578 -3.2530
    3MOL   H324 1808   0.513   3.735   5.616  0.6023  0.1076  1.1077
    3MOL   H325 1809   0.387   3.624   5.675 -0.4831 -0.5995  0.6669
    3MOL   H326 1810   0.524   3.440   5.639 -2.2554  0.2247 -0.3771
    3MOL   H327 1811   0.664   3.539   5.594  0.0434 -1.1546  1.0926
    3MOL   H328 1812   0.500   3.622   5.399  0.6142  0.0722  0.0613
    3MOL   H329 1813   0.387   3.522   5.469  0.6085 -0.3592  0.8436
    3MOL   H330 1814   0.521   3.310   5.415 -0.3668 -0.2064 -1.3204
    3MOL   H331 1815   0.650   3.397   5.368 -0.4780 -2.8851 -0.6107
    3MOL   H332 1816   0.548   3.343   5.153 -1.6232 -1.0624 -1.4211
    3MOL   H333 1817   0.505   3.503   5.175  1.7437 -0.0350 -0.8892
    3MOL   H334 1818   0.290   3.457   5.190  0.3078  0.2157 -0.4642
    3MOL   C335 1819   0.290   3.262   5.204 -0.9122 -0.2150  0.0082
    3MOL   O336 1820   0.172   3.259   5.176 -0.2204 -0.1936 -0.1005
    3MOL   C337 1821   0.368   3.135   5.232  0.0409  0.5221 -0.4692
    3MOL   C338 1822   0.291   3.019   5.312 -0.2422  0.2531 -0.4097
    3MOL   C339 1823   0.227   3.061   5.445  0.6160  0.0047 -0.0789
    3MOL   C340 1824   0.164   2.943   5.513  0.2444 -0.0100  0.3190
    3MOL   C341 1825   0.103   2.973   5.650  0.8276  0.0707 -0.6774
    3MOL   C342 1826   0.021   2.858   5.711  0.4069 -0.6206  0.1714
    3MOL   C343 1827   7.668   2.902   5.854 -0.1416  0.1558  0.1924
    3MOL   C344 1828   7.597   2.786   5.927  0.1642 -0.3877  0.0006
    3MOL   C345 1829   7.459   2.737   5.873 -0.1479  0.0898 -0.0120
    3MOL   C346 1830   7.396   2.650   5.986 -0.5891  0.9022  0.9130
    3MOL   C347 1831   7.272   2.564   5.940  0.0204  0.4324  0.5163
    3MOL   N348 1832   7.236   2.462   6.037 -0.0835  0.1951  0.3240
    3MOL   H349 1833   0.457   3.159   5.290 -0.8383  0.3061  0.9965
    3MOL   H350 1834   0.421   3.112   5.139  2.1871  1.1058  0.5678
    3MOL   H351 1835   0.205   2.991   5.251  0.9350 -1.1436 -1.4753
    3MOL   H352 1836   0.349   2.926   5.317 -0.0399  0.4272  0.5849
    3MOL   H353 1837   0.150   3.135   5.421 -1.4262 -1.4905  1.7862
    3MOL   H354 1838   0.311   3.091   5.507  1.7630 -2.0984 -0.5615
    3MOL   H355 1839   0.083   2.921   5.443 -0.1336 -1.5011  1.2093
    3MOL   H356 1840   0.232   2.860   5.527 -1.1467 -1.2473 -0.0948
    3MOL   H357 1841   0.040   3.061   5.633 -1.9663 -2.1096 -1.9705
    3MOL   H358 1842   0.180   3.008   5.719  1.6810 -1.1511 -0.9962
    3MOL   H359 1843   0.073   2.762   5.717 -1.0256 -1.3420  1.6254
    3MOL   H360 1844   7.626   2.838   5.653 -0.3265  0.9339  0.7173
    3MOL   H361 1845   7.596   2.984   5.860 -2.0640 -1.3490 -1.3490
    3MOL   H362 1846   0.058   2.919   5.921 -0.8422  0.0833  1.0984
    3MOL   H363 1847   7.579   2.817   6.030 -2.6285 -1.4511 -0.1273
    3MOL   H364 1848   7.667   2.702   5.928  0.1268 -0.4525 -1.7236
    3MOL   H365 1849   7.473   2.671   5.788  1.4867 -0.4895  0.6832
    3MOL   H366 1850   7.398   2.824   5.850 -0.9775 -0.0136  1.6755
    3MOL   H367 1851   7.377   2.721   6.067  0.6343  1.5807  0.6233
    3MOL   H368 1852   7.478   2.585   6.017 -1.9296 -0.2665  2.1073
    3MOL   H369 1853   7.308   2.519   5.848 -0.9776  2.7569 -1.0458
    3MOL   H370 1854   7.180   2.615   5.912 -0.0260  0.2163  0.2734
    3MOL   H371 1855   7.258   2.366   6.016  2.8891  1.4418 -2.6560
    3MOL   C372 1856   7.187   2.490   6.166 -0.7407 -0.3384  0.4930
    3MOL   O373 1857   7.150   2.605   6.188  0.2550 -0.9019 -0.2324
    3MOL   C374 1858   7.175   2.372   6.262  0.4331  0.0917 -0.3597
    3MOL   C375 1859   7.254   2.377   6.393 -0.0759  0.1669  0.3086
    3MOL   C376 1860   7.193   2.477   6.492 -0.5902  0.4058  0.3057
    3MOL   C377 1861   7.277   2.527   6.611  0.7288  0.5258 -0.1188
    3MOL   C378 1862   7.216   2.652   6.676 -0.4777  0.5173  0.1448
    3MOL   C379 1863   7.304   2.704   6.785 -0.5036 -0.0737  0.2940
    3MOL   C380 1864   7.251   2.837   6.844  0.0695  0.4207  0.1012
    3MOL   C381 1865   7.362   2.918   6.917 -0.2243 -0.2924 -0.2101
    3MOL   C382 1866   7.321   3.033   7.017 -0.5520  0.4283 -0.1235
    3MOL   C383 1867   7.217   3.130   6.961  0.4691  0.2439 -1.3755
    3MOL   C384 1868   7.263   3.216   6.849  0.4373  0.7855 -0.1517
    3MOL   N385 1869   7.152   3.288   6.786 -0.4616 -0.9798  0.1693
    3MOL   H386 1870   7.209   2.286   6.204 -0.6620 -0.7723  0.2494
    3MOL   H387 1871   7.068   2.354   6.275  1.0694 -2.6191  1.6128
    3MOL   H388 1872   7.271   2.277   6.432  0.5876 -0.7184 -2.1467
    3MOL   H389 1873   7.354   2.414   6.371 -0.5829  1.7764  0.6537
    3MOL   H390 1874   7.107   2.430   6.539  0.9785 -3.0497 -0.0663
    3MOL   H391 1875   7.167   2.562   6.430  0.0894 -0.0060 -0.5698
    3MOL   H392 1876   7.297   2.454   6.690  0.6043 -0.7699 -1.2659
    3MOL   H393 1877   7.373   2.562   6.573  1.4938 -0.0238  1.2779
    3MOL   H394 1878   7.123   2.615   6.721 -0.9140  2.2189  0.6665
    3MOL   H395 1879   7.192   2.725   6.599 -1.5049 -0.1989 -0.2239
    3MOL   H396 1880   7.398   2.731   6.739 -0.5956 -1.4335 -0.7042
    3MOL   H397 1881   7.325   2.629   6.862 -1.8949 -1.2035 -0.4132
    3MOL   H398 1882   7.158   2.807   6.891 -0.8473  1.1315 -1.2191
    3MOL   H399 1883   7.215   2.885   6.753 -1.4054  1.2530  1.1192
    3MOL   H400 1884   7.427   2.963   6.842 -0.9610  0.1280 -0.6043
    3MOL   H401 1885   7.428   2.851   6.972  0.5172 -0.2109 -0.9817
    3MOL   H402 1886   7.409   3.085   7.054 -0.9867  2.9477 -2.5006
    3MOL   H403 1887   7.281   2.978   7.102  0.3613  2.2348  1.5108
    3MOL   H404 1888   7.172   3.194   7.037 -0.5741 -0.7129 -1.1673
    3MOL   H405 1889   7.135   3.063   6.935  0.1787 -0.0740  0.2992
    3MOL   H406 1890   7.314   3.146   6.781 -1.2854  0.0583 -0.7146
    3MOL   H407 1891   7.338   3.283   6.890  0.7177  1.3740 -1.5938
    3MOL   H408 1892   7.130   3.375   6.830 -1.4509 -0.8136 -0.6370
    3MOL   C409 1893   7.093   3.255   6.671  0.0071 -1.1159 -0.4558
    3MOL   O410 1894   7.111   3.152   6.601 -0.1112 -0.4666  0.0205
    3MOL   C411 1895   7.001   3.367   6.620 -0.1648  0.0099  0.5181
    3MOL   C412 1896   7.022   3.392   6.468  0.1871 -0.0271  0.3727
    3MOL   C413 1897   6.933   3.506   6.407  0.2214  0.5331  0.4248
    3MOL   C414 1898   6.910   3.491   6.255 -0.1172  0.1194 -0.4265
    3MOL   C415 1899   7.047   3.478   6.177  0.2584 -0.6361  0.1932
    3MOL   C416 1900   7.040   3.482   6.028 -0.2466  0.5938 -0.6154
    3MOL   C417 1901   7.171   3.431   5.962 -0.6346 -0.2986  0.1378
    3MOL   C418 1902   7.214   3.291   5.988  0.0817  0.0652 -0.4177
    3MOL   C419 1903   7.347   3.253   5.909  0.5998 -0.3498  0.0439
    3MOL   C420 1904   7.324   3.214   5.764 -0.0548 -0.1233 -0.3419
    3MOL   C421 1905   7.454   3.192   5.679 -0.0231 -0.3268 -0.1561
    3MOL   N422 1906   7.411   3.158   5.546 -0.6771 -0.1998 -0.1916
    3MOL   H423 1907   7.004   3.461   6.676 -0.9882  0.3965 -0.0735
    3MOL   H424 1908   6.899   3.332   6.637 -0.3942 -0.0748 -0.9421
    3MOL   H425 1909   7.129   3.401   6.448  0.4685 -0.5887  1.5892
    3MOL   H426 1910   6.988   3.296   6.428  0.1914  0.3745 -0.6163
    3MOL   H427 1911   6.968   3.607   6.429  0.1082  1.4311 -3.1149
    3MOL   H428 1912   6.837   3.500   6.457  0.3684 -1.4302  0.4998
    3MOL   H429 1913   6.854   3.400   6.232  1.6215 -1.0919  0.0506
    3MOL   H430 1914   6.866   3.581   6.212 -2.4040 -0.7567  0.0123
    3MOL   H431 1915   7.080   3.377   6.202 -0.1111 -0.8276 -0.0945
    3MOL   H432 1916   7.123   3.543   6.221  0.4666 -0.7500  0.0064
    3MOL   H433 1917   7.018   3.587   6.004 -2.6551 -0.1397 -1.8079
    3MOL   H434 1918   6.947   3.431   6.000 -0.6230 -0.1144  1.8584
    3MOL   H435 1919   7.245   3.501   6.002  0.1370 -1.0725  0.0630
    3MOL   H436 1920   7.154   3.457   5.857 -0.3306  1.8614  0.5852
    3MOL   H437 1921   7.132   3.235   5.945  0.1819  0.8368 -1.6366
    3MOL   H438 1922   7.228   3.266   6.093  1.5412  0.2128 -0.5552
    3MOL   H439 1923   7.381   3.166   5.965 -0.9489 -0.9317  0.0895
    3MOL   H440 1924   7.413   3.339   5.926 -0.2528  0.0747  1.3111
    3MOL   H441 1925   7.260   3.291   5.721  0.5246  1.0748  0.9081
    3MOL   H442 1926   7.270   3.119   5.766  2.2717 -1.4694  0.6310
    3MOL   H443 1927   7.508   3.104   5.716  0.9885 -0.3677 -1.6701
    3MOL   H444 1928   7.509   3.286   5.681  1.5227 -1.1893 -1.0238
    3MOL   H445 1929   7.412   3.063   5.511  0.4558 -0.8674  1.5586
    3MOL   C446 1930   7.387   3.248   5.449 -0.1864 -0.3465 -0.6051
    3MOL   O447 1931   7.393   3.372   5.465 -0.0618  0.6577  0.0591
    3MOL   C448 1932   7.360   3.183   5.316 -0.3114  0.6595 -0.9789
    3MOL   C449 1933   7.334   3.277   5.198  0.5616 -0.0969 -0.3702
    3MOL   C450 1934   7.210   3.363   5.196 -0.7018 -0.3128  0.0959
    3MOL   C451 1935   7.079   3.281   5.208  0.0736  0.7414  0.4863
    3MOL   C452 1936   6.951   3.362   5.232  0.5120 -0.1962  0.1837
    3MOL   C453 1937   6.838   3.269   5.278 -0.3169 -0.1988  0.7281
    3MOL   C454 1938   6.697   3.333   5.283 -0.3685 -0.1349 -0.0524
    3MOL   C455 1939   6.577   3.239   5.290 -0.8506  0.2077  0.0824
    3MOL   C456 1940   6.556   3.181   5.149 -0.4932  0.2271  0.5790
    3MOL   C457 1941   6.415   3.114   5.149 -0.1070 -0.3752  0.2590
    3MOL   C458 1942   6.365   3.054   5.016  0.1508 -0.0061  0.0862
    3MOL   N459 1943   6.359   3.153   4.907 -0.0786  0.5022 -0.2451
    3MOL   H460 1944   7.283   3.105   5.322 -1.4511  1.8969  1.2101
    3MOL   H461 1945   7.451   3.127   5.295 -1.3009 -0.6810 -1.7655
    3MOL   H462 1946   7.419   3.345   5.189  2.1960 -2.0151 -0.0447
    3MOL   H463 1947   7.335   3.210   5.112  2.5788 -0.2802 -0.2279
    3MOL   H464 1948   7.225   3.408   5.098  2.5741 -2.8380 -0.6452
    3MOL   H465 1949   7.219   3.444   5.268 -0.2727  0.2979 -0.6354
    3MOL   H466 1950   7.069   3.221   5.118  0.3725  1.4118  0.0077
    3MOL   H467 1951   7.101   3.207   5.285 -0.3039  0.4999  0.3604
    3MOL   H468 1952   6.932   3.409   5.136  0.6609  1.1624  0.8041
    3MOL   H469 1953   6.967   3.450   5.295  0.0952  0.3761 -0.5127
    3MOL   H470 1954   6.868   3.226   5.373 -0.8839 -1.8213  0.1858
    3MOL   H471 1955   6.832   3.184   5.209 -1.1723 -0.3945  1.0370
    3MOL   H472 1956   6.682   3.401   5.199 -1.1566  0.3656  0.4951
    3MOL   H473 1957   6.691   3.404   5.365  1.5209 -0.5630  0.4916
    3MOL   H474 1958   6.483   3.284   5.320 -0.8825  0.5769 -0.5670
    3MOL   H475 1959   6.590   3.151   5.354  0.5353  0.2962 -0.0521
    3MOL   H476 1960   6.631   3.106   5.124 -1.9500 -0.8709 -0.5922
    3MOL   H477 1961   6.551   3.253   5.067 -0.5977 -0.1324  0.2660
    3MOL   H478 1962   6.347   3.192   5.183  2.0318  1.6542  0.0561
    3MOL   H479 1963   6.407   3.036   5.224 -0.1681  0.9959  1.6953
    3MOL   H480 1964   6.269   3.007   5.035 -0.6620  2.0149  1.1987
    3MOL   H481 1965   6.436   2.979   4.982  0.4045  0.3562 -0.1974
    3MOL   H482 1966   6.426   3.133   4.834 -2.6476  1.8516 -3.0142
    3MOL   C483 1967   6.282   3.264   4.899 -0.6655  0.0649 -0.0273
    3MOL   O484 1968   6.191   3.285   4.974  0.2511  0.2040  0.7320
    3MOL   C485 1969   6.313   3.360   4.783  0.3100  0.2656  0.6869
    3MOL   C486 1970   6.256   3.506   4.791 -0.5291  0.0966 -0.1892
    3MOL   C487 1971   6.336   3.595   4.701  0.6530  0.1832 -0.1682
    3MOL   C488 1972   6.475   3.634   4.754 -0.5019  1.0076  0.7593
    3MOL   C489 1973   6.530   3.758   4.683 -0.4517 -0.5201 -0.0732
    3MOL   C490 1974   6.679   3.785   4.712 -0.5406 -0.9106  0.3573
    3MOL   C491 1975   6.752   3.908   4.655  0.5026 -0.7008  0.2685
    3MOL   C492 1976   6.887   3.927   4.708  0.2605  0.3443  0.1389
    3MOL   C493 1977   6.961   4.036   4.627  0.1790 -0.0524 -0.0139
    3MOL   C494 1978   7.104   4.063   4.687  0.4840 -0.6798 -0.3765
    3MOL   C495 1979   7.154   4.201   4.639  0.0112  0.0380  0.1624
    3MOL   N496 1980   7.267   4.240   4.720 -0.1589 -0.1102 -0.0571
    3MOL   H497 1981   6.282   3.318   4.687  0.4337 -0.8010  1.1095
    3MOL   H498 1982   6.421   3.355   4.767  0.6917  1.2000  2.8063
    3MOL   H499 1983   6.153   3.497   4.754 -0.9013  1.0896  0.5851
    3MOL   H500 1984   6.246   3.550   4.890 -2.8398 -1.0964  0.1466
    3MOL   H501 1985   6.275   3.686   4.704 -0.4815 -0.5945  0.8170
    3MOL   H502 1986   6.324   3.562   4.597 -0.7465 -0.0386  0.0518
    3MOL   H503 1987   6.469   3.643   4.863 -1.0983 -1.4262  0.9668
    3MOL   H504 1988   6.545   3.550   4.750 -0.6719  0.7328  2.8398
    3MOL   H505 1989   6.472   3.849   4.695  0.4257 -0.1406  1.4148
    3MOL   H506 1990   6.521   3.743   4.575 -0.4734  2.6113 -0.5576
    3MOL   H507 1991   6.747   3.708   4.675  0.1531  0.0834 -0.4298
    3MOL   H508 1992   6.694   3.781   4.820  3.9419  0.3656 -0.1358
    3MOL   H509 1993   6.695   3.998   4.679  1.7944  0.0289  0.6593
    3MOL   H510 1994   6.754   3.903   4.547 -3.2392 -0.6124  0.0971
    3MOL   H511 1995   6.946   3.838   4.688  1.4045  1.0195  0.4589
    3MOL   H512 1996   6.873   3.931   4.816  1.1065 -1.7493  0.3354
    3MOL   H513 1997   6.898   4.124   4.640 -0.2832 -0.4411  0.4069
    3MOL   H514 1998   6.977   4.019   4.521  2.3012 -1.3912  0.4939
    3MOL   H515 1999   7.172   3.981   4.664 -0.4589 -1.3929 -0.6306
    3MOL   H516 2000   7.097   4.076   4.795  1.1605 -1.8258 -0.1910
    3MOL   H517 2001   7.073   4.273   4.645 -0.1788  0.0119 -1.6532
    3MOL   H518 2002   7.190   4.192   4.536  1.0713 -0.4270  0.5635
    3MOL   H519 2003   7.354   4.190   4.717  0.1842  0.5396 -1.7900
    3MOL   C520 2004   7.266   4.343   4.809 -0.4508 -0.3700 -0.0894
    3MOL   O521 2005   7.169   4.414   4.827  0.0381 -0.0464  0.0643
    3MOL   C522 2006   7.399   4.351   4.888 -0.2816  0.2306 -0.0168
    3MOL   C523 2007   7.401   4.456   5.001 -0.8166  0.3940 -0.8243
    3MOL   C524 2008   7.426   4.599   4.954  0.6682 -0.0740 -0.0259
    3MOL   C525 2009   7.424   4.690   5.074  0.2798  0.9714  0.2266
    3MOL   C526 2010   7.462   4.839   5.042 -0.3440  0.7156  0.0024
    3MOL   C527 2011   7.618   4.863   5.032  0.1369 -0.4880 -0.4087
    3MOL   C528 2012   7.690   4.824   4.904  0.6254 -0.4344 -0.8700
    3MOL   C529 2013   7.640   4.900   4.775  0.3707  0.6164  0.0838
    3MOL   C530 2014   0.043   4.907   4.648 -0.6845  0.3646  0.3509
    3MOL   C531 2015   7.686   5.014   4.540  0.4108  0.1580 -0.5526
    3MOL   C532 2016   0.081   5.036   4.410 -0.2227 -0.3514 -0.3225
    3MOL   N533 2017   0.102   4.921   4.332 -0.3699  0.3355 -0.6719
    3MOL   H534 2018   7.487   4.355   4.823  1.5343  0.8791  2.4152
    3MOL   H535 2019   7.409   4.250   4.928  0.2105  0.9479  1.7228
    3MOL   H536 2020   7.317   4.439   5.069  0.4188 -5.0108 -0.4063
    3MOL   H537 2021   7.485   4.440   5.069 -1.3297  1.5872  0.1195
    3MOL   H538 2022   7.357   4.636   4.880  0.5191  1.1157  0.6987
    3MOL   H539 2023   7.527   4.601   4.912  0.0709  1.7324 -1.4301
    3MOL   H540 2024   7.320   4.675   5.103  0.3773 -1.7901 -0.7912
    3MOL   H541 2025   7.495   4.658   5.150  0.7343 -4.0704 -2.1619
    3MOL   H542 2026   7.433   4.901   5.127 -2.2510 -0.3096  0.1366
    3MOL   H543 2027   7.410   4.873   4.952  2.2029 -0.0927 -1.8570
    3MOL   H544 2028   7.665   4.805   5.111 -2.3280 -1.8689  0.1079
    3MOL   H545 2029   7.631   4.969   5.053  0.3686 -0.7672  0.9008
    3MOL   H546 2030   0.011   4.717   4.890  1.0529 -0.3955 -0.7332
    3MOL   H547 2031   0.100   4.857   4.918  0.7247 -0.8092 -0.6995
    3MOL   H548 2032   7.584   4.991   4.796 -0.6642  0.1180 -0.4296
    3MOL   H549 2033   7.555   4.834   4.752 -0.2444  0.5592  2.3977
    3MOL   H550 2034   0.053   4.818   4.586 -1.2299 -0.6261  1.6523
    3MOL   H551 2035   0.145   4.925   4.682 -0.4758  2.5140 -1.2741
    3MOL   H552 2036   7.679   5.108   4.594 -2.1544  0.2826 -1.0753
    3MOL   H553 2037   7.587   4.989   4.502 -0.3072  1.3468  0.5243
    3MOL   H554 2038   0.180   5.079   4.426 -0.1804 -0.5676  0.0016
    3MOL   H555 2039   0.031   5.118   4.359 -0.1460 -0.0282  0.1126
    3MOL   H556 2040   0.187   4.867   4.339 -0.2342  0.3546 -2.0387
    3MOL   C557 2041   0.030   4.875   4.228 -0.1709 -0.0076 -0.1963
    3MOL   O558 2042   7.613   4.922   4.208 -0.1019 -0.1418  0.2154
    3MOL   C559 2043   0.083   4.753   4.151  0.2396 -0.3961  0.3122
    3MOL   C560 2044   7.691   4.625   4.189  0.3891 -0.3475  0.1223
    3MOL   C561 2045   0.034   4.497   4.096  0.5561 -0.1764 -0.6113
    3MOL   C562 2046   0.160   4.419   4.146 -0.3433 -1.0588 -0.4588
    3MOL   C563 2047   0.180   4.285   4.074 -0.7617 -0.3268 -0.3463
    3MOL   C564 2048   0.275   4.183   4.139  0.0777  0.3759  0.0891
    3MOL   C565 2049   0.263   4.161   4.292 -0.7880 -0.0400  0.1608
    3MOL   C566 2050   0.373   4.078   4.362 -0.2106 -0.0612 -0.0954
    3MOL   C567 2051   0.351   4.088   4.512 -0.0283 -0.1449  0.0307
    3MOL   C568 2052   0.423   3.989   4.602 -0.2620  0.1927  0.1238
    3MOL   C569 2053   0.390   4.015   4.751 -0.7035 -0.4440 -0.4086
    3MOL   N570 2054   0.428   4.153   4.794 -0.3055  0.1368  0.4764
    3MOL   H571 2055   0.190   4.732   4.149 -0.3325 -3.6407  0.4935
    3MOL   H572 2056   0.060   4.777   4.047 -0.2446  2.4179  1.0201
    3MOL   H573 2057   0.025   4.603   4.292  1.7078  1.9215  0.2912
    3MOL   H574 2058   7.584   4.646   4.178  0.6743  1.0015 -0.2247
    3MOL   H575 2059   0.050   4.529   3.992 -0.9322  2.3447 -0.1115
    3MOL   H576 2060   7.643   4.429   4.097 -1.6630  2.5351  1.4679
    3MOL   H577 2061   0.248   4.483   4.144 -0.4588 -0.9391 -2.9299
    3MOL   H578 2062   0.138   4.403   4.251 -0.6733 -0.7912 -0.4836
    3MOL   H579 2063   0.227   4.317   3.982  1.7222 -2.3406  0.1841
    3MOL   H580 2064   0.084   4.238   4.050 -1.0755  1.1151 -2.0343
    3MOL   H581 2065   0.377   4.220   4.125 -1.4243  3.0353 -5.1133
    3MOL   H582 2066   0.261   4.083   4.099 -0.7841  0.3428  0.4663
    3MOL   H583 2067   0.160   4.127   4.309 -1.3073  1.3528 -0.1134
    3MOL   H584 2068   0.279   4.262   4.331  2.1212 -0.0559 -0.8851
    3MOL   H585 2069   0.468   4.120   4.329 -1.1154 -0.7717 -3.8367
    3MOL   H586 2070   0.360   3.973   4.335  1.7690 -0.2455 -0.3340
    3MOL   H587 2071   0.245   4.098   4.535 -0.8072 -2.3297 -2.3824
    3MOL   H588 2072   0.380   4.190   4.539 -1.5851  0.1054  0.8477
    3MOL   H589 2073   0.530   4.003   4.590 -0.1454 -1.3448 -0.8542
    3MOL   H590 2074   0.401   3.883   4.584  2.3969 -0.5040  0.7400
    3MOL   H591 2075   0.433   3.942   4.819 -1.8753 -0.6401  0.1457
    3MOL   H592 2076   0.288   3.996   4.785 -0.7890  0.7340  0.0189
    3MOL   H593 2077   0.367   4.228   4.768  0.2410  0.4335  0.0317
    3MOL   C594 2078   0.540   4.166   4.871 -0.1010  0.1164  1.3436
    3MOL   O595 2079   0.612   4.081   4.908 -0.4360  0.5495 -0.0703
    3MOL   C596 2080   0.580   4.314   4.896 -0.4808  0.2051 -0.2360
    3MOL   C597 2081   0.713   4.360   4.811  0.6744  0.6077  0.3823
    3MOL   C598 2082   0.702   4.361   4.655 -0.0364  0.6658  0.2679
    3MOL   C599 2083   0.831   4.382   4.580  0.4096  0.8076  0.1804
    3MOL   C600 2084   0.815   4.404   4.426  0.2094  0.2185  1.0238
    3MOL   C601 2085   0.798   4.275   4.352 -0.0428 -0.2782  0.3704
    3MOL   C602 2086   0.778   4.308   4.199 -0.2772  0.0221  0.2520
    3MOL   C603 2087   0.799   4.194   4.099 -0.4838  0.1279  0.1402
    3MOL   C604 2088   0.788   4.230   3.951 -0.0120 -0.1897 -0.4105
    3MOL   C605 2089   0.769   4.113   3.857 -0.8791  0.3400 -0.0106
    3MOL   C606 2090   0.769   4.150   3.713  0.2010 -1.0745 -0.7374
    3MOL   N607 2091   0.766   4.040   3.626 -0.4465 -0.4222  0.9078
    3MOL   H608 2092   0.600   4.321   5.003  2.8813  0.6187 -0.8570
    3MOL   H609 2093   0.492   4.374   4.872 -0.1361  0.5548 -0.6247
    3MOL   H610 2094   0.750   4.456   4.847  1.5247  1.4538 -2.6116
    3MOL   H611 2095   0.797   4.293   4.830 -0.4173 -0.5472  1.2530
    3MOL   H612 2096   0.639   4.438   4.608  0.5319  0.8193 -0.2520
    3MOL   H613 2097   0.655   4.267   4.626 -0.2678  0.7681  0.3113
    3MOL   H614 2098   0.877   4.470   4.625  2.4931  1.6640 -3.4857
    3MOL   H615 2099   0.904   4.303   4.598  0.1822  0.9025  1.6339
    3MOL   H616 2100   0.898   4.461   4.386  0.4355 -1.6042 -1.2420
    3MOL   H617 2101   0.732   4.475   4.420  0.7533  0.9052  1.5703
    3MOL   H618 2102   0.709   4.224   4.387  0.4321 -2.0822 -0.9585
    3MOL   H619 2103   0.885   4.210   4.366  1.1107  0.3761 -3.1904
    3MOL   H620 2104   0.845   4.391   4.176  1.7910 -1.8395 -0.6421
    3MOL   H621 2105   0.681   4.355   4.187  0.9472  3.1375  1.9870
    3MOL   H622 2106   0.744   4.103   4.120 -1.5658  0.7525  0.0727
    3MOL   H623 2107   0.902   4.167   4.121  0.0897  0.5253 -1.9784
    3MOL   H624 2108   0.877   4.283   3.916  0.4549 -2.4035 -2.6756
    3MOL   H625 2109   0.712   4.306   3.929 -0.3529 -0.9039 -1.7546
    3MOL   H626 2110   0.669   4.075   3.878  0.2305 -1.1374  2.8327
    3MOL   H627 2111   0.843   4.037   3.884 -0.4603  0.9039  0.4341
    3MOL   H628 2112   0.862   4.205   3.699  0.4830 -1.8154 -1.9165
    3MOL   H629 2113   0.689   4.222   3.698  2.4993  1.7784  0.3371
    3MOL   H630 2114   0.780   3.949   3.667 -0.4862 -0.5826  0.5690
    3MOL   C631 2115   0.727   4.049   3.496  0.3674  1.0374  0.0508
    3MOL   O632 2116   0.709   4.158   3.445 -0.1518  0.1650 -0.0060
    3MOL   C633 2117   0.720   3.927   3.407 -0.6096  0.7203 -0.3026
    3MOL   C634 2118   0.864   3.877   3.381  0.1472 -0.0908 -0.7469
    3MOL   C635 2119   0.889   3.733   3.327  0.0024  0.7280  0.0895
    3MOL   C636 2120   1.039   3.694   3.319 -0.5572  0.5295  0.2213
    3MOL   C637 2121   1.067   3.570   3.222  0.0938 -0.7270  0.2595
    3MOL   C638 2122   1.213   3.529   3.215 -0.1189 -0.0674 -0.3384
    3MOL   C639 2123   1.246   3.410   3.119 -0.6726  0.1174 -0.0518
    3MOL   C640 2124   1.394   3.371   3.087  0.0259  0.6108 -0.5540
    3MOL   C641 2125   1.468   3.377   3.226 -0.6739 -0.0611  0.1927
    3MOL   C642 2126   1.610   3.310   3.225  0.5106 -0.4489 -0.6809
    3MOL   C643 2127   1.713   3.359   3.330  0.0759 -0.1246 -0.1556
    3MOL   N644 2128   1.817   3.257   3.349  0.1692 -0.6479 -1.4149
    3MOL   H645 2129   0.664   3.958   3.319  2.6959  2.8414 -1.7525
    3MOL   H646 2130   0.654   3.855   3.456 -0.3742  0.3469 -0.5296
    3MOL   H647 2131   0.914   3.950   3.317  0.1975 -0.5378 -1.2239
    3MOL   H648 2132   0.915   3.884   3.476 -1.7694  0.8782  0.2438
    3MOL   H649 2133   0.853   3.732   3.224 -2.2500 -1.0710  0.8591
    3MOL   H650 2134   0.835   3.670   3.397  1.7235 -1.9616 -0.9088
    3MOL   H651 2135   1.078   3.782   3.267 -1.6663 -1.1744 -3.6895
    3MOL   H652 2136   1.086   3.690   3.417  1.2187  0.0644 -0.6269
    3MOL   H653 2137   1.028   3.600   3.124 -1.0914 -1.9348  0.3411
    3MOL   H654 2138   1.013   3.477   3.239 -0.6268 -0.3933 -0.1505
    3MOL   H655 2139   1.257   3.510   3.313  0.8166 -0.9453 -0.9196
    3MOL   H656 2140   1.273   3.613   3.179  0.0019 -0.6438 -1.5229
    3MOL   H657 2141   1.194   3.424   3.024  2.2744  0.0379 -1.7304
    3MOL   H658 2142   1.196   3.325   3.166 -0.9055  0.6944  0.7696
    3MOL   H659 2143   1.455   3.434   3.023  0.0237  0.2590 -0.9032
    3MOL   H660 2144   1.396   3.267   3.053 -1.3118 -0.5307  2.6585
    3MOL   H661 2145   1.424   3.314   3.303 -0.4399 -1.6766 -0.9546
    3MOL   H662 2146   1.468   3.484   3.246 -0.1256  0.4063 -2.1604
    3MOL   H663 2147   1.656   3.331   3.128 -0.8884 -0.6842 -1.3959
    3MOL   H664 2148   1.595   3.203   3.231  0.4880 -0.3738  0.9382
    3MOL   H665 2149   1.670   3.389   3.425  0.5538 -0.3361  0.1277
    3MOL   H666 2150   1.767   3.445   3.290 -0.0407  0.8041  1.6309
    3MOL   H667 2151   1.814   3.196   3.430 -2.4631  1.3834  0.0839
    3MOL   C668 2152   1.913   3.233   3.259 -0.3347  0.3482  0.6440
    3MOL   O669 2153   1.922   3.293   3.153  0.4619 -0.4167  0.3737
    3MOL   C670 2154   2.013   3.110   3.289  0.8171  0.4431 -0.2805
    3MOL   C671 2155   1.956   3.018   3.405 -0.1679  0.1926  0.4686
    3MOL   C672 2156   1.833   2.931   3.360  0.4846 -0.0307 -0.1650
    3MOL   C673 2157   1.787   2.832   3.463  1.0903  0.1860 -0.6410
    3MOL   C674 2158   1.693   2.732   3.390  1.1718  0.1408  0.2139
    3MOL   C675 2159   1.564   2.789   3.327 -0.1449  0.1811 -0.6493
    3MOL   C676 2160   1.480   2.871   3.428 -0.3823  0.2047  0.1391
    3MOL   C677 2161   1.330   2.899   3.381 -0.2395  0.0432 -0.1966
    3MOL   C678 2162   1.317   2.951   3.241 -0.2726 -0.1418 -0.0549
    3MOL   C679 2163   1.289   2.838   3.141 -0.0995 -0.5468 -0.2443
    3MOL   C680 2164   1.269   2.889   2.993  0.5394 -0.2348  0.1863
    3MOL   N681 2165   1.253   2.794   2.890 -0.0041  0.1448  0.1961
    3MOL   H682 2166   2.115   3.144   3.303  0.1510  1.5373  2.2485
    3MOL   H683 2167   2.007   3.062   3.192 -1.5374  0.9222 -0.4231
    3MOL   H684 2168   2.037   2.947   3.425 -0.8544 -0.4513  0.9868
    3MOL   H685 2169   1.936   3.057   3.505 -1.6289 -0.2757  0.3761
    3MOL   H686 2170   1.856   2.872   3.271 -0.0815  0.8355 -0.8924
    3MOL   H687 2171   1.748   2.990   3.326  0.5552  0.2154  0.0797
    3MOL   H688 2172   1.872   2.768   3.490 -0.9935 -2.0043  0.9195
    3MOL   H689 2173   1.743   2.875   3.553  0.0671 -0.0625 -1.0132
    3MOL   H690 2174   1.658   2.670   3.473  0.5707 -1.2333 -1.0289
    3MOL   H691 2175   1.744   2.672   3.315  1.5234 -1.2131  1.4889
    3MOL   H692 2176   1.506   2.699   3.306  0.7099 -0.3291 -0.8617
    3MOL   H693 2177   1.602   2.838   3.237  1.6614  0.7534  0.4006
    3MOL   H694 2178   1.533   2.966   3.436  0.4346 -0.3381  1.2168
    3MOL   H695 2179   1.474   2.815   3.521 -2.2544 -2.0929 -1.3119
    3MOL   H696 2180   1.273   2.956   3.455 -1.0628 -1.7633  0.5816
    3MOL   H697 2181   1.283   2.801   3.391 -1.6240  0.8179  1.1375
    3MOL   H698 2182   1.409   3.001   3.211  0.0553  0.4640  1.9126
    3MOL   H699 2183   1.240   3.028   3.249  0.6373  0.6206  1.7066
    3MOL   H700 2184   1.201   2.780   3.169 -1.6182  0.2650 -3.0897
    3MOL   H701 2185   1.375   2.770   3.144 -0.3771 -0.9207 -0.5399
    3MOL   H702 2186   1.357   2.946   2.965  1.0880 -1.3621 -0.4316
    3MOL   H703 2187   1.181   2.953   2.988  1.2003  0.5018 -2.3064
    3MOL   H704 2188   1.326   2.792   2.820  1.7163 -1.4318  1.9810
    3MOL   C705 2189   1.159   2.699   2.877 -0.1240  0.3702  1.0359
    3MOL   O706 2190   1.060   2.691   2.956 -0.5166 -0.6634 -0.1779
    3MOL   C707 2191   1.179   2.596   2.765 -0.0038  0.2253 -0.0044
    3MOL   C708 2192   1.099   2.643   2.634 -0.1198  0.4371 -0.2449
    3MOL   C709 2193   1.166   2.753   2.546 -0.2555  0.0986  0.0552
    3MOL   C710 2194   1.084   2.796   2.425 -0.1985 -0.2063  0.3261
    3MOL   C711 2195   1.154   2.893   2.328  0.5639  0.0582  0.1350
    3MOL   C712 2196   1.062   2.929   2.211  0.3238  0.2843  0.0209
    3MOL   C713 2197   1.090   3.065   2.148 -0.0722 -0.2641  0.2161
    3MOL   C714 2198   1.027   3.183   2.227 -0.2323  1.4520  0.4097
    3MOL   C715 2199   1.025   3.307   2.143 -0.1812 -0.2375  0.0248
    3MOL   C716 2200   0.963   3.428   2.209  0.0436  0.4112  0.1938
    3MOL   C717 2201   0.967   3.556   2.122  0.8971 -0.0827  0.0825
    3MOL   N718 2202   0.915   3.662   2.202  0.1235 -0.1184 -0.3494
    3MOL   H719 2203   1.137   2.507   2.811  0.2512  0.5026  0.7691
    3MOL   H720 2204   1.286   2.590   2.745 -0.2895  0.6556 -1.7518
    3MOL   H721 2205   1.092   2.554   2.571 -0.7553 -1.3024  2.1785
    3MOL   H722 2206   1.001   2.685   2.656  0.5120  1.0706  1.4730
    3MOL   H723 2207   1.263   2.708   2.526 -0.8037 -2.4799  2.8153
    3MOL   H724 2208   1.189   2.841   2.606  2.2268 -0.5124  0.0541
    3MOL   H725 2209   1.065   2.710   2.360 -2.9007  0.0917  0.6654
    3MOL   H726 2210   0.990   2.844   2.452  1.1094  2.1449  0.7950
    3MOL   H727 2211   1.246   2.852   2.286 -0.2329  0.3148 -1.9167
    3MOL   H728 2212   1.194   2.981   2.379 -0.1915  0.1791  0.5243
    3MOL   H729 2213   0.958   2.925   2.244 -1.2005 -1.8121 -4.5907
    3MOL   H730 2214   1.083   2.851   2.138  1.4043  0.1751  0.4309
    3MOL   H731 2215   1.044   3.062   2.049 -1.7832 -0.4702  1.0041
    3MOL   H732 2216   1.197   3.077   2.133 -0.4775  0.7135 -2.1801
    3MOL   H733 2217   1.085   3.210   2.315  1.2030 -0.4154  0.0668
    3MOL   H734 2218   0.931   3.152   2.268  0.6002 -0.6175  0.8343
    3MOL   H735 2219   0.982   3.287   2.045 -1.2931  0.8605  0.2723
    3MOL   H736 2220   1.129   3.329   2.120 -0.0223  1.3282  2.1214
    3MOL   H737 2221   1.014   3.449   2.303 -0.0384  0.9477  0.1191
    3MOL   H738 2222   0.861   3.404   2.239  0.2769 -3.3053 -1.6397
    3MOL   H739 2223   0.927   3.550   2.021  2.1515  1.3795 -0.5243
    3MOL   H740 2224   1.069   3.584   2.096  0.3925  2.0385  0.2740
    3MOL   H741 2225   0.979   3.659   2.281  2.0489 -2.3944 -1.9182
    3MOL   H742 2226   0.823   3.631   2.232  1.7102 -2.4723  2.3701
    4MOL     C1 2227   6.952   3.171   5.671 -0.2885  0.0640 -0.1661
    4MOL     O2 2228   7.018   3.122   5.577 -0.1466  0.4443 -0.0941
    4MOL     C3 2229   6.797   3.156   5.671  0.2418 -0.5545 -0.5226
    4MOL     C4 2230   6.749   3.030   5.602 -0.5613 -0.4514 -0.4566
    4MOL     C5 2231   6.769   2.904   5.689  0.1896  0.2763 -0.2425
    4MOL     C6 2232   6.684   2.900   5.822  0.4283  0.1763 -0.2093
    4MOL     C7 2233   6.780   2.845   5.933  0.3109  0.5238  0.6574
    4MOL     C8 2234   6.877   2.948   5.981 -0.4074 -0.5446  0.3646
    4MOL     C9 2235   6.977   2.886   6.085  0.2126 -0.3794 -0.2278
    4MOL    C10 2236   7.067   2.993   6.151  0.3293 -0.5079  0.2269
    4MOL    C11 2237   7.149   2.933   6.267 -0.2280 -0.8406  0.2361
    4MOL    C12 2238   7.252   3.036   6.317  0.6265 -0.2205 -0.8059
    4MOL    C13 2239   7.339   2.969   6.427  0.2778  0.1763  0.3541
    4MOL    N14 2240   7.448   3.054   6.471  0.0916  0.6549  0.0402
    4MOL    H15 2241   6.768   3.244   5.614  2.0510 -1.2619 -2.6155
    4MOL    H16 2242   6.759   3.150   5.773  1.2740  2.5689  0.1022
    4MOL    H17 2243   6.640   3.036   5.598 -0.5671  1.5243  1.4255
    4MOL    H18 2244   6.793   3.031   5.503 -0.4272  1.7147 -0.4052
    4MOL    H19 2245   6.874   2.882   5.705 -0.1030 -1.0375 -0.0524
    4MOL    H20 2246   6.738   2.821   5.625 -1.1240  0.9484 -0.5019
    4MOL    H21 2247   6.631   2.991   5.851 -0.0907 -0.5851  1.2772
    4MOL    H22 2248   6.595   2.837   5.817 -0.7789  1.9022 -1.0352
    4MOL    H23 2249   6.819   2.754   5.887 -1.0260 -0.2985  1.1280
    4MOL    H24 2250   6.718   2.811   6.016  1.0681 -2.0504  0.2114
    4MOL    H25 2251   6.824   3.026   6.037  2.3466 -0.4171  2.8717
    4MOL    H26 2252   6.932   2.989   5.896 -0.5646 -1.1267 -0.0183
    4MOL    H27 2253   7.038   2.802   6.051  2.4908 -0.0663  2.8435
    4MOL    H28 2254   6.916   2.842   6.164  1.3681 -1.3991  0.1169
    4MOL    H29 2255   7.004   3.075   6.187 -2.3547 -2.9462  1.3281
    4MOL    H30 2256   7.128   3.039   6.074 -1.1483  0.7733 -0.2159
    4MOL    H31 2257   7.205   2.849   6.228 -0.6802 -1.3267  0.6179
    4MOL    H32 2258   7.090   2.893   6.349 -1.8742 -2.9594 -1.9031
    4MOL    H33 2259   7.210   3.130   6.354  0.9694 -0.3058 -0.1824
    4MOL    H34 2260   7.313   3.066   6.232  1.6072  0.4527  0.1104
    4MOL    H35 2261   7.381   2.873   6.395  0.4210  0.3054  0.1544
    4MOL    H36 2262   7.279   2.941   6.513  1.0539 -1.8014  0.2831
    4MOL    H37 2263   7.452   3.146   6.430  1.7775  0.0123 -1.3006
    4MOL    H38 2264   6.989   3.228   5.756 -0.6336 -1.2576  0.8934
    4MOL    C39 2265   7.530   3.037   6.570  0.2002 -0.6425 -0.1232
    4MOL    O40 2266   7.530   2.929   6.634 -0.9506 -0.4816 -0.3465
    4MOL    C41 2267   7.610   3.156   6.622 -0.1767  0.5439 -0.2686
    4MOL    C42 2268   0.071   3.125   6.581  0.2979  0.4251  0.7025
    4MOL    C43 2269   0.167   3.230   6.627 -0.6464  0.2039 -0.3407
    4MOL    C44 2270   0.311   3.212   6.569 -0.0369 -0.3307 -0.1124
    4MOL    C45 2271   0.376   3.079   6.615 -0.7429  0.1979  0.1791
    4MOL    C46 2272   0.440   3.087   6.755 -0.1935 -0.4284 -0.5456
    4MOL    C47 2273   0.507   2.957   6.810  0.2400  0.3866  0.0870
    4MOL    C48 2274   0.414   2.836   6.841 -0.2109 -0.6070  0.5574
    4MOL    C49 2275   0.463   2.729   6.942 -0.2224  0.2606  0.0925
    4MOL    C50 2276   0.506   2.766   7.087  0.3970 -0.4584  0.2687
    4MOL    C51 2277   0.408   2.864   7.157 -0.0220 -0.1368 -0.2359
    4MOL    N52 2278   0.456   2.880   7.293  0.1786  0.0716 -0.1461
    4MOL    H53 2279   7.597   3.158   6.730 -0.8684 -0.4561 -0.3306
    4MOL    H54 2280   7.578   3.252   6.583 -0.2018  0.1416 -1.2490
    4MOL    H55 2281   0.093   3.035   6.638  1.2946 -0.5546 -1.1738
    4MOL    H56 2282   0.079   3.115   6.472 -0.6502  1.2913  0.5506
    4MOL    H57 2283   0.174   3.230   6.736 -0.3518  1.1463 -0.3553
    4MOL    H58 2284   0.135   3.328   6.594 -1.8023 -0.7757 -2.2016
    4MOL    H59 2285   0.296   3.187   6.464 -0.4603 -1.2643  0.1582
    4MOL    H60 2286   0.364   3.306   6.578 -1.3764  0.5950 -1.6951
    4MOL    H61 2287   0.455   3.050   6.545  0.7195 -0.9195  2.2413
    4MOL    H62 2288   0.304   2.998   6.602  1.2342 -1.2826 -2.1106
    4MOL    H63 2289   0.365   3.124   6.825 -0.0982  1.3474 -1.3472
    4MOL    H64 2290   0.514   3.166   6.753  0.2494 -0.8528 -1.1355
    4MOL    H65 2291   0.566   2.981   6.899  1.5877 -0.5279 -0.5473
    4MOL    H66 2292   0.585   2.916   6.747  0.9952  0.9623  0.6289
    4MOL    H67 2293   0.377   2.789   6.749  0.1249  2.7012 -1.3576
    4MOL    H68 2294   0.327   2.883   6.886  0.2559  1.5189 -0.6512
    4MOL    H69 2295   0.550   2.678   6.900  0.1887  0.8218  0.2550
    4MOL    H70 2296   0.403   2.639   6.954  0.6413 -0.3136  0.1087
    4MOL    H71 2297   0.601   2.817   7.076 -1.0636  2.2115 -0.4387
    4MOL    H72 2298   0.519   2.676   7.148  1.2900 -1.3676 -1.2445
    4MOL    H73 2299   0.305   2.829   7.156 -0.0365 -0.0903 -0.3577
    4MOL    H74 2300   0.412   2.961   7.107  1.5723 -0.2328 -0.3253
    4MOL    H75 2301   0.548   2.917   7.310  0.0116 -0.0453  1.0882
    4MOL    C76 2302   0.386   2.855   7.408  0.1070  0.1650  0.4518
    4MOL    O77 2303   0.273   2.813   7.410  0.1788  0.6455  0.5473
    4MOL    C78 2304   0.452   2.901   7.540 -0.1853  0.2185  0.8985
    4MOL    C79 2305   0.503   2.786   7.630  0.2238 -0.1248  0.1662
    4MOL    C80 2306   0.633   2.729   7.580 -0.3290  0.4825 -0.3422
    4MOL    C81 2307   0.719   2.665   0.004  0.4840  0.1001  0.2994
    4MOL    C82 2308   0.846   2.589   7.655 -0.3278  0.3225  0.3232
    4MOL    C83 2309   0.910   2.500   0.075 -0.2802  0.5991 -0.3684
    4MOL    C84 2310   0.975   2.579   0.188 -0.1564  0.3118 -0.3807
    4MOL    C85 2311   1.098   2.509   0.250  0.4629  0.3793  0.2757
    4MOL    C86 2312   1.154   2.575   0.372  0.4947  0.5992 -0.2328
    4MOL    C87 2313   1.250   2.484   0.449 -0.1015 -0.0485  0.2042
    4MOL    C88 2314   1.203   2.342   0.508  0.0186 -0.3117 -0.5795
    4MOL    N89 2315   1.109   2.373   0.615 -0.3594 -0.5823  0.3914
    4MOL    H90 2316   0.384   2.968   7.592 -0.6748  0.8679 -0.5479
    4MOL    H91 2317   0.528   2.976   7.519 -0.5413  0.7701  1.5728
    4MOL    H92 2318   0.510   2.818   0.040 -1.1436  0.1817  0.1825
    4MOL    H93 2319   0.419   2.717   7.633 -0.6633  0.9427  0.3339
    4MOL    H94 2320   0.689   2.804   7.525  2.2537  0.5623  2.3102
    4MOL    H95 2321   0.613   2.645   7.514 -0.4158 -0.2825  0.6373
    4MOL    H96 2322   0.748   2.743   0.074  0.2845  1.2535 -0.8823
    4MOL    H97 2323   0.652   2.590   0.046 -0.0700  2.2501  3.4713
    4MOL    H98 2324   0.923   2.663   7.634 -0.2684  0.0546 -0.4309
    4MOL    H99 2325   0.840   2.536   7.560 -1.0900 -0.2149  0.6628
    4MOL   H100 2326   0.992   2.446   0.026 -1.4038 -0.1164 -1.4817
    4MOL   H101 2327   0.833   2.430   0.104  0.5114 -0.9155 -1.8335
    4MOL   H102 2328   0.899   2.604   0.263 -0.3862  0.4076 -0.6473
    4MOL   H103 2329   1.000   2.682   0.162  1.2731  0.1508  0.2659
    4MOL   H104 2330   1.183   2.497   0.184 -0.0642 -1.6250 -0.0820
    4MOL   H105 2331   1.065   2.406   0.270  1.9284 -0.1637 -0.0760
    4MOL   H106 2332   1.071   2.598   0.440 -0.2667 -2.6256  0.0373
    4MOL   H107 2333   1.195   2.672   0.346  2.0777 -0.0629 -0.2839
    4MOL   H108 2334   1.287   2.547   0.530  0.3164  0.8191 -0.6493
    4MOL   H109 2335   1.331   2.459   0.382 -1.5897 -2.5430 -0.7088
    4MOL   H110 2336   1.295   2.304   0.554  1.3293 -0.1208 -2.9879
    4MOL   H111 2337   1.164   2.273   0.433  1.1851 -1.7015  0.0427
    4MOL   H112 2338   1.126   2.458   0.667  0.6248 -0.6009  0.1168
    4MOL   C113 2339   0.992   2.313   0.632  0.1469 -0.6158  0.0082
    4MOL   O114 2340   0.967   2.210   0.570  0.4824 -0.0209 -0.0658
    4MOL   C115 2341   0.909   2.349   0.753  0.8964 -0.2124  0.2534
    4MOL   C116 2342   0.765   2.370   0.722  0.3195 -0.2791  0.5653
    4MOL   C117 2343   0.723   2.512   0.676  0.4290 -0.1704 -0.5511
    4MOL   C118 2344   0.737   2.625   0.774  0.8894 -0.8209 -0.7554
    4MOL   C119 2345   0.666   2.612   0.909 -0.2440 -0.4912 -0.0877
    4MOL   C120 2346   0.721   2.716   1.010  0.2757  0.2056  0.2193
    4MOL   C121 2347   0.639   2.735   1.140  0.3405  0.2183 -0.6541
    4MOL   C122 2348   0.689   2.847   1.233  0.2044  0.5245 -0.0801
    4MOL   C123 2349   0.614   2.861   1.363 -0.4487 -0.3199 -0.8718
    4MOL   C124 2350   0.648   2.986   1.446  0.6829  0.4793 -0.1582
    4MOL   C125 2351   0.533   3.018   1.543 -0.1784  0.0872  0.6595
    4MOL   N126 2352   0.579   3.136   1.612 -0.1220 -0.2821 -0.2957
    4MOL   H127 2353   0.943   2.447   0.788  0.1245  0.2203 -0.2061
    4MOL   H128 2354   0.934   2.279   0.832 -0.0851 -2.3383 -1.2709
    4MOL   H129 2355   0.724   2.293   0.657  1.1793  0.6745 -1.1335
    4MOL   H130 2356   0.701   2.350   0.808  0.4192 -0.8014  0.5198
    4MOL   H131 2357   0.618   2.510   0.648  0.8990 -0.0539 -2.3968
    4MOL   H132 2358   0.777   2.531   0.583  0.3207 -1.5133 -0.9070
    4MOL   H133 2359   0.840   2.650   0.801  0.7755 -2.2386  1.0791
    4MOL   H134 2360   0.708   2.722   0.734 -0.7623 -0.6943  0.6607
    4MOL   H135 2361   0.685   2.514   0.952 -1.1476  0.6423  3.0552
    4MOL   H136 2362   0.557   2.613   0.907 -0.2985 -2.7122  0.6845
    4MOL   H137 2363   0.722   2.810   0.956  0.2164  0.7290  1.1209
    4MOL   H138 2364   0.824   2.690   1.035 -0.0067  0.3022  1.5160
    4MOL   H139 2365   0.617   2.654   1.209 -2.1134  0.2085 -1.3815
    4MOL   H140 2366   0.536   2.763   1.118 -0.4291 -1.6414  0.4362
    4MOL   H141 2367   0.688   2.943   1.181 -0.2182  0.8302  0.5013
    4MOL   H142 2368   0.797   2.836   1.246 -0.0758  0.2673  2.1084
    4MOL   H143 2369   0.625   2.772   1.425 -2.1271 -0.3357 -0.5905
    4MOL   H144 2370   0.507   2.866   1.343 -0.8747 -1.0091  1.2020
    4MOL   H145 2371   0.651   3.059   1.366 -0.6295 -2.0614 -2.6177
    4MOL   H146 2372   0.744   2.976   1.498 -0.2836  1.9915  2.0175
    4MOL   H147 2373   0.517   2.939   1.617  1.2782 -0.9683 -0.1111
    4MOL   H148 2374   0.440   3.038   1.490  0.5950 -0.6419 -1.0171
    4MOL   H149 2375   0.676   3.161   1.598  0.2548 -1.6626 -0.1790
    4MOL   C150 2376   0.498   3.209   1.692 -0.3963  0.7841  0.2893
    4MOL   O151 2377   0.555   3.301   1.755 -1.0615 -0.0829 -0.7731
    4MOL   C152 2378   0.348   3.186   1.693 -0.5030  0.7406 -0.4192
    4MOL   C153 2379   0.266   3.236   1.807 -0.0871  0.1889 -0.5055
    4MOL   C154 2380   0.302   3.179   1.945 -0.1208 -0.1086  0.2071
    4MOL   C155 2381   0.281   3.032   1.960  0.2970 -0.0129 -0.3482
    4MOL   C156 2382   0.320   2.982   2.094 -0.0874  0.6673  0.3980
    4MOL   C157 2383   0.304   2.830   2.108  0.0995  0.4725  0.2938
    4MOL   C158 2384   0.304   2.757   2.240  0.2070  0.2722  0.0737
    4MOL   C159 2385   0.298   2.604   2.225  0.2968 -0.4162  0.1597
    4MOL   C160 2386   0.299   2.527   2.359 -0.3223 -0.2478 -0.1936
    4MOL   C161 2387   0.326   2.377   2.353 -0.3790 -0.4151 -0.3017
    4MOL   C162 2388   0.317   2.318   2.494  0.7214 -0.8098  0.0245
    4MOL   N163 2389   0.368   2.178   2.486  0.2976 -0.1484 -0.1093
    4MOL   H164 2390   0.333   3.078   1.687 -0.4902  0.6792  0.7112
    4MOL   H165 2391   0.314   3.216   1.593 -1.3549 -1.3225 -0.7659
    4MOL   H166 2392   0.274   3.344   1.808  2.8535  0.0054 -0.0614
    4MOL   H167 2393   0.162   3.213   1.782 -1.0770  1.2450  2.4012
    4MOL   H168 2394   0.240   3.232   2.017 -0.4589  0.8359 -0.7658
    4MOL   H169 2395   0.403   3.209   1.969  1.0702 -1.4282 -2.9225
    4MOL   H170 2396   0.177   3.007   1.938  0.6991 -1.1928 -0.9147
    4MOL   H171 2397   0.350   2.991   1.887 -0.7276  2.4050 -2.7746
    4MOL   H172 2398   0.263   3.036   2.170 -2.0561  0.8936 -1.2028
    4MOL   H173 2399   0.423   3.006   2.118  0.1381 -1.7125  2.0362
    4MOL   H174 2400   0.368   2.773   2.040 -0.4165 -0.8607  0.9057
    4MOL   H175 2401   0.212   2.801   2.057  1.5299  0.2904 -2.2943
    4MOL   H176 2402   0.220   2.795   2.297 -0.8268  1.6640 -2.3323
    4MOL   H177 2403   0.398   2.778   2.291  0.7828 -1.5916 -0.1657
    4MOL   H178 2404   0.385   2.563   2.174 -0.5153 -0.3606 -1.3157
    4MOL   H179 2405   0.216   2.576   2.158 -0.3474 -0.3984  0.9313
    4MOL   H180 2406   0.204   2.543   2.409  0.2088  1.5491  0.2973
    4MOL   H181 2407   0.359   2.582   2.432 -1.5643  0.3744  0.3764
    4MOL   H182 2408   0.424   2.362   2.308 -0.7161  0.9318 -1.5401
    4MOL   H183 2409   0.242   2.342   2.293 -1.2782  0.6767  0.2974
    4MOL   H184 2410   0.214   2.316   2.530 -0.5069 -0.6520 -3.3210
    4MOL   H185 2411   0.371   2.378   2.567 -0.9044 -0.9661  1.3889
    4MOL   H186 2412   0.447   2.146   2.540  0.8452  1.2150 -0.0928
    4MOL   C187 2413   0.304   2.075   2.430 -0.1748 -0.1591  0.0710
    4MOL   O188 2414   0.193   2.086   2.382  0.1296 -0.4167 -0.0419
    4MOL   C189 2415   0.379   1.946   2.428 -0.7989 -0.6715 -0.4273
    4MOL   C190 2416   0.307   1.831   2.365  0.1788 -0.4649 -0.7230
    4MOL   C191 2417   0.365   1.697   2.396 -0.6655  0.1821 -0.5089
    4MOL   C192 2418   0.253   1.589   2.396  0.6633  0.1158 -0.1168
    4MOL   C193 2419   0.219   1.553   2.257 -0.6690 -0.2645 -0.8672
    4MOL   C194 2420   0.138   1.424   2.257 -0.1976  0.0411 -0.0796
    4MOL   C195 2421   0.125   1.363   2.114  0.3046 -0.8699  0.3907
    4MOL   C196 2422   0.069   1.218   2.098 -0.8546  0.2399 -0.9807
    4MOL   C197 2423   0.156   1.103   2.152  0.2288  0.0717 -0.0743
    4MOL   C198 2424   0.291   1.072   2.089 -0.7898 -0.0783  0.4719
    4MOL   C199 2425   0.371   0.954   2.149 -0.2728 -0.1769 -0.3098
    4MOL   N200 2426   0.291   0.830   2.147  0.2762  0.1813 -0.0777
    4MOL   H201 2427   0.407   1.913   2.528  3.3328 -0.6692 -1.5026
    4MOL   H202 2428   0.466   1.959   2.363 -0.5522  0.1131  0.0529
    4MOL   H203 2429   0.205   1.827   2.404 -0.2878 -0.3245 -1.9195
    4MOL   H204 2430   0.293   1.843   2.258  0.8230 -1.0217 -0.8726
    4MOL   H205 2431   0.420   1.705   2.490 -1.8237 -0.1867  0.2079
    4MOL   H206 2432   0.447   1.678   2.327  0.7001 -0.9475  1.3771
    4MOL   H207 2433   0.288   1.498   2.445 -1.4457  0.0448  1.2811
    4MOL   H208 2434   0.172   1.617   2.462  0.4904  0.1700 -0.3534
    4MOL   H209 2435   0.317   1.518   2.223 -0.3807 -0.5675  0.2809
    4MOL   H210 2436   0.176   1.628   2.190  0.3519  0.3180 -0.8761
    4MOL   H211 2437   0.040   1.457   2.290 -0.8553 -0.8307 -1.1302
    4MOL   H212 2438   0.175   1.353   2.331 -1.8150  0.3630  1.0578
    4MOL   H213 2439   0.220   1.357   2.061 -0.1982 -2.6549 -0.3146
    4MOL   H214 2440   0.057   1.425   2.057  1.5908 -1.8222 -2.2291
    4MOL   H215 2441   0.056   1.188   1.994 -1.1517 -1.0522 -0.5903
    4MOL   H216 2442   7.662   1.216   2.141 -1.8437  1.8620 -3.1604
    4MOL   H217 2443   0.090   1.017   2.137  0.3315 -0.3646  1.7622
    4MOL   H218 2444   0.177   1.121   2.258 -2.1485  0.2696  0.4044
    4MOL   H219 2445   0.356   1.157   2.110 -1.6241  0.5185  0.6363
    4MOL   H220 2446   0.279   1.060   1.981  1.3129 -1.4860  0.3666
    4MOL   H221 2447   0.393   0.972   2.254  2.2258 -1.7687 -0.5234
    4MOL   H222 2448   0.469   0.942   2.103  0.4871  2.6022  0.5142
    4MOL   H223 2449   0.208   0.825   2.090 -0.5472  3.0405  0.8207
    4MOL   C224 2450   0.318   0.718   2.216  0.3726 -1.0837  0.0672
    4MOL   O225 2451   0.421   0.707   2.281 -0.1296  0.4562 -0.2768
    4MOL   C226 2452   0.223   0.596   2.201  0.3756 -0.3664 -0.0857
    4MOL   C227 2453   0.209   0.523   2.331 -0.4933  0.2571  0.2771
    4MOL   C228 2454   0.133   0.597   2.444 -0.8160  0.3849 -0.0451
    4MOL   C229 2455   0.134   0.514   2.565  0.4737 -0.1291  0.1413
    4MOL   C230 2456   0.070   0.583   2.686  0.0358  0.2902 -0.0726
    4MOL   C231 2457   0.079   0.504   2.812 -0.1912  0.0992 -0.1431
    4MOL   C232 2458   7.675   0.558   2.918  0.0423 -0.1613  0.1308
    4MOL   C233 2459   7.693   0.472   3.044 -0.6159 -0.1886  0.0438
    4MOL   C234 2460   7.597   0.507   3.160  0.2866  0.2796  0.5333
    4MOL   C235 2461   7.666   0.625   3.237 -0.7024  0.7338 -0.2402
    4MOL   C236 2462   0.073   0.579   3.345 -0.6445 -0.6014  0.3294
    4MOL   N237 2463   0.156   0.693   3.394  0.2916  0.9443 -0.1481
    4MOL   H238 2464   0.265   0.534   2.122  1.8552  0.0642  0.3478
    4MOL   H239 2465   0.125   0.624   2.162 -0.2359 -1.7194  0.4581
    4MOL   H240 2466   0.160   0.427   2.311 -0.8037  1.1375 -3.6768
    4MOL   H241 2467   0.298   0.478   2.375  0.5468  2.0293  0.0311
    4MOL   H242 2468   0.034   0.632   2.414 -0.6514  1.7195  0.9375
    4MOL   H243 2469   0.186   0.691   2.461 -0.2847 -0.1455  1.2674
    4MOL   H244 2470   0.090   0.415   2.552 -1.8736  0.9498 -0.4153
    4MOL   H245 2471   0.237   0.488   2.589  0.3037  1.4225  2.8225
    4MOL   H246 2472   7.660   0.611   2.667  1.0237  2.5686 -2.2613
    4MOL   H247 2473   0.122   0.679   2.691  1.3194 -0.4596  1.6984
    4MOL   H248 2474   0.182   0.506   2.846  0.8645 -0.0940 -3.1418
    4MOL   H249 2475   0.054   0.402   2.782  0.1863  0.2301 -0.9270
    4MOL   H250 2476   7.573   0.553   2.879  0.1221 -1.2673  0.0691
    4MOL   H251 2477   0.021   0.659   2.931  0.6990 -0.1347 -1.8485
    4MOL   H252 2478   0.105   0.469   3.068  0.1542  0.1251 -3.1949
    4MOL   H253 2479   7.663   0.373   3.010  0.7248 -0.8683  0.8086
    4MOL   H254 2480   7.565   0.426   3.225 -0.0846 -1.7780 -2.1279
    4MOL   H255 2481   7.495   0.525   3.127 -0.3136 -0.4431  1.9694
    4MOL   H256 2482   7.594   0.689   3.289 -1.3480 -0.9226  0.9382
    4MOL   H257 2483   0.020   0.690   3.163  1.6074 -1.4950 -0.7433
    4MOL   H258 2484   0.145   0.516   3.293  2.1242  2.2856  0.5558
    4MOL   H259 2485   0.038   0.520   3.430  2.3790 -1.7182  0.8341
    4MOL   H260 2486   0.253   0.686   3.369  0.4254  0.8009  0.4095
    4MOL   C261 2487   0.117   0.785   3.488 -0.3979  0.4188 -0.7596
    4MOL   O262 2488   7.692   0.798   3.522 -0.2259  0.6795 -0.5432
    4MOL   C263 2489   0.226   0.872   3.554  0.0884 -0.3342  0.4068
    4MOL   C264 2490   0.224   0.868   3.710  0.3289 -0.1647  0.4828
    4MOL   C265 2491   0.240   0.727   3.758  0.2512  0.2785  0.3049
    4MOL   C266 2492   0.320   0.711   3.891  0.3499  0.4123 -0.2027
    4MOL   C267 2493   0.327   0.564   3.935 -0.1243  0.1283  0.1527
    4MOL   C268 2494   0.407   0.538   4.065  0.1692  0.2490  0.6753
    4MOL   C269 2495   0.549   0.483   4.038  0.5742  0.1205  0.3151
    4MOL   C270 2496   0.550   0.330   3.997 -0.5114 -0.5210  0.1265
    4MOL   C271 2497   0.690   0.263   4.000 -0.7184  1.4374  0.5072
    4MOL   C272 2498   0.674   0.124   3.946 -0.0398  0.9028  0.0848
    4MOL   C273 2499   0.802   0.041   3.965  0.3638 -0.1006 -0.2271
    4MOL   N274 2500   0.806   7.604   3.905 -0.3524 -0.3607 -0.2746
    4MOL   H275 2501   0.210   0.972   3.515  1.3319 -0.3883 -0.2497
    4MOL   H276 2502   0.326   0.844   3.523  0.5791  1.1604  0.6225
    4MOL   H277 2503   0.286   0.948   3.749  0.0653  0.1656  0.2296
    4MOL   H278 2504   0.125   0.893   3.746  0.2746  2.9744 -1.5995
    4MOL   H279 2505   0.292   0.665   3.686  1.9825  1.5498  0.4140
    4MOL   H280 2506   0.143   0.679   3.765  0.5381 -0.6674 -1.9047
    4MOL   H281 2507   0.417   0.761   3.882  1.1760 -0.6924  2.0954
    4MOL   H282 2508   0.258   0.761   3.965  0.0667  0.0355 -0.1820
    4MOL   H283 2509   0.373   0.507   3.854 -0.4531 -0.6921  0.5340
    4MOL   H284 2510   0.223   0.533   3.945 -0.2566  0.5929  0.2490
    4MOL   H285 2511   0.342   0.481   4.131 -0.7976 -0.2563 -0.6905
    4MOL   H286 2512   0.408   0.629   4.125  1.2596 -0.6157  1.9875
    4MOL   H287 2513   0.609   0.489   4.129  0.9131 -0.7353  0.1518
    4MOL   H288 2514   0.589   0.544   3.957 -2.6597  0.3387 -1.1798
    4MOL   H289 2515   0.510   0.318   3.896 -0.0182 -1.2853  0.0161
    4MOL   H290 2516   0.484   0.274   4.064  0.7438 -1.8931  0.2587
    4MOL   H291 2517   0.725   0.273   4.103 -1.9803 -1.4294  1.2820
    4MOL   H292 2518   0.758   0.314   3.932 -2.4052  3.2924  0.1912
    4MOL   H293 2519   0.655   0.131   3.839 -2.1933  1.5988  0.4949
    4MOL   H294 2520   0.589   0.077   3.996  1.4682  0.2557  2.1151
    4MOL   H295 2521   0.826   0.033   4.071  2.6909 -1.9785 -0.8703
    4MOL   H296 2522   0.892   0.093   3.932  1.9409 -1.8097  1.2746
    4MOL   H297 2523   0.717   7.563   3.885 -0.0938  0.2786 -2.8964
    4MOL   C298 2524   0.918   7.535   3.869 -0.0309  0.0744 -0.3011
    4MOL   O299 2525   1.034   7.575   3.875 -0.7445  0.0868 -0.3212
    4MOL   C300 2526   0.896   7.388   3.827  0.4157  0.7985  0.7059
    4MOL   C301 2527   1.012   7.327   3.752  0.7221 -0.5700 -0.0546
    4MOL   C302 2528   0.976   7.182   3.708 -0.0513 -0.4714 -0.2047
    4MOL   C303 2529   1.105   7.102   3.669  0.2582  0.2065  0.7229
    4MOL   C304 2530   1.183   7.156   3.548 -0.1643 -0.8668  0.1769
    4MOL   C305 2531   1.300   7.066   3.505 -0.4151 -0.6352  0.9741
    4MOL   C306 2532   1.379   7.136   3.389 -0.0479  0.5835  0.0111
    4MOL   C307 2533   1.294   7.132   3.261  0.0544 -0.0331 -0.9991
    4MOL   C308 2534   1.368   7.182   3.137  0.2534  0.2255 -0.8889
    4MOL   C309 2535   1.279   7.163   3.013  0.3022  0.1606  0.1839
    4MOL   C310 2536   1.364   7.145   2.881  0.0858  0.3432 -0.2581
    4MOL   N311 2537   1.422   7.010   2.870  0.8228 -0.2954 -0.0970
    4MOL   H312 2538   0.809   7.376   3.763  0.1475 -0.8115  1.3558
    4MOL   H313 2539   0.865   7.334   3.916  1.0842 -1.3514 -0.3495
    4MOL   H314 2540   1.038   7.388   3.665  0.0061  1.5969  1.2062
    4MOL   H315 2541   1.106   7.324   3.809  0.5692 -0.8400  0.1837
    4MOL   H316 2542   0.905   7.181   3.626 -0.1354  1.7977 -0.1761
    4MOL   H317 2543   0.928   7.125   3.787 -1.8915  2.3220  0.7606
    4MOL   H318 2544   1.177   7.115   3.749  1.9242  0.8392 -0.8654
    4MOL   H319 2545   1.075   6.997   3.661  1.4873 -0.0273 -0.8375
    4MOL   H320 2546   1.209   7.262   3.556 -1.2596 -0.4812 -1.2939
    4MOL   H321 2547   1.110   7.160   3.468  1.5851  0.7069 -1.3905
    4MOL   H322 2548   1.273   6.966   3.470 -3.2375  0.0365  1.1407
    4MOL   H323 2549   1.380   7.058   3.579  0.6994  0.3486 -0.1141
    4MOL   H324 2550   1.475   7.085   3.380 -1.0507 -1.8068  2.2837
    4MOL   H325 2551   1.395   7.242   3.411 -1.4357  0.7676  0.2084
    4MOL   H326 2552   1.222   7.213   3.265 -2.2209 -2.0761  0.7539
    4MOL   H327 2553   1.247   7.035   3.240 -1.5440  0.5777 -0.3429
    4MOL   H328 2554   1.452   7.113   3.126  1.6923  1.9701 -0.9535
    4MOL   H329 2555   1.388   7.289   3.137  1.0451  0.0864 -1.2780
    4MOL   H330 2556   1.200   7.236   2.992  0.3170 -0.5607 -2.6598
    4MOL   H331 2557   1.222   7.070   3.015  1.5873 -0.6243  0.2856
    4MOL   H332 2558   1.439   7.223   2.866  0.3948 -0.1290 -1.2342
    4MOL   H333 2559   1.308   7.157   2.788  0.1676  0.0812 -0.3417
    4MOL   H334 2560   1.475   6.970   2.947 -2.4820 -0.4815  2.1587
    4MOL   C335 2561   1.406   6.925   2.765 -0.2457 -1.0663  0.4968
    4MOL   O336 2562   1.356   6.965   2.660 -0.2786 -0.1430 -0.0013
    4MOL   C337 2563   1.431   6.777   2.776  1.0351  0.2242 -0.3955
    4MOL   C338 2564   1.437   6.694   2.639  0.5698 -0.1734 -0.4806
    4MOL   C339 2565   1.571   6.711   2.556  0.6292 -0.3476  0.1307
    4MOL   C340 2566   1.571   6.643   2.417  0.0904  0.3786 -0.2579
    4MOL   C341 2567   1.493   6.704   2.298 -0.0072 -0.0184 -0.2744
    4MOL   C342 2568   1.558   6.840   2.267 -0.2721 -0.8671 -0.3862
    4MOL   C343 2569   1.494   6.938   2.164 -0.5431 -0.0669  0.0665
    4MOL   C344 2570   1.352   6.987   2.194  0.3524 -0.3219  0.0571
    4MOL   C345 2571   1.344   7.045   2.334 -0.7976  0.6721 -0.4621
    4MOL   C346 2572   1.209   7.119   2.358 -0.1745  0.2817 -0.8893
    4MOL   C347 2573   1.182   7.163   2.504 -0.2873  1.0659 -0.8014
    4MOL   N348 2574   1.086   7.266   2.496  0.2870  0.2198  0.2602
    4MOL   H349 2575   1.364   6.735   2.851 -0.4286  3.0660 -0.0486
    4MOL   H350 2576   1.525   6.771   2.830  1.8519 -0.8290 -1.8745
    4MOL   H351 2577   1.414   6.589   2.655 -1.5935  0.4510  0.7339
    4MOL   H352 2578   1.348   6.732   2.588 -0.7069 -0.0313  1.8136
    4MOL   H353 2579   1.640   6.649   2.613  0.0685 -1.2219 -0.1242
    4MOL   H354 2580   1.622   6.807   2.558  0.7398 -0.3452 -1.8569
    4MOL   H355 2581   1.671   6.615   2.385 -0.3397  2.4567 -3.6757
    4MOL   H356 2582   1.515   6.549   2.409  0.0639  0.4454 -0.8547
    4MOL   H357 2583   1.386   6.715   2.317  0.2636 -0.7803  1.7815
    4MOL   H358 2584   1.514   6.638   2.214 -0.8117 -1.2170  0.4495
    4MOL   H359 2585   1.652   6.810   2.221 -1.0198 -0.2886 -2.3032
    4MOL   H360 2586   1.591   6.894   2.356 -1.7017  0.1407 -0.4652
    4MOL   H361 2587   1.498   6.892   2.065 -1.6294  1.1054 -0.5382
    4MOL   H362 2588   1.562   7.024   2.157 -2.4793  1.7412  2.5054
    4MOL   H363 2589   1.281   6.904   2.186  1.2220 -1.0962  0.1826
    4MOL   H364 2590   1.323   7.056   2.115  1.1033  0.1705  0.2086
    4MOL   H365 2591   1.428   7.111   2.360  0.3793 -1.3972  1.1147
    4MOL   H366 2592   1.354   6.958   2.398 -1.3887  0.9918  0.0706
    4MOL   H367 2593   1.127   7.051   2.338 -0.1602 -0.2539  0.7134
    4MOL   H368 2594   1.207   7.207   2.295  1.4533  1.9430  1.2679
    4MOL   H369 2595   1.270   7.205   2.553  0.4170 -0.7839 -0.4581
    4MOL   H370 2596   1.144   7.077   2.558 -0.7305  0.7577 -1.5926
    4MOL   H371 2597   1.099   7.326   2.417 -1.7438  1.2372  0.6604
    4MOL   C372 2598   0.990   7.295   2.587  0.0337  0.4860 -0.3311
    4MOL   O373 2599   0.970   7.232   2.693 -0.0346  0.3063 -0.2179
    4MOL   C374 2600   0.899   7.405   2.540  0.4251  0.6492  0.1821
    4MOL   C375 2601   0.792   7.432   2.640 -0.4033  0.6075  0.0807
    4MOL   C376 2602   0.846   7.525   2.756  0.6713 -0.0646 -0.9874
    4MOL   C377 2603   0.748   7.548   2.864  0.4588 -0.3393  0.6679
    4MOL   C378 2604   0.805   7.622   2.985 -0.6318  0.0243 -0.0150
    4MOL   C379 2605   0.709   7.685   3.080  0.8265  0.1666  0.2203
    4MOL   C380 2606   0.614   7.587   3.147  0.1685 -0.1216 -0.4197
    4MOL   C381 2607   0.502   7.654   3.230  0.2547 -0.1445 -0.5560
    4MOL   C382 2608   0.414   7.549   3.300  0.4370 -0.1666 -0.3288
    4MOL   C383 2609   0.349   7.592   3.426  0.7177  0.4951 -0.3187
    4MOL   C384 2610   0.452   7.594   3.540 -0.0236  0.1155  0.0703
    4MOL   N385 2611   0.377   7.594   3.665 -0.4225 -0.6037 -0.7560
    4MOL   H386 2612   0.854   7.370   2.447  0.1472  1.1213  0.1359
    4MOL   H387 2613   0.953   7.498   2.520  1.4398 -0.0375 -0.3491
    4MOL   H388 2614   0.706   7.482   2.594 -0.8379 -0.6314 -0.4817
    4MOL   H389 2615   0.754   7.335   2.672  0.4575  1.1881  3.0068
    4MOL   H390 2616   0.874   7.614   2.698  2.1456 -0.1137 -0.3854
    4MOL   H391 2617   0.938   7.484   2.797 -0.0510  0.1557  0.8741
    4MOL   H392 2618   0.666   7.601   2.815 -0.0934 -2.6556 -0.9910
    4MOL   H393 2619   0.700   7.456   2.898 -0.9040  0.2518  0.3867
    4MOL   H394 2620   0.859   0.007   2.932 -0.9415  1.1286  1.3089
    4MOL   H395 2621   0.884   7.568   3.037  2.1551  4.2504  0.3805
    4MOL   H396 2622   0.649   0.071   3.039 -1.3760 -0.5638  1.9273
    4MOL   H397 2623   0.754   0.031   3.172 -0.6536  1.0120  0.5973
    4MOL   H398 2624   0.664   7.514   3.211 -0.1171 -0.4653 -0.5831
    4MOL   H399 2625   0.568   7.544   3.058 -1.2561  2.7893 -1.1582
    4MOL   H400 2626   0.447   0.029   3.166  1.2182 -0.8233 -2.1559
    4MOL   H401 2627   0.555   0.020   3.303  1.3487 -0.1326 -1.3351
    4MOL   H402 2628   0.478   7.462   3.319  0.4809  0.2861  1.6828
    4MOL   H403 2629   0.331   7.524   3.234  1.0849 -0.2905 -1.1048
    4MOL   H404 2630   0.271   7.525   3.461  2.5033 -1.8351 -0.6658
    4MOL   H405 2631   0.301   7.689   3.413 -1.5992 -0.7966 -1.6316
    4MOL   H406 2632   0.519   7.679   3.528  1.8098 -1.4075 -0.9939
    4MOL   H407 2633   0.522   7.510   3.533  0.3041  0.3548  0.4354
    4MOL   H408 2634   0.276   7.591   3.663 -0.6535  2.6752  1.1518
    4MOL   C409 2635   0.424   7.555   3.789  0.5845 -0.1728  0.1378
    4MOL   O410 2636   0.547   7.534   3.802 -0.1220 -0.1913  0.0968
    4MOL   C411 2637   0.317   7.536   3.900 -0.4485 -0.5821 -0.1716
    4MOL   C412 2638   0.299   7.392   3.951  1.0869 -0.9604 -0.3119
    4MOL   C413 2639   0.424   7.332   4.004  0.4047 -0.1150  1.0119
    4MOL   C414 2640   0.387   7.207   4.072  0.2331  0.3132 -0.1296
    4MOL   C415 2641   0.507   7.114   4.090  0.4354 -0.6804  0.8065
    4MOL   C416 2642   0.611   7.153   4.190 -0.2043 -0.1752 -0.3267
    4MOL   C417 2643   0.702   7.041   4.245 -0.8462  0.9325 -0.0595
    4MOL   C418 2644   0.795   6.981   4.141 -0.3388 -0.2468  0.2435
    4MOL   C419 2645   0.909   6.905   4.211 -0.3402 -0.2413 -0.3376
    4MOL   C420 2646   1.017   6.871   4.112  0.0426 -0.2004 -0.1591
    4MOL   C421 2647   1.092   6.980   4.031 -0.1339  0.1391  0.2263
    4MOL   N422 2648   1.134   7.092   4.111 -0.1352  0.8117  0.4746
    4MOL   H423 2649   0.215   7.558   3.869 -0.0350 -0.0499 -1.1863
    4MOL   H424 2650   0.341   7.607   3.979  1.2924 -0.4991 -0.7530
    4MOL   H425 2651   0.210   7.384   4.013  0.4279  1.5147 -0.9047
    4MOL   H426 2652   0.274   7.327   3.867 -1.0909  0.2940 -0.6571
    4MOL   H427 2653   0.484   7.394   4.071  0.1114  2.3478 -0.9543
    4MOL   H428 2654   0.485   7.298   3.921  0.4378  0.7994  0.6518
    4MOL   H429 2655   0.351   7.235   4.171  0.1773  0.6799 -0.2510
    4MOL   H430 2656   0.307   7.157   4.018  0.8689  1.7268 -2.4614
    4MOL   H431 2657   0.553   7.098   3.993  0.4633  0.1551  0.6839
    4MOL   H432 2658   0.472   7.013   4.112  0.0943 -1.1441 -1.7285
    4MOL   H433 2659   0.552   7.184   4.276 -0.4767 -3.0408  0.5803
    4MOL   H434 2660   0.668   7.237   4.150 -0.5419 -0.9257 -2.4396
    4MOL   H435 2661   0.647   6.956   4.286 -3.5430  2.1397 -1.0492
    4MOL   H436 2662   0.763   7.087   4.323 -1.1249  1.0018  0.1216
    4MOL   H437 2663   0.835   7.065   4.085 -2.8156  0.5968 -0.3017
    4MOL   H438 2664   0.742   6.923   4.065 -1.5936  0.0549  0.8757
    4MOL   H439 2665   0.864   6.810   4.239  0.3770 -0.5629 -0.2637
    4MOL   H440 2666   0.959   6.957   4.293 -3.3175 -1.7469  2.5572
    4MOL   H441 2667   0.970   6.806   4.038  1.4533 -2.3298  0.7764
    4MOL   H442 2668   1.090   6.821   4.175 -3.0395  0.0726  3.8461
    4MOL   H443 2669   1.025   7.015   3.952 -0.0761 -2.1511 -0.8639
    4MOL   H444 2670   1.184   6.941   3.988  1.0663 -0.5376  3.3061
    4MOL   H445 2671   1.075   7.116   4.189 -1.2466  0.7304 -0.3330
    4MOL   C446 2672   1.227   7.180   4.081 -0.3758  0.4429 -0.3086
    4MOL   O447 2673   1.304   7.159   3.987  0.1114  0.4953 -0.0930
    4MOL   C448 2674   1.254   7.290   4.185 -0.3593  0.3911  0.5614
    4MOL   C449 2675   1.374   7.377   4.135 -0.5789 -0.3820 -0.5283
    4MOL   C450 2676   1.397   7.510   4.213  0.3384 -0.0053 -0.2251
    4MOL   C451 2677   1.281   7.615   4.184 -0.0842 -0.1965  0.2590
    4MOL   C452 2678   1.260   0.023   4.296  0.1206  0.7255 -0.2049
    4MOL   C453 2679   1.128   0.101   4.281 -0.5967 -0.0937 -0.1441
    4MOL   C454 2680   1.121   0.222   4.372 -0.4135 -0.1174  0.2282
    4MOL   C455 2681   1.001   0.317   4.340 -0.0051 -0.2062 -0.3678
    4MOL   C456 2682   0.860   0.258   4.370  0.3790 -0.2137  0.3289
    4MOL   C457 2683   0.759   0.371   4.374  0.4378 -0.6359  0.1231
    4MOL   C458 2684   0.608   0.339   4.387  0.5574 -0.0656 -0.2007
    4MOL   N459 2685   0.537   0.454   4.437  0.0335 -0.1730  0.1973
    4MOL   H460 2686   1.284   7.255   4.283  1.4382  0.5932  0.0952
    4MOL   H461 2687   1.166   7.351   4.207  0.1793  1.1448  0.6336
    4MOL   H462 2688   1.462   7.313   4.134  0.1581  0.6216 -1.0195
    4MOL   H463 2689   1.365   7.400   4.029  1.0186  2.8121 -0.0247
    4MOL   H464 2690   1.491   7.562   4.192 -1.2959  2.6492 -1.3101
    4MOL   H465 2691   1.390   7.479   4.317  0.4712  0.6769 -0.0095
    4MOL   H466 2692   1.306   7.664   4.090  0.1326 -1.9296 -0.6024
    4MOL   H467 2693   1.190   7.558   4.169  0.0840 -0.2159 -0.6963
    4MOL   H468 2694   1.333   0.104   4.292 -0.0884  0.8479 -1.8394
    4MOL   H469 2695   1.260   7.660   4.389  0.6151 -0.4171 -0.8919
    4MOL   H470 2696   1.039   0.041   4.298 -1.7762  1.3276 -1.1926
    4MOL   H471 2697   1.110   0.122   4.175  1.9243  1.5591 -0.3038
    4MOL   H472 2698   1.207   0.289   4.364 -0.5395 -0.0311 -0.4234
    4MOL   H473 2699   1.115   0.193   4.477  2.9533 -0.5195  0.3684
    4MOL   H474 2700   0.997   0.356   4.238 -1.6474 -0.0138 -0.2517
    4MOL   H475 2701   1.002   0.400   4.411 -1.8788 -0.3245 -0.1559
    4MOL   H476 2702   0.850   0.201   4.463 -1.0643  0.5065  0.6328
    4MOL   H477 2703   0.821   0.181   4.302 -1.1081  1.3849 -0.6714
    4MOL   H478 2704   0.767   0.429   4.282 -1.2532  0.3678  0.5895
    4MOL   H479 2705   0.792   0.443   4.449  0.9008  0.5104 -1.1789
    4MOL   H480 2706   0.593   0.257   4.457  0.7675 -1.7739 -2.1094
    4MOL   H481 2707   0.561   0.318   4.291  0.6994  1.6727 -0.6627
    4MOL   H482 2708   0.583   0.543   4.430  0.8153 -0.5217  0.6929
    4MOL   C483 2709   0.402   0.454   4.461 -0.3858  0.0030  0.5799
    4MOL   O484 2710   0.325   0.367   4.427  0.2051  0.3310  0.2572
    4MOL   C485 2711   0.349   0.580   4.530 -0.5318  0.1433 -0.6880
    4MOL   C486 2712   0.276   0.539   4.664  0.0464 -0.5982  0.3317
    4MOL   C487 2713   0.367   0.507   4.780 -0.0882 -0.1649  0.5601
    4MOL   C488 2714   0.289   0.461   4.900 -1.2166 -0.0666  0.2172
    4MOL   C489 2715   0.372   0.401   5.015 -0.0180 -0.0819 -0.1743
    4MOL   C490 2716   0.285   0.343   5.129  0.0501 -0.3752 -0.2754
    4MOL   C491 2717   0.364   0.304   5.257  0.1704 -0.2149  0.2995
    4MOL   C492 2718   0.432   0.171   5.233  0.5370  0.0994  0.4629
    4MOL   C493 2719   0.576   0.168   5.279  0.2090 -0.2955 -0.4992
    4MOL   C494 2720   0.639   0.035   5.249 -0.0332  0.0026 -1.0738
    4MOL   C495 2721   0.676   0.021   5.102  0.5224  0.0609 -0.4176
    4MOL   N496 2722   0.736   7.588   5.068  0.0646  0.1130  0.0748
    4MOL   H497 2723   0.282   0.634   4.463  0.6230  0.9957 -1.1763
    4MOL   H498 2724   0.430   0.651   4.542 -0.8788  0.2302  1.2724
    4MOL   H499 2725   0.191   0.603   4.689 -0.6174 -1.5388  0.4878
    4MOL   H500 2726   0.223   0.445   4.654 -0.3180 -0.3229 -0.4146
    4MOL   H501 2727   0.433   0.591   4.802  0.1163 -0.0424 -0.5042
    4MOL   H502 2728   0.446   0.434   4.759 -1.2510 -2.0161  2.3858
    4MOL   H503 2729   0.227   0.544   4.935 -0.0226  1.9473 -2.2122
    4MOL   H504 2730   0.224   0.378   4.873 -0.6840 -0.6455  0.7052
    4MOL   H505 2731   0.440   0.478   5.052 -0.3027  0.0517  0.0726
    4MOL   H506 2732   0.426   0.320   4.967  0.3888 -0.9185  1.6852
    4MOL   H507 2733   0.230   0.255   5.096 -1.3892 -0.1340  1.4004
    4MOL   H508 2734   0.218   0.425   5.156 -0.4640 -1.3039  1.2799
    4MOL   H509 2735   0.300   0.285   5.343  0.1949 -1.9522 -0.0368
    4MOL   H510 2736   0.431   0.388   5.275  0.3113 -0.1246 -0.5865
    4MOL   H511 2737   0.452   0.160   5.127 -1.1169 -1.6576  0.3078
    4MOL   H512 2738   0.374   0.084   5.265  0.1496 -0.5540 -1.9260
    4MOL   H513 2739   0.568   0.191   5.385  0.7882 -1.4302 -0.2017
    4MOL   H514 2740   0.632   0.250   5.234  1.8834 -1.1324  0.0179
    4MOL   H515 2741   0.577   7.643   5.275  1.2836 -1.0086 -1.2209
    4MOL   H516 2742   0.726   0.020   5.313 -1.0796  0.7422  0.5560
    4MOL   H517 2743   0.753   0.091   5.068  1.3397  0.9373  3.0732
    4MOL   H518 2744   0.590   0.021   5.035  1.2407  0.1727 -1.3577
    4MOL   H519 2745   0.677   7.512   5.037  0.6259 -0.5846  0.6691
    4MOL   C520 2746   0.863   7.557   5.092 -0.2121 -0.6501 -0.1745
    4MOL   O521 2747   0.955   7.640   5.109 -0.2249 -0.0369  0.3250
    4MOL   C522 2748   0.896   7.406   5.115  0.4246  0.3284  0.2876
    4MOL   C523 2749   0.997   7.384   5.228  0.2463  0.3421  0.3344
    4MOL   C524 2750   0.948   7.434   5.367 -0.4955  0.5683 -0.0968
    4MOL   C525 2751   1.044   7.386   5.482  0.2792  0.0145 -1.4134
    4MOL   C526 2752   1.015   7.251   5.533  0.4134  0.0195 -0.5605
    4MOL   C527 2753   0.879   7.231   5.603 -0.2409  0.2101 -0.3558
    4MOL   C528 2754   0.860   7.317   5.733 -0.1627 -0.0093  0.1198
    4MOL   C529 2755   0.948   7.295   5.861 -0.9123 -0.2136  0.3152
    4MOL   C530 2756   0.899   7.392   5.969 -0.2563 -0.2968 -0.1759
    4MOL   C531 2757   0.980   7.522   5.989 -0.5887 -0.1975  0.6248
    4MOL   C532 2758   0.908   7.637   6.059 -0.9522 -0.7261 -0.3631
    4MOL   N533 2759   0.996   0.049   6.103  0.1849  0.7854  0.4343
    4MOL   H534 2760   0.939   7.372   5.020 -0.7993 -0.5276  0.0278
    4MOL   H535 2761   0.804   7.348   5.129  0.8433 -0.4408 -0.0900
    4MOL   H536 2762   1.019   7.277   5.230 -1.6284 -0.0524  2.5943
    4MOL   H537 2763   1.093   7.432   5.207  1.1781 -1.6181 -0.0993
    4MOL   H538 2764   0.847   7.406   5.394 -1.7306  3.2989 -1.6671
    4MOL   H539 2765   0.944   7.543   5.371  0.8506  0.6256 -0.0614
    4MOL   H540 2766   1.148   7.387   5.448  0.6853 -2.0788 -0.2893
    4MOL   H541 2767   1.042   7.463   5.559  0.8563 -1.9961  0.6475
    4MOL   H542 2768   1.099   7.210   5.588  0.0313  0.4519  0.3692
    4MOL   H543 2769   1.014   7.185   5.447 -0.4376 -1.0087  0.2316
    4MOL   H544 2770   0.865   7.124   5.616 -3.4942  0.4139 -1.6464
    4MOL   H545 2771   0.799   7.253   5.532  0.2703  0.3177 -0.9031
    4MOL   H546 2772   0.759   7.289   5.765  1.0747 -1.0593  3.3150
    4MOL   H547 2773   0.861   7.421   5.701  0.2518 -0.2631 -0.6948
    4MOL   H548 2774   1.054   7.315   5.846 -0.9521  0.4199  0.8488
    4MOL   H549 2775   0.945   7.194   5.902  2.8607  0.4967  2.6005
    4MOL   H550 2776   0.898   7.348   6.068  1.0915  0.4788  0.1904
    4MOL   H551 2777   0.795   7.418   5.950 -0.4710  0.8607  2.4079
    4MOL   H552 2778   0.997   7.563   5.889 -0.9655 -0.2359  0.5440
    4MOL   H553 2779   1.074   7.506   6.042  0.8398 -0.1676 -1.8044
    4MOL   H554 2780   0.854   7.610   6.151  1.4927  0.3273  1.4409
    4MOL   H555 2781   0.845   7.680   5.982 -0.0759 -0.0172 -0.6817
    4MOL   H556 2782   1.096   0.033   6.100 -0.2269 -1.9058 -0.2264
    4MOL   C557 2783   0.949   0.170   6.131  0.9782 -0.3799 -0.3186
    4MOL   O558 2784   0.829   0.191   6.123  0.3326 -0.0264 -0.2019
    4MOL   C559 2785   1.044   0.275   6.168  0.2558  0.0417 -0.3045
    4MOL   C560 2786   0.986   0.362   6.270  0.3740 -0.0714  0.4411
    4MOL   C561 2787   1.093   0.471   6.312  0.5117  0.4244  0.3817
    4MOL   C562 2788   1.029   0.587   6.393 -0.1374  0.7195  0.1697
    4MOL   C563 2789   1.127   0.690   6.440  0.1399 -0.4574  0.3277
    4MOL   C564 2790   1.056   0.797   6.534  0.5332 -0.1887 -0.0702
    4MOL   C565 2791   1.111   0.935   6.525 -0.0888 -0.2772 -0.0156
    4MOL   C566 2792   1.261   0.940   6.561 -0.3752  0.2290  0.6070
    4MOL   C567 2793   1.312   1.086   6.559  0.4614 -1.3371  0.4963
    4MOL   C568 2794   1.465   1.099   6.586 -0.0407  0.5760 -0.1817
    4MOL   C569 2795   1.515   1.246   6.574 -0.4814  0.6445  0.0378
    4MOL   N570 2796   1.661   1.261   6.592  0.1491  0.1501 -0.3240
    4MOL   H571 2797   1.058   0.327   6.073  1.3315  0.4130  0.0515
    4MOL   H572 2798   1.138   0.234   6.204  0.1769  1.0065  1.0332
    4MOL   H573 2799   0.906   0.420   6.225  0.8024 -0.2027 -0.4973
    4MOL   H574 2800   0.943   0.304   6.352 -2.1686  1.6434  0.3631
    4MOL   H575 2801   1.123   0.516   6.217 -0.9766  1.0599  0.2020
    4MOL   H576 2802   1.186   0.436   6.357 -0.1635 -1.2879  0.4989
    4MOL   H577 2803   0.949   0.646   6.349 -1.6385 -1.5184 -0.1796
    4MOL   H578 2804   0.988   0.544   6.484 -1.3153  1.3699 -0.0382
    4MOL   H579 2805   1.169   0.741   6.353  1.2090 -1.1377  0.4339
    4MOL   H580 2806   1.214   0.640   6.482  0.2756 -0.3931  0.1265
    4MOL   H581 2807   1.066   0.761   6.636 -1.3312  0.3385  0.3225
    4MOL   H582 2808   0.949   0.810   6.516  0.5948 -0.1519 -0.4201
    4MOL   H583 2809   1.063   1.007   6.590  2.8486  1.0680  0.7480
    4MOL   H584 2810   1.094   0.953   6.419 -0.7690 -2.2033 -0.2591
    4MOL   H585 2811   1.330   0.885   6.496  2.3434  2.2514  1.6638
    4MOL   H586 2812   1.285   0.885   6.652 -3.1576 -0.0635  1.2098
    4MOL   H587 2813   1.261   1.142   6.637  0.4017 -1.9789  0.9176
    4MOL   H588 2814   1.282   1.129   6.463  2.3429  0.9561  0.8914
    4MOL   H589 2815   1.516   1.028   6.522 -0.3555 -0.9599  1.2089
    4MOL   H590 2816   1.489   1.067   6.688 -0.4314 -3.6049 -1.3115
    4MOL   H591 2817   1.475   1.305   6.657 -0.8675  0.1286  0.2214
    4MOL   H592 2818   1.493   1.291   6.477 -1.9936  0.4323  0.2764
    4MOL   H593 2819   1.721   1.284   6.514  1.4476 -0.6003  0.4478
    4MOL   C594 2820   1.727   1.239   6.705  0.6916  0.1105  1.0911
    4MOL   O595 2821   1.666   1.214   6.810 -0.6399  0.2865  0.0015
    4MOL   C596 2822   1.879   1.228   6.703 -0.2469 -0.8652  0.7620
    4MOL   C597 2823   1.944   1.188   6.834  0.2098 -0.2186 -0.3652
    4MOL   C598 2824   2.091   1.215   6.837 -0.6066 -0.1224 -0.1289
    4MOL   C599 2825   2.147   1.158   6.966 -0.1640  0.2192 -0.3140
    4MOL   C600 2826   2.297   1.134   6.965 -0.1899 -0.0875  0.0511
    4MOL   C601 2827   2.383   1.263   6.943  0.6672 -0.2597  0.9152
    4MOL   C602 2828   2.527   1.263   6.978  0.1765  0.1936 -1.1381
    4MOL   C603 2829   2.593   1.405   6.975 -0.5920 -0.8513  0.1145
    4MOL   C604 2830   2.625   1.449   6.833 -0.5771  0.1693 -0.0606
    4MOL   C605 2831   2.705   1.354   6.742 -0.3953  0.2687 -0.6198
    4MOL   C606 2832   2.745   1.415   6.608  0.1056 -0.1697  0.7140
    4MOL   N607 2833   2.816   1.314   6.528  0.2024 -0.0427 -0.3534
    4MOL   H608 2834   1.923   1.325   6.680  0.7399 -1.7406 -1.1240
    4MOL   H609 2835   1.915   1.164   6.623  1.1974 -1.6719  2.0260
    4MOL   H610 2836   1.903   1.239   6.922  0.9823 -1.6518  0.8499
    4MOL   H611 2837   1.926   1.082   6.849  1.2879 -0.6510 -2.0758
    4MOL   H612 2838   2.106   1.323   6.838  0.2905 -0.2430  0.6805
    4MOL   H613 2839   2.133   1.171   6.746 -2.1397  2.9945 -2.4334
    4MOL   H614 2840   2.115   1.216   7.052  2.5938  0.1509  0.8094
    4MOL   H615 2841   2.110   1.056   6.971  0.1070  0.1384  0.0164
    4MOL   H616 2842   2.325   1.049   6.903 -2.5470  0.2345 -1.5289
    4MOL   H617 2843   2.324   1.090   7.061 -2.6856 -2.2908 -0.1978
    4MOL   H618 2844   2.333   1.348   6.990 -0.1087 -0.7636  1.0106
    4MOL   H619 2845   2.377   1.294   6.838  1.4534  1.5707  1.3889
    4MOL   H620 2846   2.576   1.188   6.915  1.8545  1.0588 -0.8805
    4MOL   H621 2847   2.547   1.216   7.074 -0.9122 -0.2827 -1.1359
    4MOL   H622 2848   2.687   1.383   7.027 -0.5355 -2.2523 -0.5663
    4MOL   H623 2849   2.539   1.482   7.029 -1.8032 -2.5342  1.3930
    4MOL   H624 2850   2.682   1.542   6.833  0.2227 -0.3170  0.5806
    4MOL   H625 2851   2.529   1.475   6.788 -0.6591  1.9432  1.0716
    4MOL   H626 2852   2.649   1.261   6.731 -0.4659  0.2718 -0.2879
    4MOL   H627 2853   2.792   1.322   6.800 -1.6066 -5.1060 -1.4763
    4MOL   H628 2854   2.817   1.495   6.629  0.2156 -0.7964  2.8790
    4MOL   H629 2855   2.661   1.452   6.551 -0.0735 -1.2044  0.3060
    4MOL   H630 2856   2.916   1.316   6.538  0.1901 -1.3638  0.1455
    4MOL   C631 2857   2.763   1.243   6.431  0.0511  0.0216  0.3923
    4MOL   O632 2858   2.645   1.242   6.408 -0.0647  0.3596  1.0470
    4MOL   C633 2859   2.843   1.135   6.358  0.4418 -0.2761  0.4863
    4MOL   C634 2860   2.765   1.043   6.270  0.4320 -0.2949 -0.7330
    4MOL   C635 2861   2.733   1.105   6.136  0.1551 -0.2526  0.5276
    4MOL   C636 2862   2.608   1.051   6.065 -0.6303  1.0609  0.2691
    4MOL   C637 2863   2.475   1.102   6.119 -0.6060  0.1577 -0.6097
    4MOL   C638 2864   2.370   0.992   6.094  0.6464  0.1973 -0.3702
    4MOL   C639 2865   2.380   0.873   6.199  0.5213 -0.4344  0.0248
    4MOL   C640 2866   2.290   0.753   6.161  0.1043 -0.2991  0.5330
    4MOL   C641 2867   2.298   0.686   6.030 -0.0087 -0.2559  0.0153
    4MOL   C642 2868   2.438   0.632   5.977  0.7265  0.1953 -1.0543
    4MOL   C643 2869   2.494   0.501   6.048 -0.3257 -0.3074  0.9261
    4MOL   N644 2870   2.632   0.472   6.011 -0.7106  0.1505  0.0888
    4MOL   H645 2871   2.881   1.073   6.439  0.8899 -1.4159 -0.5850
    4MOL   H646 2872   2.931   1.178   6.311 -1.3285  1.7104 -1.1366
    4MOL   H647 2873   2.818   0.948   6.260 -0.6136 -1.1269  1.3971
    4MOL   H648 2874   2.671   1.012   6.316 -0.4215 -1.2303 -3.0198
    4MOL   H649 2875   2.819   1.113   6.070 -0.0827 -0.6635  0.1710
    4MOL   H650 2876   2.716   1.213   6.141  0.3501 -0.2325  0.7699
    4MOL   H651 2877   2.620   1.073   5.959 -2.6860  2.1048  0.2311
    4MOL   H652 2878   2.625   0.943   6.069 -4.4578  0.3708 -0.7332
    4MOL   H653 2879   2.450   1.190   6.060  1.0244  0.6064 -0.6605
    4MOL   H654 2880   2.485   1.129   6.224 -0.4395 -0.5189 -0.4507
    4MOL   H655 2881   2.390   0.962   5.991 -0.0398  1.6039 -0.9432
    4MOL   H656 2882   2.269   1.033   6.089  1.6119  2.6583 -0.9658
    4MOL   H657 2883   2.351   0.909   6.298  2.8702  0.0615  0.5653
    4MOL   H658 2884   2.482   0.834   6.193  1.1819  1.2095  0.3256
    4MOL   H659 2885   2.184   0.778   6.166  0.1985  0.5161 -1.0720
    4MOL   H660 2886   2.307   0.676   6.237  0.6582  0.0907  0.8058
    4MOL   H661 2887   2.256   0.759   5.960  1.6236 -0.0972 -0.8216
    4MOL   H662 2888   2.225   0.605   6.031  1.0618 -1.2537 -0.9043
    4MOL   H663 2889   2.513   0.708   6.000 -1.4180  2.2504 -0.6331
    4MOL   H664 2890   2.441   0.622   5.868  1.0765  0.7490 -1.0957
    4MOL   H665 2891   2.457   0.412   5.998  0.0578 -0.3641  0.7398
    4MOL   H666 2892   2.472   0.500   6.154 -0.0420  0.3296  0.9956
    4MOL   H667 2893   2.658   0.399   5.946 -0.7648  0.9743 -0.8779
    4MOL   C668 2894   2.730   0.514   6.091  0.2716 -0.3412 -0.4456
    4MOL   O669 2895   2.716   0.613   6.165 -0.4998  0.3698 -0.0343
    4MOL   C670 2896   2.871   0.457   6.096 -0.7808 -0.1645  0.5567
    4MOL   C671 2897   2.967   0.547   6.016  0.3028 -0.5458  0.5496
    4MOL   C672 2898   3.113   0.494   6.040 -0.3900  0.3770 -0.0181
    4MOL   C673 2899   3.228   0.569   5.965  0.2681  0.6477  0.8436
    4MOL   C674 2900   3.229   0.537   5.819  0.0299  0.0254  0.0128
    4MOL   C675 2901   3.324   0.620   5.733 -0.6246  0.4580 -0.5697
    4MOL   C676 2902   3.466   0.589   5.772  0.2399 -0.1278 -0.7757
    4MOL   C677 2903   3.585   0.658   5.688 -0.2212  0.6717 -0.5866
    4MOL   C678 2904   3.589   0.603   5.544  0.0300 -0.0759  0.2747
    4MOL   C679 2905   3.693   0.663   5.445  0.4388 -0.0511  0.3057
    4MOL   C680 2906   3.838   0.656   5.491 -0.3021 -0.2764  0.0237
    4MOL   N681 2907   3.879   0.522   5.525  0.8138 -0.1031  0.1857
    4MOL   H682 2908   2.869   0.361   6.045 -0.1043  0.8031 -1.3221
    4MOL   H683 2909   2.899   0.452   6.202  1.1527  0.9170  0.1306
    4MOL   H684 2910   2.935   0.544   5.911 -1.7956 -0.6292  1.1659
    4MOL   H685 2911   2.972   0.649   6.055 -1.8540 -0.1631 -0.1053
    4MOL   H686 2912   3.122   0.387   6.024 -0.5260  0.0805  1.8386
    4MOL   H687 2913   3.136   0.501   6.146  0.5826 -0.3307 -0.1781
    4MOL   H688 2914   3.213   0.674   5.990 -0.7453  0.5218  0.7973
    4MOL   H689 2915   3.325   0.556   6.011 -0.2645 -0.8655  1.5588
    4MOL   H690 2916   3.126   0.539   5.782 -0.1429 -0.3169  0.4653
    4MOL   H691 2917   3.258   0.434   5.798 -0.5218  0.0165 -0.7191
    4MOL   H692 2918   3.298   0.726   5.731 -0.3235  0.5460  0.0935
    4MOL   H693 2919   3.321   0.586   5.630  1.0352 -2.0314  0.1737
    4MOL   H694 2920   3.480   0.481   5.764  0.5408 -0.3317  1.9212
    4MOL   H695 2921   3.478   0.624   5.875 -1.1533  1.3409 -1.1055
    4MOL   H696 2922   3.679   0.622   5.730 -1.0309  0.3507  0.9754
    4MOL   H697 2923   3.583   0.766   5.699  2.9928  0.8201 -0.9629
    4MOL   H698 2924   3.490   0.624   5.504  0.0717  0.3497  0.3959
    4MOL   H699 2925   3.592   0.494   5.547 -0.2382 -0.1442 -1.4323
    4MOL   H700 2926   3.656   0.765   5.433 -1.6578 -0.2465  4.0773
    4MOL   H701 2927   3.690   0.610   5.350 -0.0574 -0.0999  0.3453
    4MOL   H702 2928   3.850   0.729   5.571  0.7546 -1.0336  0.5543
    4MOL   H703 2929   3.902   0.677   5.405 -0.3634 -2.9647 -0.6992
    4MOL   H704 2930   3.889   0.494   5.622  3.3974 -0.3068 -0.0870
    4MOL   C705 2931   3.904   0.419   5.433 -0.0918 -0.0323  1.2938
    4MOL   O706 2932   3.909   0.446   5.311  0.1619  0.5563  0.0779
    4MOL   C707 2933   3.911   0.280   5.489  0.4974  0.0475  0.8294
    4MOL   C708 2934   3.785   0.227   5.549 -0.1593  0.4778  0.5106
    4MOL   C709 2935   3.674   0.207   5.442  0.2103  0.0729 -0.2958
    4MOL   C710 2936   3.539   0.182   5.504 -0.3402 -0.9068 -1.1631
    4MOL   C711 2937   3.438   0.142   5.397  1.0397  0.6701  0.0256
    4MOL   C712 2938   3.292   0.143   5.450 -0.3817 -0.6838  0.4903
    4MOL   C713 2939   3.234   0.283   5.486  0.1190  0.2925  0.3227
    4MOL   C714 2940   3.086   0.291   5.531 -0.3407 -0.0744  0.3081
    4MOL   C715 2941   3.047   0.207   5.649 -0.6752  0.4501 -0.4458
    4MOL   C716 2942   2.902   0.236   5.678 -0.0753  0.1165  0.9749
    4MOL   C717 2943   2.857   0.190   5.815  0.0312  0.0871 -0.1767
    4MOL   N718 2944   2.716   0.227   5.826  0.5654  0.0473 -0.3763
    4MOL   H719 2945   3.987   0.286   5.567  0.2701 -2.1700  1.2587
    4MOL   H720 2946   3.950   0.206   5.420 -0.5049  0.6428 -0.3935
    4MOL   H721 2947   3.801   0.134   5.604 -0.4310 -0.0463 -0.2905
    4MOL   H722 2948   3.740   0.304   5.612 -0.9138  2.2016 -2.0602
    4MOL   H723 2949   3.700   0.127   5.373 -0.9589 -0.6926  0.1427
    4MOL   H724 2950   3.655   0.298   5.385  0.7525 -0.1883 -0.8918
    4MOL   H725 2951   3.547   0.107   5.583  0.4480  0.7483  0.3672
    4MOL   H726 2952   3.513   0.269   5.565  0.2301 -1.4873 -0.0745
    4MOL   H727 2953   3.469   0.055   5.340 -0.0436  0.3523 -0.0821
    4MOL   H728 2954   3.441   0.207   5.309 -0.3931  2.1541  1.0385
    4MOL   H729 2955   3.281   0.075   5.535 -2.4872 -0.0007  0.8044
    4MOL   H730 2956   3.226   0.105   5.372 -0.3861  1.3988 -0.5730
    4MOL   H731 2957   3.253   0.353   5.405 -1.4065  0.1739 -0.1486
    4MOL   H732 2958   3.292   0.333   5.564 -0.9708  0.5760  0.9634
    4MOL   H733 2959   3.036   0.261   5.438  0.1101  0.8121 -0.2257
    4MOL   H734 2960   3.061   0.396   5.546 -1.6593 -0.3867  0.3930
    4MOL   H735 2961   3.100   0.244   5.737 -2.1544  2.1818 -0.2642
    4MOL   H736 2962   3.072   0.101   5.654  0.3842  0.7471  0.8325
    4MOL   H737 2963   2.843   0.200   5.594  2.3220 -0.0603 -0.6617
    4MOL   H738 2964   2.898   0.345   5.689 -1.7295 -0.0401  2.2135
    4MOL   H739 2965   2.919   0.229   5.896  0.2116 -0.0682 -0.2431
    4MOL   H740 2966   2.865   0.082   5.812  1.6251  0.1979 -0.3409
    4MOL   H741 2967   2.670   0.158   5.883 -0.7019  0.3297 -1.0213
    4MOL   H742 2968   2.686   0.226   5.729 -1.3211 -0.5973  0.1924
    5MOL     C1 2969   1.585   6.893   6.526  0.0540  0.4464  0.2749
    5MOL     O2 2970   1.662   6.952   6.604  0.0811 -0.1430  0.2730
    5MOL     C3 2971   1.472   6.811   6.585 -0.1009 -0.3593 -0.4478
    5MOL     C4 2972   1.451   6.822   6.739  0.5088  0.1482  0.1205
    5MOL     C5 2973   1.556   6.777   6.832 -0.8271 -0.1137 -0.4966
    5MOL     C6 2974   1.600   6.633   6.808 -0.2905  0.0762  0.3505
    5MOL     C7 2975   1.483   6.532   6.810  0.3697  0.1540 -0.4564
    5MOL     C8 2976   1.524   6.379   6.813  1.0153 -0.1167  0.1590
    5MOL     C9 2977   1.399   6.289   6.804  0.4056  0.1721 -0.6386
    5MOL    C10 2978   1.433   6.140   6.780  0.3834  0.2120  0.1010
    5MOL    C11 2979   1.305   6.058   6.791 -0.4691  0.0316 -0.3030
    5MOL    C12 2980   1.323   5.909   6.803  0.4686 -0.6307  0.3521
    5MOL    C13 2981   1.195   5.841   6.825 -0.6106  0.1827 -0.5849
    5MOL    N14 2982   1.196   5.702   6.777 -0.6684  0.2645  0.5835
    5MOL    H15 2983   1.483   6.709   6.549 -1.8642 -0.3385 -1.0923
    5MOL    H16 2984   1.379   6.853   6.548  0.5054  1.6212  0.1947
    5MOL    H17 2985   1.437   6.928   6.758  0.0449  0.2273 -0.6705
    5MOL    H18 2986   1.363   6.766   6.772  1.0189 -1.4941 -1.2670
    5MOL    H19 2987   1.535   6.792   6.938  0.3848  1.9687 -0.5138
    5MOL    H20 2988   1.648   6.832   6.816  1.6041 -3.8946 -0.0988
    5MOL    H21 2989   1.649   6.628   6.711 -1.2570  3.6359 -0.4063
    5MOL    H22 2990   1.684   6.603   6.870 -0.7194 -1.5266  0.1763
    5MOL    H23 2991   1.411   6.550   6.731 -1.3653 -1.3265  0.7390
    5MOL    H24 2992   1.435   6.548   6.907  0.2397  1.0679 -0.6618
    5MOL    H25 2993   1.590   6.345   6.892  1.4268 -0.9621 -0.5371
    5MOL    H26 2994   1.576   6.360   6.719  0.4775  1.7863 -0.5581
    5MOL    H27 2995   1.329   6.321   6.727 -0.1706  0.8994  0.1774
    5MOL    H28 2996   1.338   6.292   6.895 -0.0830  0.0747 -0.9622
    5MOL    H29 2997   1.511   6.117   6.853  2.0771  2.1373 -1.0389
    5MOL    H30 2998   1.478   6.112   6.684  0.7003 -2.9641  1.1052
    5MOL    H31 2999   1.228   6.074   6.715  0.4929  2.1070 -0.8801
    5MOL    H32 3000   1.259   6.080   6.887 -1.6293 -2.3434 -0.2934
    5MOL    H33 3001   1.397   5.894   6.881 -1.8492 -2.1842  2.2992
    5MOL    H34 3002   1.368   5.877   6.709  1.8909 -2.7467  1.7091
    5MOL    H35 3003   1.113   5.894   6.775 -1.1203 -1.7717 -1.8583
    5MOL    H36 3004   1.186   5.849   6.933 -1.2462 -0.6631 -0.5767
    5MOL    H37 3005   1.282   5.668   6.737 -0.0693  0.8028  1.4072
    5MOL    H38 3006   1.592   6.910   6.418  2.1641 -2.4934 -0.1009
    5MOL    C39 3007   1.098   5.612   6.793 -0.3740 -0.3871 -0.3606
    5MOL    O40 3008   0.979   5.642   6.824 -0.0370 -0.0352  0.1059
    5MOL    C41 3009   1.144   5.471   6.758  0.3906  0.3884  0.0382
    5MOL    C42 3010   1.028   5.372   6.734 -0.4214 -0.3470  0.1600
    5MOL    C43 3011   1.071   5.234   6.692 -0.0865  0.4616  0.3072
    5MOL    C44 3012   0.951   5.136   6.685 -0.3464  0.0368 -0.2420
    5MOL    C45 3013   0.988   4.989   6.652 -0.5921 -0.4609  0.3048
    5MOL    C46 3014   0.869   4.897   6.628 -0.3279  0.1016  0.2902
    5MOL    C47 3015   0.795   4.867   6.757 -0.3785 -0.2108 -0.2965
    5MOL    C48 3016   0.690   4.751   6.736  0.8401 -0.3115  0.6868
    5MOL    C49 3017   0.671   4.668   6.869 -0.3356 -0.0227 -0.7629
    5MOL    C50 3018   0.545   4.583   6.872  0.1381  0.7100 -0.1566
    5MOL    C51 3019   0.508   4.525   7.009  0.5073  0.3046  0.0561
    5MOL    N52 3020   0.464   4.639   7.088 -0.3832 -0.4912  0.0636
    5MOL    H53 3021   1.210   5.436   6.837 -1.3030  0.0728  1.3423
    5MOL    H54 3022   1.211   5.478   6.673  1.0051 -1.5410  0.3541
    5MOL    H55 3023   0.976   5.364   6.829 -0.8972  0.1337 -0.0596
    5MOL    H56 3024   0.950   5.408   6.667  0.0493 -0.9083 -0.7024
    5MOL    H57 3025   1.153   5.209   6.760 -1.4900  0.1541  1.9023
    5MOL    H58 3026   1.111   5.246   6.591  1.5876 -0.4377  0.8459
    5MOL    H59 3027   0.903   5.133   6.783 -0.6592  3.6011 -0.2338
    5MOL    H60 3028   0.882   5.172   6.608 -1.4352  1.2535  1.2852
    5MOL    H61 3029   1.054   4.943   6.725 -0.3472 -0.8457 -0.1575
    5MOL    H62 3030   1.054   4.988   6.565  0.1961  0.5742  0.8678
    5MOL    H63 3031   0.910   4.799   6.601  1.3720  0.5628  1.1313
    5MOL    H64 3032   0.805   4.939   6.551  1.8956  0.4470 -1.4286
    5MOL    H65 3033   0.745   4.956   6.795  0.0219 -0.7402  1.4665
    5MOL    H66 3034   0.874   4.839   6.826  0.8080  0.9900 -1.1366
    5MOL    H67 3035   0.720   4.680   6.659 -0.7022 -0.2479  0.0042
    5MOL    H68 3036   0.597   4.793   6.698  0.3670 -2.1349 -0.2694
    5MOL    H69 3037   0.663   4.743   6.947 -0.2212  0.3910 -1.1457
    5MOL    H70 3038   0.756   4.604   6.891 -0.0494  1.4425  2.7177
    5MOL    H71 3039   0.566   4.500   6.805  1.5812  0.2806  0.8055
    5MOL    H72 3040   0.456   4.640   6.843 -0.1117 -0.0107 -0.8011
    5MOL    H73 3041   0.587   4.460   7.047  1.2560  0.2856 -1.5038
    5MOL    H74 3042   0.425   4.458   6.990 -0.8617  1.7872  0.6513
    5MOL    H75 3043   0.522   4.719   7.104 -1.1355  0.5134 -2.1067
    5MOL    C76 3044   0.358   4.626   7.170  0.2308 -0.2351 -0.1841
    5MOL    O77 3045   0.282   4.527   7.185 -0.1003 -0.1632 -0.5925
    5MOL    C78 3046   0.323   4.744   7.254  0.0364 -0.0208  0.0784
    5MOL    C79 3047   0.174   4.752   7.292  0.1151  0.2157 -0.3780
    5MOL    C80 3048   0.066   4.734   7.180  0.2229  0.2160  0.3057
    5MOL    C81 3049   7.630   4.806   7.220 -0.5573 -0.2342 -0.0470
    5MOL    C82 3050   7.509   4.772   7.137 -0.0796  0.0046 -0.2195
    5MOL    C83 3051   7.513   4.821   6.996 -0.3185  0.1647  0.4340
    5MOL    C84 3052   7.380   4.809   6.921 -0.2569  0.1007 -0.4110
    5MOL    C85 3053   7.390   4.846   6.777 -0.4378  0.0342  0.3359
    5MOL    C86 3054   7.491   4.764   6.691 -0.4296  0.1683 -0.2093
    5MOL    C87 3055   7.457   4.775   6.540  0.1466 -0.2995  0.2544
    5MOL    C88 3056   7.498   4.903   6.472 -0.9642  0.3506  0.2730
    5MOL    N89 3057   7.639   4.894   6.435 -0.4009  0.1934  0.2245
    5MOL    H90 3058   0.357   4.835   7.204  1.5014  0.0710  1.1723
    5MOL    H91 3059   0.376   4.742   7.349  3.2510  0.0971 -1.6511
    5MOL    H92 3060   0.137   4.694   7.377 -0.6787  1.0727 -0.1302
    5MOL    H93 3061   0.162   4.857   7.320 -1.8680  0.5104 -2.1778
    5MOL    H94 3062   0.042   4.628   7.173  1.9029 -0.1633  0.2256
    5MOL    H95 3063   0.106   4.774   7.086  2.6690 -0.2047  1.1318
    5MOL    H96 3064   7.614   4.790   7.327  2.6698 -0.4424  0.4580
    5MOL    H97 3065   7.645   4.912   7.204  1.6694 -0.6167 -0.6740
    5MOL    H98 3066   7.423   4.821   7.182 -0.5280 -0.6683 -0.3310
    5MOL    H99 3067   7.498   4.663   7.141  1.1210 -0.0974  1.3521
    5MOL   H100 3068   7.585   4.760   6.942 -0.0273  0.2579  0.7188
    5MOL   H101 3069   7.560   4.919   6.992  0.2072 -0.0659  0.9035
    5MOL   H102 3070   7.305   4.867   6.976 -0.4870  0.3078 -0.9471
    5MOL   H103 3071   7.345   4.709   6.946 -0.2838  0.3629  0.6685
    5MOL   H104 3072   7.428   4.948   6.765 -1.3794  0.1966 -1.4069
    5MOL   H105 3073   7.290   4.848   6.732  0.1519 -0.0045 -1.0190
    5MOL   H106 3074   7.493   4.661   6.726  0.0421  0.4652  0.6538
    5MOL   H107 3075   7.591   4.788   6.729 -0.5845 -0.5461  0.6689
    5MOL   H108 3076   7.352   4.754   6.522  0.4311 -0.1030 -1.6961
    5MOL   H109 3077   7.507   4.692   6.491  1.5126  0.0370  1.0610
    5MOL   H110 3078   7.486   4.991   6.535  1.1710 -0.5908  2.0661
    5MOL   H111 3079   7.447   4.906   6.376 -2.6354 -1.4821  1.0693
    5MOL   H112 3080   7.687   4.809   6.463 -2.6121 -0.2835  2.7173
    5MOL   C113 3081   0.009   4.979   6.354 -0.3667 -0.0323 -0.1710
    5MOL   O114 3082   7.654   5.087   6.317  0.1404  0.4339  0.2915
    5MOL   C115 3083   0.143   4.938   6.285 -0.3713  0.3547  0.0288
    5MOL   C116 3084   0.218   5.052   6.209  0.6367 -0.3256  0.2031
    5MOL   C117 3085   0.302   5.146   6.300  0.4406  0.8288  0.1312
    5MOL   C118 3086   0.399   5.062   6.383  0.8834 -0.6615  0.8364
    5MOL   C119 3087   0.515   5.149   6.442  1.0789  0.1586  0.4882
    5MOL   C120 3088   0.453   5.257   6.527  0.5289 -0.1908 -1.0093
    5MOL   C121 3089   0.557   5.339   6.615 -0.6956 -0.3354  0.2550
    5MOL   C122 3090   0.484   5.429   6.716  0.3355  0.4147 -0.1970
    5MOL   C123 3091   0.594   5.524   6.778  0.0876  0.4926 -0.1010
    5MOL   C124 3092   0.536   5.622   6.883 -0.3460  0.7135  0.3729
    5MOL   C125 3093   0.630   5.737   6.930 -0.1463 -0.2242 -0.1288
    5MOL   N126 3094   0.751   5.688   6.993 -0.2060  0.0617  0.1481
    5MOL   H127 3095   0.122   4.874   6.199  1.1546 -1.8530  1.2552
    5MOL   H128 3096   0.216   4.884   6.347 -0.3960  0.7623  0.4133
    5MOL   H129 3097   0.285   5.010   6.134  0.3396 -0.9960  0.3082
    5MOL   H130 3098   0.148   5.110   6.149  1.3867  0.0475 -0.3135
    5MOL   H131 3099   0.229   5.204   6.357 -1.2030  1.0311 -2.1050
    5MOL   H132 3100   0.351   5.218   6.234  2.1743 -0.4613 -0.0130
    5MOL   H133 3101   0.342   5.023   6.468 -0.6062 -0.2922  0.0281
    5MOL   H134 3102   0.437   4.977   6.326 -0.2810 -1.3730  1.1033
    5MOL   H135 3103   0.577   5.189   6.362 -1.0118  1.8930 -0.3152
    5MOL   H136 3104   0.568   5.084   6.512 -2.2966 -0.2123  2.8638
    5MOL   H137 3105   0.376   5.213   6.591  1.3479 -0.4637 -0.2018
    5MOL   H138 3106   0.410   5.341   6.471 -0.7943  0.1745  0.4840
    5MOL   H139 3107   0.621   5.394   6.546 -2.4437  1.8234  0.3149
    5MOL   H140 3108   0.615   5.271   6.678  0.5125  2.6075  2.4659
    5MOL   H141 3109   0.435   5.365   6.789 -1.8355  1.5091 -0.6637
    5MOL   H142 3110   0.413   5.494   6.665  0.8247  0.5844 -0.6611
    5MOL   H143 3111   0.643   5.585   6.702 -1.3501  0.9536 -0.6681
    5MOL   H144 3112   0.672   5.463   6.825 -0.1652  0.7387  0.6484
    5MOL   H145 3113   0.501   5.549   6.956 -0.0692 -0.1220 -0.3324
    5MOL   H146 3114   0.444   5.659   6.838  0.3189 -0.6633 -2.1812
    5MOL   H147 3115   0.584   5.813   6.994 -2.2218 -0.2296 -1.5582
    5MOL   H148 3116   0.653   5.801   6.845  1.2127 -1.5696 -0.7892
    5MOL   H149 3117   0.835   5.660   6.943  0.4419  0.8983  0.7410
    5MOL   C150 3118   0.778   5.679   7.122  0.5584  0.3583 -0.3692
    5MOL   O151 3119   0.708   5.740   7.206 -0.3234  0.1881  0.2641
    5MOL   C152 3120   0.893   5.590   7.165  0.5110  0.3411 -0.0434
    5MOL   C153 3121   0.906   5.550   7.317 -0.4032 -0.3764  0.4519
    5MOL   C154 3122   0.779   5.481   7.372  0.0968  0.2300  1.1470
    5MOL   C155 3123   0.798   5.438   7.518  0.6378  0.0514  0.1518
    5MOL   C156 3124   0.674   5.385   7.585 -0.5020  0.7203 -0.1054
    5MOL   C157 3125   0.589   5.499   7.640 -0.1156  0.9991 -0.8535
    5MOL   C158 3126   0.442   5.441   7.659 -0.1455 -0.4095  0.3511
    5MOL   C159 3127   0.342   5.539   0.039 -0.4836 -0.2619 -0.4904
    5MOL   C160 3128   0.196   5.500   0.025 -0.0194  0.2271 -0.0655
    5MOL   C161 3129   0.093   5.610   0.077 -0.4534  0.3309  0.0538
    5MOL   C162 3130   7.648   5.569   0.051 -0.5854  0.1709  0.0729
    5MOL   N163 3131   7.621   5.565   7.602  0.8303  0.2694  0.5868
    5MOL   H164 3132   0.984   5.628   7.118  0.9457  0.3036  0.7509
    5MOL   H165 3133   0.883   5.499   7.106  3.8406 -0.5834  0.6842
    5MOL   H166 3134   0.991   5.483   7.331  0.3740  0.7604  1.2186
    5MOL   H167 3135   0.928   5.637   7.379 -1.2457  0.0496  0.1740
    5MOL   H168 3136   0.742   5.401   7.308 -3.2736  2.9507 -0.4437
    5MOL   H169 3137   0.698   5.553   7.364  1.3661  1.5314 -0.4018
    5MOL   H170 3138   0.869   5.356   7.526 -0.1185 -0.9097 -2.7024
    5MOL   H171 3139   0.849   5.515   7.577 -0.1643  0.4837  0.2787
    5MOL   H172 3140   0.700   5.312   7.661  0.8297  0.1495 -1.1032
    5MOL   H173 3141   0.614   5.328   7.514  1.0168 -1.9882  0.7375
    5MOL   H174 3142   0.578   5.577   7.564  1.2897  1.8429 -0.2172
    5MOL   H175 3143   0.646   5.528   0.035  0.8871 -1.9884 -0.4712
    5MOL   H176 3144   0.443   5.346   0.018  3.3982 -1.0077 -0.7138
    5MOL   H177 3145   0.398   5.427   7.561  0.5128  1.2362 -0.1960
    5MOL   H178 3146   0.361   5.631   7.679 -0.7161  1.0262  1.5643
    5MOL   H179 3147   0.381   5.544   0.141 -0.2593 -1.7298 -0.4932
    5MOL   H180 3148   0.173   5.409   0.080 -1.7856  0.6998  0.0216
    5MOL   H181 3149   0.172   5.471   7.617  1.2129  1.9899 -0.8941
    5MOL   H182 3150   0.100   5.712   0.039  0.9459  0.7345  1.3534
    5MOL   H183 3151   0.113   5.611   0.184 -0.0546 -0.0425 -0.0184
    5MOL   H184 3152   7.578   5.635   0.102  2.0968  1.1193  2.6432
    5MOL   H185 3153   7.626   5.470   0.091 -0.9908 -0.6282 -2.0425
    5MOL   H186 3154   7.691   5.539   7.533 -1.1435  1.6836 -2.0599
    5MOL   C187 3155   7.505   5.595   7.546  0.1866 -0.6491 -0.1114
    5MOL   O188 3156   7.401   5.627   7.605  0.5292 -0.1116 -0.4182
    5MOL   C189 3157   7.498   5.567   7.399 -0.2928 -0.5461  0.1880
    5MOL   C190 3158   7.523   5.702   7.324  0.0093 -0.1615  0.4764
    5MOL   C191 3159   7.500   5.677   7.178 -0.0893  0.5996  0.0596
    5MOL   C192 3160   7.568   5.781   7.085  0.0777  0.2108  0.1944
    5MOL   C193 3161   7.499   5.923   7.086 -0.9590  0.0949  0.0479
    5MOL   C194 3162   7.366   5.944   7.007 -0.3365 -0.2225 -0.4615
    5MOL   C195 3163   7.331   6.086   6.983  0.4128 -0.3537 -0.6667
    5MOL   C196 3164   7.304   6.167   7.107  0.5439 -0.2101  0.7633
    5MOL   C197 3165   7.254   6.305   7.075  0.1709 -0.8731  0.1170
    5MOL   C198 3166   7.222   6.383   7.204 -0.0065 -0.2996  0.2954
    5MOL   C199 3167   7.168   6.520   7.163 -0.2227 -0.8409 -0.4077
    5MOL   N200 3168   7.064   6.509   7.065  0.2576 -0.1183  0.2988
    5MOL   H201 3169   7.398   5.534   7.372 -0.7329  2.2397 -1.7719
    5MOL   H202 3170   7.566   5.493   7.355  1.6710  0.4494  1.4541
    5MOL   H203 3171   7.454   5.777   7.360  1.0690 -0.2316  2.7468
    5MOL   H204 3172   7.617   5.744   7.358 -0.7082  2.0955 -0.2450
    5MOL   H205 3173   7.394   5.673   7.153 -0.1547  0.8349  0.2913
    5MOL   H206 3174   7.541   5.582   7.145 -0.1227  1.0151 -1.2167
    5MOL   H207 3175   7.670   5.796   7.118  0.3977 -1.7328  0.1401
    5MOL   H208 3176   7.566   5.742   6.983  0.6641 -1.8416  0.9460
    5MOL   H209 3177   7.562   5.987   7.024  0.0367 -1.4056 -0.5146
    5MOL   H210 3178   7.497   5.968   7.185 -0.8689  2.1938 -0.8724
    5MOL   H211 3179   7.278   5.906   7.058 -0.1036 -0.4950 -0.2573
    5MOL   H212 3180   7.373   5.905   6.906 -1.7498  3.3883 -2.0327
    5MOL   H213 3181   7.242   6.090   6.921 -0.4021  3.2068  0.6319
    5MOL   H214 3182   7.413   6.127   6.924  1.5634 -1.9145 -0.1891
    5MOL   H215 3183   7.389   6.180   7.174  0.6738  0.3679  0.4922
    5MOL   H216 3184   7.234   6.112   7.170 -0.5299  0.4111  0.1206
    5MOL   H217 3185   7.166   6.291   7.013  1.1055 -1.6173 -1.0557
    5MOL   H218 3186   7.322   6.368   7.017 -0.7666 -0.8946 -1.0208
    5MOL   H219 3187   7.313   6.393   7.263 -0.3592  1.9298  0.5111
    5MOL   H220 3188   7.150   6.321   7.257 -0.2099  1.1722  1.7920
    5MOL   H221 3189   7.238   6.588   7.115 -2.4703  1.5719 -0.3468
    5MOL   H222 3190   7.138   6.577   7.250 -0.1805 -0.2886 -0.7518
    5MOL   H223 3191   6.996   6.435   7.081 -0.1104 -0.1329 -1.3105
    5MOL   C224 3192   7.022   6.597   6.970 -0.1638 -0.3933 -0.0985
    5MOL   O225 3193   7.088   6.700   6.948  0.5446  0.3043  0.1173
    5MOL   C226 3194   6.911   6.554   6.875 -0.1257 -0.5236  0.1596
    5MOL   C227 3195   6.961   6.509   6.733 -0.2874  0.8757 -0.4162
    5MOL   C228 3196   7.084   6.407   6.744  0.5915  0.0062 -0.2916
    5MOL   C229 3197   7.106   6.334   6.609 -0.2461  0.3172  0.1255
    5MOL   C230 3198   7.003   6.225   6.568  0.2670  0.1881 -0.6905
    5MOL   C231 3199   7.013   6.173   6.420  0.2418  0.4072  0.3366
    5MOL   C232 3200   6.923   6.239   6.310  0.4110  0.0829  0.2895
    5MOL   C233 3201   6.945   6.178   6.170 -0.7148 -0.2100 -0.2088
    5MOL   C234 3202   6.907   6.268   6.062 -0.0436 -0.1735 -0.1376
    5MOL   C235 3203   6.751   6.293   6.064 -0.4859  0.2002  0.6120
    5MOL   C236 3204   6.708   6.371   5.943 -0.4051  0.2251  0.2694
    5MOL   N237 3205   6.574   6.414   5.945  0.2176  0.0535  0.9795
    5MOL   H238 3206   6.829   6.624   6.860  0.0731 -0.2173  0.5026
    5MOL   H239 3207   6.862   6.466   6.919 -0.2440 -1.0640 -1.0361
    5MOL   H240 3208   6.882   6.460   6.677  0.7270 -0.1576 -0.9716
    5MOL   H241 3209   6.989   6.598   6.678 -1.4583  0.7546 -1.2290
    5MOL   H242 3210   7.063   6.330   6.819 -0.1415  0.8067  0.3430
    5MOL   H243 3211   7.185   6.439   6.769  2.4910 -3.8802 -2.4968
    5MOL   H244 3212   7.099   6.418   6.540 -2.3483 -0.2275 -0.3633
    5MOL   H245 3213   7.211   6.307   6.602 -0.5615 -0.8012 -0.3914
    5MOL   H246 3214   6.897   6.247   6.579  0.0634 -0.5444 -1.0847
    5MOL   H247 3215   7.020   6.141   6.636 -0.3800  1.4513  1.0647
    5MOL   H248 3216   7.001   6.065   6.421  0.5857  0.3691  0.2493
    5MOL   H249 3217   7.116   6.185   6.388  0.5171  1.6372  1.5927
    5MOL   H250 3218   6.946   6.345   6.321  3.2540 -0.6024  1.5766
    5MOL   H251 3219   6.817   6.221   6.330  0.5801  0.2252  1.3507
    5MOL   H252 3220   6.895   6.082   6.158  0.0008 -0.4392 -1.4393
    5MOL   H253 3221   7.052   6.162   6.164 -0.5840  0.1754  1.0056
    5MOL   H254 3222   6.954   6.229   5.972  1.1579 -1.4880  1.0345
    5MOL   H255 3223   6.956   6.363   6.084 -1.0282  0.6216 -1.3139
    5MOL   H256 3224   6.717   6.344   6.154  1.3523  0.2548  1.2959
    5MOL   H257 3225   6.697   6.199   6.073  1.2923 -0.8934  0.2495
    5MOL   H258 3226   6.725   6.316   5.850 -1.9513 -0.8550  0.5967
    5MOL   H259 3227   6.777   6.454   5.927  1.4441 -1.4348 -0.6946
    5MOL   H260 3228   6.519   6.353   5.886 -0.8812  0.9850  1.0181
    5MOL   C261 3229   6.523   6.527   5.994  0.0578  0.0504 -0.5118
    5MOL   O262 3230   6.588   6.615   6.060  0.3646  0.4972 -0.0153
    5MOL   C263 3231   6.368   6.546   5.976 -0.0366 -0.6375  0.4206
    5MOL   C264 3232   6.318   6.691   5.977 -0.0336 -0.2255 -0.2626
    5MOL   C265 3233   6.364   6.782   5.857 -0.2449  0.2423 -0.0605
    5MOL   C266 3234   6.315   6.928   5.860 -0.7296 -0.5266  0.1537
    5MOL   C267 3235   6.181   6.955   5.799 -0.2202 -0.3283 -0.6812
    5MOL   C268 3236   6.128   7.098   5.780  0.0711  0.0144  0.2616
    5MOL   C269 3237   6.007   7.103   5.689 -0.9697 -0.5572  0.3396
    5MOL   C270 3238   5.962   7.249   5.674 -0.5273  0.2297 -0.1494
    5MOL   C271 3239   5.837   7.269   5.603  0.0386 -0.8196 -0.2473
    5MOL   C272 3240   5.719   7.226   5.678  0.4877 -0.0705  0.1827
    5MOL   C273 3241   5.597   7.278   5.611 -0.0593 -0.0104  0.4165
    5MOL   N274 3242   5.485   7.254   5.704  0.1711 -0.1942  0.1523
    5MOL   H275 3243   6.307   6.489   6.045 -1.1399 -0.5573 -0.4665
    5MOL   H276 3244   6.350   6.505   5.876  0.0760  0.7808 -0.2031
    5MOL   H277 3245   6.210   6.700   5.973  0.1061  1.4547 -0.7978
    5MOL   H278 3246   6.335   6.732   6.076 -2.5649  0.5914 -0.1414
    5MOL   H279 3247   6.345   6.729   5.764  2.0192 -0.6336 -0.0531
    5MOL   H280 3248   6.472   6.794   5.855  0.1370 -2.8063 -0.1568
    5MOL   H281 3249   6.326   6.975   5.957 -3.0932 -3.1112  1.7256
    5MOL   H282 3250   6.389   6.981   5.799 -0.2629 -3.3201 -1.8141
    5MOL   H283 3251   6.116   6.901   5.868 -0.6909 -0.8560 -1.5331
    5MOL   H284 3252   6.176   6.901   5.705 -2.8443  0.8939 -1.2835
    5MOL   H285 3253   6.207   7.156   5.732 -1.6559  1.9758 -0.3020
    5MOL   H286 3254   6.096   7.147   5.872  0.1357  2.0120 -0.7651
    5MOL   H287 3255   5.937   7.034   5.735 -1.5274  0.6368  1.3071
    5MOL   H288 3256   6.038   7.068   5.591 -0.8061 -0.5064  0.3738
    5MOL   H289 3257   6.043   7.297   5.620 -1.5934  2.1982 -0.0103
    5MOL   H290 3258   5.957   7.305   5.768  1.1946  1.6223 -0.8510
    5MOL   H291 3259   5.838   7.222   5.504  0.8574  0.3526 -0.8099
    5MOL   H292 3260   5.833   7.376   5.582  0.2572 -0.6705  0.4667
    5MOL   H293 3261   5.728   7.262   5.781 -1.6690  0.1286  0.3225
    5MOL   H294 3262   5.711   7.118   5.691 -1.6554  0.3027  2.2383
    5MOL   H295 3263   5.570   7.237   5.514  2.0043 -1.6731  0.4972
    5MOL   H296 3264   5.608   7.384   5.590  1.2114 -0.2785 -0.3744
    5MOL   H297 3265   5.432   7.170   5.684 -1.5957  1.0343 -0.4165
    5MOL   C298 3266   5.452   7.319   5.818 -0.5210 -0.7996 -0.5917
    5MOL   O299 3267   5.515   7.417   5.855  0.0399  0.3764 -0.0339
    5MOL   C300 3268   5.328   7.271   5.896 -0.7610  0.5128  0.0439
    5MOL   C301 3269   5.215   7.378   5.895  0.2720 -0.4466  0.2408
    5MOL   C302 3270   5.218   7.508   5.985  0.7731 -0.2771 -0.5567
    5MOL   C303 3271   5.084   7.578   5.988 -0.1946 -0.1709  0.1390
    5MOL   C304 3272   5.075   0.014   6.067 -0.3731 -1.4470 -0.2788
    5MOL   C305 3273   4.942   0.080   6.053  0.1075 -0.0798  0.4210
    5MOL   C306 3274   4.930   0.200   6.148  0.5930  0.1179 -0.2470
    5MOL   C307 3275   4.789   0.259   6.173 -0.3146  0.1035  0.1582
    5MOL   C308 3276   4.747   0.340   6.055 -0.0999 -0.1674 -0.6792
    5MOL   C309 3277   4.607   0.403   6.086 -0.0672  0.4619 -0.4629
    5MOL   C310 3278   4.545   0.494   5.975  0.5762  0.3717  0.0054
    5MOL   N311 3279   4.532   0.411   5.857 -0.1565 -0.3107 -0.0841
    5MOL   H312 3280   5.363   7.251   5.997 -1.2489  1.6418  0.4494
    5MOL   H313 3281   5.282   7.178   5.861  2.3746 -1.7882  1.8634
    5MOL   H314 3282   5.187   7.405   5.793 -3.1669  0.5348  1.3758
    5MOL   H315 3283   5.135   7.323   5.943 -0.4385  0.2535 -0.1368
    5MOL   H316 3284   5.296   7.578   5.958  0.4789 -0.3331 -1.5724
    5MOL   H317 3285   5.248   7.476   6.084  1.1682  1.7181 -0.0101
    5MOL   H318 3286   5.061   7.593   5.882 -0.3502 -5.1074 -0.6774
    5MOL   H319 3287   5.014   7.505   6.026  0.7558  0.4816  3.2421
    5MOL   H320 3288   5.149   0.083   6.028  1.4084 -1.9811  2.0482
    5MOL   H321 3289   5.104   7.687   6.170  1.6576  0.1088 -0.5031
    5MOL   H322 3290   4.862   0.008   6.073 -0.9739  1.5024  1.9136
    5MOL   H323 3291   4.919   0.107   5.950  2.8097 -3.6757 -1.2098
    5MOL   H324 3292   5.002   0.276   6.116 -0.4107  1.9973  1.8125
    5MOL   H325 3293   4.975   0.174   6.243  0.5970  1.3280  0.0865
    5MOL   H326 3294   4.796   0.319   6.264  1.4629  0.9186 -0.4931
    5MOL   H327 3295   4.707   0.191   6.193 -1.6474  2.0551  1.5012
    5MOL   H328 3296   4.728   0.283   5.965 -2.0450  0.5460 -0.7489
    5MOL   H329 3297   4.826   0.413   6.038  0.1817  0.0566  1.4620
    5MOL   H330 3298   4.621   0.460   6.179  0.9348  0.1462 -0.4149
    5MOL   H331 3299   4.536   0.322   6.102  1.0699 -0.2998  0.7873
    5MOL   H332 3300   4.624   0.569   5.973  0.4366  0.5778  1.6384
    5MOL   H333 3301   4.456   0.551   6.003 -1.3939 -1.7723 -1.6438
    5MOL   H334 3302   4.592   0.422   5.777  0.3135 -2.2142 -0.0158
    5MOL   C335 3303   4.436   0.318   5.843 -0.2949  0.0143 -0.3954
    5MOL   O336 3304   4.348   0.306   5.921  0.0895 -0.9511  0.2796
    5MOL   C337 3305   4.438   0.227   5.725  0.5326  0.1875 -0.0757
    5MOL   C338 3306   4.407   0.079   5.774  0.3658  0.1283  0.4825
    5MOL   C339 3307   4.535   0.004   5.819  0.1669 -0.2166  0.2065
    5MOL   C340 3308   4.506   7.556   5.872  0.0563 -0.0515 -0.8312
    5MOL   C341 3309   4.625   7.496   5.954  0.4644  0.2066 -0.5866
    5MOL   C342 3310   4.586   7.348   5.988 -0.4165  0.0569 -0.0416
    5MOL   C343 3311   4.710   7.274   6.038  0.3357 -0.2497 -0.4490
    5MOL   C344 3312   4.691   7.118   6.067 -0.1097 -0.0565 -0.0846
    5MOL   C345 3313   4.813   7.041   6.128  0.0773 -0.0138 -0.1225
    5MOL   C346 3314   4.950   7.087   6.072 -0.8379 -0.0052  0.1525
    5MOL   C347 3315   5.056   6.983   6.118 -0.7978 -0.5648  0.2146
    5MOL   N348 3316   5.116   6.923   6.004  0.2482  0.6452 -0.3995
    5MOL   H349 3317   4.528   0.240   5.665 -0.3713 -0.5276 -1.6180
    5MOL   H350 3318   4.367   0.263   5.650  1.0669 -0.5892 -0.9626
    5MOL   H351 3319   4.331   0.079   5.852  0.6482  0.7224  0.7633
    5MOL   H352 3320   4.367   0.023   5.689  1.6111 -0.6459  0.3880
    5MOL   H353 3321   4.588   0.056   5.900 -0.5683  0.1536  0.4525
    5MOL   H354 3322   4.593   7.677   5.729 -0.9251 -0.4356 -0.4578
    5MOL   H355 3323   4.426   7.557   5.946 -0.7641  0.0332 -1.7110
    5MOL   H356 3324   4.467   7.498   5.788  0.4357 -1.2922 -0.1653
    5MOL   H357 3325   4.642   7.547   6.049 -0.9463 -0.7787  0.2145
    5MOL   H358 3326   4.717   7.496   5.896  1.1781  0.7950  0.5232
    5MOL   H359 3327   4.550   7.299   5.898 -0.7831  1.3286 -0.6083
    5MOL   H360 3328   4.506   7.356   6.061 -1.8466 -1.0550 -1.4640
    5MOL   H361 3329   4.743   7.315   6.133  0.7254  1.1849 -1.1860
    5MOL   H362 3330   4.797   7.293   5.974  0.5998  1.0005  0.2626
    5MOL   H363 3331   4.679   7.074   5.968 -1.3286  1.1994 -0.5120
    5MOL   H364 3332   4.604   7.104   6.131 -1.7885 -0.2316 -2.3366
    5MOL   H365 3333   4.801   6.933   6.124  2.6313 -0.4128  1.7698
    5MOL   H366 3334   4.817   7.071   6.232 -0.7676  0.7256 -0.2954
    5MOL   H367 3335   4.972   7.189   6.106 -0.1780 -0.6810  1.8144
    5MOL   H368 3336   4.955   7.086   5.963  1.0182 -3.5610  0.1961
    5MOL   H369 3337   5.010   6.916   6.190 -0.8496 -0.4842  0.2554
    5MOL   H370 3338   5.139   7.029   6.171 -1.2653  0.2488  0.2484
    5MOL   H371 3339   5.060   6.855   5.954  0.8378 -1.6851  2.0719
    5MOL   C372 3340   5.243   6.933   5.961 -0.1757  0.0271 -0.3201
    5MOL   O373 3341   5.328   6.984   6.031 -0.2053  0.3511  0.3975
    5MOL   C374 3342   5.281   6.863   5.831  0.1978  0.2812 -0.1154
    5MOL   C375 3343   5.434   6.850   5.801 -0.0194  0.4999  0.3531
    5MOL   C376 3344   5.501   6.741   5.890  0.1845 -0.0511  0.4002
    5MOL   C377 3345   5.652   6.714   5.849 -0.6312 -0.8977 -0.1115
    5MOL   C378 3346   5.706   6.581   5.898  0.2303 -0.7559  0.2135
    5MOL   C379 3347   5.860   6.570   5.877  0.0701 -0.2442 -0.5899
    5MOL   C380 3348   5.939   6.447   5.907 -0.1738  0.5015  0.5978
    5MOL   C381 3349   5.915   6.372   6.040  0.2311  0.3377  0.0430
    5MOL   C382 3350   6.014   6.263   6.073  0.3781 -0.4442  0.3742
    5MOL   C383 3351   5.986   6.133   6.003 -0.6796  0.9707  0.7342
    5MOL   C384 3352   6.074   6.018   6.050 -0.1005  0.6617  0.4416
    5MOL   N385 3353   6.211   6.054   6.058  0.0851  0.0580  0.4210
    5MOL   H386 3354   5.235   6.925   5.754  0.5838  0.6659 -0.0357
    5MOL   H387 3355   5.224   6.770   5.839 -1.5541  1.3929  0.5313
    5MOL   H388 3356   5.438   6.822   5.696 -0.1126 -1.3735  0.8314
    5MOL   H389 3357   5.482   6.948   5.807  0.5349  0.1766  1.5483
    5MOL   H390 3358   5.440   6.651   5.893  4.4307 -3.0432  2.7592
    5MOL   H391 3359   5.507   6.783   5.991 -0.1753  0.7608  0.0921
    5MOL   H392 3360   5.668   6.717   5.741  1.3708  0.3066  0.1943
    5MOL   H393 3361   5.711   6.798   5.884 -0.3627  0.7879 -4.3937
    5MOL   H394 3362   5.659   6.489   5.863 -0.0279 -0.9677  1.1009
    5MOL   H395 3363   5.695   6.573   6.007  1.9935 -1.5228  0.3568
    5MOL   H396 3364   5.914   6.646   5.935 -0.7030  2.8785 -3.8050
    5MOL   H397 3365   5.882   6.601   5.775 -1.2766 -0.0967 -0.8420
    5MOL   H398 3366   6.045   6.468   5.892  0.3122 -2.3683 -0.2420
    5MOL   H399 3367   5.920   6.379   5.824 -2.5059  2.2403 -0.3095
    5MOL   H400 3368   5.810   6.341   6.046 -0.3536  1.6997 -2.7511
    5MOL   H401 3369   5.934   6.449   6.115 -0.4334  2.1731 -1.6618
    5MOL   H402 3370   6.033   6.252   6.180 -1.2303 -4.1980  0.3243
    5MOL   H403 3371   6.111   6.292   6.032  1.2637 -0.1446  2.6011
    5MOL   H404 3372   5.986   6.157   5.897  0.6789 -1.1595  0.2204
    5MOL   H405 3373   5.884   6.104   6.026 -0.7039  0.2867 -0.2283
    5MOL   H406 3374   6.064   5.943   5.972  1.6149 -0.4254  1.2350
    5MOL   H407 3375   6.028   5.981   6.142  1.0401 -0.3975  0.5823
    5MOL   H408 3376   6.246   6.123   5.992 -2.4907  1.2028  0.1889
    5MOL   C409 3377   6.296   5.996   6.137  0.1194  0.1003  0.2475
    5MOL   O410 3378   6.265   5.892   6.196 -0.1257  0.1066 -0.6067
    5MOL   C411 3379   6.441   6.053   6.153  0.5945  0.1016  0.6828
    5MOL   C412 3380   6.528   5.990   6.271 -0.2011  0.6400 -0.7456
    5MOL   C413 3381   6.484   6.029   6.412  0.0409  0.0357 -0.1806
    5MOL   C414 3382   6.571   5.965   6.525  0.2482  0.3773 -0.5332
    5MOL   C415 3383   6.639   6.058   6.623  0.2927 -0.3390  0.2354
    5MOL   C416 3384   6.542   6.151   6.713  0.0451 -0.3041  0.0617
    5MOL   C417 3385   6.626   6.242   6.809  0.4060 -0.0278  0.1352
    5MOL   C418 3386   6.565   6.352   6.885 -0.0243 -0.3570  0.1990
    5MOL   C419 3387   6.540   6.475   6.792  0.3384 -0.1607  0.1527
    5MOL   C420 3388   6.474   6.588   6.866  1.0627  0.0307 -0.1833
    5MOL   C421 3389   6.437   6.709   6.779  0.4192 -0.4991  0.1713
    5MOL   N422 3390   6.560   6.775   6.738 -0.1116  0.3535 -0.0905
    5MOL   H423 3391   6.442   6.160   6.175 -0.9278  0.8696 -2.6658
    5MOL   H424 3392   6.496   6.026   6.063 -1.2971 -1.0967 -0.1323
    5MOL   H425 3393   6.519   5.881   6.266  1.1077  0.5108 -0.3060
    5MOL   H426 3394   6.634   6.008   6.255  0.4825 -3.7619 -2.0404
    5MOL   H427 3395   6.376   6.018   6.420  0.2992 -1.3004  1.9316
    5MOL   H428 3396   6.502   6.135   6.432 -0.4008  0.5025 -2.1733
    5MOL   H429 3397   6.497   5.901   6.573  0.9219 -0.2827 -0.3772
    5MOL   H430 3398   6.641   5.897   6.478  1.2794  1.2375 -0.2665
    5MOL   H431 3399   6.700   6.131   6.570  3.4524 -1.6976  1.8805
    5MOL   H432 3400   6.712   6.005   6.685  0.4032  0.4373  0.7648
    5MOL   H433 3401   6.470   6.094   6.772 -0.3629  1.0476  0.8992
    5MOL   H434 3402   6.483   6.207   6.641  1.7976 -0.0535 -1.2137
    5MOL   H435 3403   6.717   6.278   6.760 -1.2275  0.8709 -2.3412
    5MOL   H436 3404   6.670   6.179   6.886 -1.1101 -0.3038  0.7861
    5MOL   H437 3405   6.624   6.392   6.968 -0.2602 -1.4889  0.9277
    5MOL   H438 3406   6.473   6.310   6.924 -0.8577  2.0825  0.9421
    5MOL   H439 3407   6.485   6.448   6.701  1.5010  2.6064 -1.4390
    5MOL   H440 3408   6.634   6.513   6.752 -0.6129  3.0093  0.7739
    5MOL   H441 3409   6.530   6.620   6.954 -0.6519 -0.5389  1.1589
    5MOL   H442 3410   6.375   6.558   6.902  1.6112 -2.0237 -0.3184
    5MOL   H443 3411   6.372   6.781   6.829  1.8126  1.4176 -0.7271
    5MOL   H444 3412   6.382   6.664   6.697  2.0887 -1.7933 -0.2566
    5MOL   H445 3413   6.578   6.785   6.639 -2.0948  2.2532 -0.2989
    5MOL   C446 3414   6.623   6.860   6.819  0.3957  0.2910 -0.9861
    5MOL   O447 3415   6.586   6.870   6.935  0.4344  0.2724 -0.5148
    5MOL   C448 3416   6.729   6.953   6.759 -0.8106  0.3196 -0.5442
    5MOL   C449 3417   6.871   6.920   6.792 -0.1944  0.2581 -0.1769
    5MOL   C450 3418   6.977   7.030   6.767  0.7944  0.3526 -0.0062
    5MOL   C451 3419   6.991   7.074   6.620  0.4754  0.2193 -0.3910
    5MOL   C452 3420   7.126   7.126   6.578 -0.0006  0.3892 -0.4825
    5MOL   C453 3421   7.132   7.216   6.453  0.8904 -0.2606 -0.4871
    5MOL   C454 3422   7.075   7.154   6.321 -0.8099 -0.1177  0.2915
    5MOL   C455 3423   7.028   7.259   6.219 -0.3252 -0.1475 -0.9623
    5MOL   C456 3424   7.144   7.322   6.133 -0.4554  0.1234  0.2582
    5MOL   C457 3425   7.098   7.402   6.011 -0.0705  0.5984 -0.0522
    5MOL   C458 3426   7.214   7.483   5.952  0.4136 -0.5560 -0.2931
    5MOL   N459 3427   7.336   7.402   5.915 -0.9301 -0.0259  0.5883
    5MOL   H460 3428   6.700   7.048   6.804  3.0883  0.4055  1.9656
    5MOL   H461 3429   6.711   6.980   6.655  0.3869  1.0295 -0.5833
    5MOL   H462 3430   6.868   6.895   6.898  1.8596  2.6398  0.5076
    5MOL   H463 3431   6.909   6.832   6.741 -1.1711  0.7204 -1.7262
    5MOL   H464 3432   7.070   6.989   6.807  0.4625 -0.2955  0.1110
    5MOL   H465 3433   6.954   7.124   6.818 -0.3577  0.9402 -1.5605
    5MOL   H466 3434   6.973   6.989   6.555  2.3167 -0.1775 -0.4322
    5MOL   H467 3435   6.908   7.139   6.597 -3.2994 -3.3954  2.2777
    5MOL   H468 3436   7.198   7.047   6.561  1.0022  0.9128  1.2287
    5MOL   H469 3437   7.164   7.183   6.663  2.3719  0.1580 -1.3493
    5MOL   H470 3438   7.233   7.248   6.427  1.3421 -0.7205  0.6352
    5MOL   H471 3439   7.083   7.312   6.467  1.3507  0.1408 -1.6051
    5MOL   H472 3440   6.992   7.085   6.341  0.3290 -1.5169  0.2749
    5MOL   H473 3441   7.145   7.078   6.286  0.7694  1.0827  0.8063
    5MOL   H474 3442   6.966   7.333   6.269  0.3346  0.2146 -0.6814
    5MOL   H475 3443   6.958   7.221   6.145 -0.3910  1.0506 -1.5244
    5MOL   H476 3444   7.210   7.245   6.093  2.7963  2.5669  0.7250
    5MOL   H477 3445   7.216   7.383   6.186  1.0050 -1.4887  0.1894
    5MOL   H478 3446   7.020   7.477   6.029  0.4545  0.6874  1.9325
    5MOL   H479 3447   7.044   7.346   5.934 -0.0185  1.6225 -0.8524
    5MOL   H480 3448   7.252   7.551   6.028 -0.2838 -2.9392  2.2681
    5MOL   H481 3449   7.174   7.538   5.867  1.8067  0.8303 -0.0641
    5MOL   H482 3450   7.401   7.375   5.988 -1.0507  1.0285  1.0847
    5MOL   C483 3451   7.363   7.354   5.795  0.5861  0.3635 -1.2658
    5MOL   O484 3452   7.280   7.364   5.710 -0.4834  0.3380  0.9575
    5MOL   C485 3453   7.497   7.275   5.773  0.6227  0.6223 -0.3269
    5MOL   C486 3454   7.590   7.376   5.698  0.6927  0.3194  0.1840
    5MOL   C487 3455   0.033   7.311   5.672  0.3844  0.4455  0.1194
    5MOL   C488 3456   0.028   7.208   5.554  0.7167 -0.7469 -0.9949
    5MOL   C489 3457   0.169   7.166   5.509  0.1129  0.0097  0.5137
    5MOL   C490 3458   0.258   7.272   5.443  0.4657 -0.5689 -0.0494
    5MOL   C491 3459   0.407   7.226   5.426 -0.1953 -0.3653 -0.0576
    5MOL   C492 3460   0.509   7.329   5.379  0.0429 -0.1869  0.5373
    5MOL   C493 3461   0.515   7.349   5.229 -0.2048 -0.3766 -0.4161
    5MOL   C494 3462   0.386   7.409   5.162  0.0486 -0.3900  0.4698
    5MOL   C495 3463   0.402   7.473   5.025 -0.0507  0.6473  0.0580
    5MOL   N496 3464   0.408   7.369   4.924  0.9304 -0.3431  0.2810
    5MOL   H497 3465   7.470   7.183   5.722 -2.8832 -0.5466  3.3668
    5MOL   H498 3466   7.547   7.245   5.866  1.7753  0.1667 -1.0821
    5MOL   H499 3467   7.547   7.408   5.603 -0.8965 -0.2698  0.6834
    5MOL   H500 3468   7.609   7.465   5.758 -1.4683  1.4461 -0.7628
    5MOL   H501 3469   0.076   7.262   5.759  2.9129 -1.4531 -2.0871
    5MOL   H502 3470   0.100   7.394   5.648 -0.5384  1.4581  0.9895
    5MOL   H503 3471   7.672   7.118   5.590  1.1996 -0.1718  1.2170
    5MOL   H504 3472   7.671   7.252   5.469 -0.7907 -1.6653 -0.5815
    5MOL   H505 3473   0.153   7.083   5.441 -4.2570  2.3593 -1.5437
    5MOL   H506 3474   0.228   7.120   5.588  2.7861 -0.4622 -1.7055
    5MOL   H507 3475   0.258   7.373   5.485  0.1820 -0.5047 -0.2051
    5MOL   H508 3476   0.225   7.305   5.344 -1.2985 -0.8837  0.4227
    5MOL   H509 3477   0.393   7.139   5.362 -1.3866 -1.1842  1.2702
    5MOL   H510 3478   0.447   7.177   5.515 -0.4039 -1.6524 -0.6679
    5MOL   H511 3479   0.602   7.293   5.423  0.4620  1.1980  0.8051
    5MOL   H512 3480   0.492   7.423   5.432  1.2320  0.8121 -0.7987
    5MOL   H513 3481   0.539   7.249   5.193 -4.2629 -1.3550 -0.6484
    5MOL   H514 3482   0.598   7.417   5.212  1.1263 -1.5998  1.0656
    5MOL   H515 3483   0.347   7.485   5.231  0.2158  0.4059 -0.2970
    5MOL   H516 3484   0.307   7.334   5.150 -1.5189  1.0069  1.7315
    5MOL   H517 3485   0.481   7.549   5.016  0.1058  1.1109  4.2080
    5MOL   H518 3486   0.312   7.528   4.997 -0.9657 -0.5860  0.5274
    5MOL   H519 3487   0.321   7.323   4.902  0.3380  0.5060  0.7757
    5MOL   C520 3488   0.511   7.346   4.840  1.0269  0.4472  0.0491
    5MOL   O521 3489   0.620   7.397   4.864  0.6910 -0.4333 -0.3764
    5MOL   C522 3490   0.479   7.258   4.715 -0.8082 -0.4885 -0.0793
    5MOL   C523 3491   0.605   7.198   4.656  0.4076  0.4182 -0.3232
    5MOL   C524 3492   0.664   7.076   4.735 -0.2278  0.1347 -0.0906
    5MOL   C525 3493   0.764   7.095   4.859 -0.9562  0.6652 -0.0282
    5MOL   C526 3494   0.864   6.984   4.899  0.2638  0.3171  0.0045
    5MOL   C527 3495   0.917   7.011   5.041 -0.5074  0.0857 -0.6203
    5MOL   C528 3496   1.040   6.923   5.061  0.8914 -0.3505 -0.0942
    5MOL   C529 3497   1.120   6.976   5.177 -0.1412 -0.3125 -0.0608
    5MOL   C530 3498   1.243   6.888   5.213  0.5824 -0.2242  0.1859
    5MOL   C531 3499   1.291   6.939   5.348  0.1183 -0.5907 -0.1102
    5MOL   C532 3500   1.442   6.924   5.375  0.4513  0.1635  0.5234
    5MOL   N533 3501   1.475   6.993   5.500 -0.5859 -0.1537 -0.2898
    5MOL   H534 3502   0.446   7.326   4.637 -1.7870 -0.6780  0.1673
    5MOL   H535 3503   0.392   7.193   4.728  2.0721 -4.6126 -0.2996
    5MOL   H536 3504   0.580   7.168   4.554 -2.7581  2.8668 -0.3483
    5MOL   H537 3505   0.672   7.283   4.640 -1.1482  2.0207  1.4505
    5MOL   H538 3506   0.714   7.008   4.665  1.4331 -0.4174  1.5778
    5MOL   H539 3507   0.578   7.011   4.756  1.3638 -2.0096  0.0165
    5MOL   H540 3508   0.818   7.190   4.859 -0.7943  0.5919 -1.2679
    5MOL   H541 3509   0.691   7.100   4.940  0.0662 -1.2405  1.0348
    5MOL   H542 3510   0.937   6.960   4.821  0.0903 -0.7271  0.1614
    5MOL   H543 3511   0.809   6.890   4.906  0.6770  0.0550 -0.2206
    5MOL   H544 3512   0.847   7.008   5.125  1.9602  1.4662  1.5790
    5MOL   H545 3513   0.959   7.112   5.043 -0.7146  0.1831 -1.0831
    5MOL   H546 3514   1.100   6.936   4.971  0.1006  1.8368 -0.3308
    5MOL   H547 3515   1.028   6.816   5.074  0.3482 -0.2972 -0.1425
    5MOL   H548 3516   1.053   6.986   5.262  0.5737 -1.6709  0.6927
    5MOL   H549 3517   1.160   7.077   5.163  0.9610 -0.7862 -0.3893
    5MOL   H550 3518   1.310   6.893   5.128  0.6255  2.3463  0.3318
    5MOL   H551 3519   1.202   6.787   5.213  0.7438 -0.3068  1.9605
    5MOL   H552 3520   1.232   6.887   5.424  0.5497  0.8638  1.2423
    5MOL   H553 3521   1.276   7.046   5.354  1.6130 -0.4863  2.1483
    5MOL   H554 3522   1.495   6.969   5.291  1.3820  1.2600  1.6751
    5MOL   H555 3523   1.474   6.820   5.387  1.1449  0.4349  1.0733
    5MOL   H556 3524   1.528   7.078   5.488 -1.5861  0.2918 -1.7157
    5MOL   C557 3525   1.452   6.945   5.622  0.1135 -0.1040  0.0982
    5MOL   O558 3526   1.372   6.853   5.636  0.0570 -0.0602 -0.0636
    5MOL   C559 3527   1.532   7.008   5.732  0.4960 -0.0022  0.3306
    5MOL   C560 3528   1.455   7.117   5.796 -0.9925 -0.2851 -0.2156
    5MOL   C561 3529   1.452   7.249   5.711  0.6426  0.8982 -0.1244
    5MOL   C562 3530   1.370   7.354   5.784 -0.2349 -0.3482  0.0644
    5MOL   C563 3531   1.391   7.491   5.717  0.4164 -0.5190 -0.0369
    5MOL   C564 3532   1.279   7.592   5.765 -1.0149  0.1434  0.1825
    5MOL   C565 3533   1.290   0.023   5.680  0.2554 -0.4290 -0.3825
    5MOL   C566 3534   1.220   0.013   5.547  0.0190  0.4011 -0.4258
    5MOL   C567 3535   1.228   0.134   5.451 -0.5644 -0.2422  0.5172
    5MOL   C568 3536   1.109   0.124   5.348 -0.3473 -0.0623 -0.7673
    5MOL   C569 3537   1.143   0.225   5.238  0.2906  0.7390 -0.0350
    5MOL   N570 3538   1.064   0.201   5.120  0.2047  0.3462  0.0039
    5MOL   H571 3539   1.631   7.040   5.700  1.0657 -1.7120  0.3365
    5MOL   H572 3540   1.545   6.924   5.801  0.8016  3.0032  4.0492
    5MOL   H573 3541   1.351   7.085   5.806 -0.6831 -1.2913 -0.2338
    5MOL   H574 3542   1.482   7.140   5.899 -0.3491  0.8523 -0.6242
    5MOL   H575 3543   1.411   7.224   5.613 -0.5113 -0.3763  0.6673
    5MOL   H576 3544   1.557   7.276   5.699  1.0062  0.2428  1.3974
    5MOL   H577 3545   1.263   7.338   5.780 -0.4500  1.2768 -1.3250
    5MOL   H578 3546   1.411   7.366   5.885  1.6338 -0.5267 -0.6566
    5MOL   H579 3547   1.389   7.492   5.608  2.2551  1.5375 -0.0966
    5MOL   H580 3548   1.493   7.518   5.746  0.7487 -0.7862 -0.9492
    5MOL   H581 3549   1.308   7.611   5.868 -2.0301  0.2651  0.4439
    5MOL   H582 3550   1.178   7.553   5.760 -1.3353  1.1332 -1.5756
    5MOL   H583 3551   1.397   0.036   5.667  0.6312  0.0102  2.7516
    5MOL   H584 3552   1.249   0.107   5.737 -1.9924 -1.2712 -0.6930
    5MOL   H585 3553   1.116   0.004   5.580  1.1557 -0.9500  2.9698
    5MOL   H586 3554   1.241   7.612   5.498 -0.9849  0.5601 -1.1999
    5MOL   H587 3555   1.329   0.138   5.410  0.6780  3.3259  3.6550
    5MOL   H588 3556   1.232   0.228   5.505  0.0304  0.5781 -0.9213
    5MOL   H589 3557   1.019   0.157   5.400  0.1304  0.0114  0.0227
    5MOL   H590 3558   1.094   0.026   5.301 -2.7124 -0.1337  0.0703
    5MOL   H591 3559   1.248   0.233   5.211  1.2267 -0.4874  3.0328
    5MOL   H592 3560   1.118   0.325   5.276 -0.1467  0.6417 -0.0621
    5MOL   H593 3561   1.018   0.111   5.114  2.0327 -0.7029  1.0678
    5MOL   C594 3562   1.046   0.290   5.022 -0.8055  0.6571 -0.4775
    5MOL   O595 3563   1.103   0.397   5.029 -0.1527  0.5019  0.3280
    5MOL   C596 3564   0.959   0.261   4.903 -0.2561 -0.4329 -0.1278
    5MOL   C597 3565   0.855   0.359   4.888  0.1909 -0.1846  0.1889
    5MOL   C598 3566   0.886   0.470   4.780  0.0115  0.5860 -0.2192
    5MOL   C599 3567   0.758   0.551   4.752  0.1368  0.2770  0.7037
    5MOL   C600 3568   0.776   0.670   4.654  0.6944 -0.5424  0.8262
    5MOL   C601 3569   0.789   0.800   4.729 -0.2038  0.0180 -0.4300
    5MOL   C602 3570   0.797   0.926   4.637 -0.6428 -0.0283 -0.2560
    5MOL   C603 3571   0.940   0.948   4.599  0.0518  1.1638  0.0504
    5MOL   C604 3572   0.965   1.090   4.540  0.0064 -0.1710 -0.2267
    5MOL   C605 3573   0.922   1.101   4.392 -0.3893  0.3560 -0.6825
    5MOL   C606 3574   0.927   1.243   4.338  0.0353  0.5691  0.3781
    5MOL   N607 3575   0.889   1.242   4.196 -0.5331 -0.1347 -0.2729
    5MOL   H608 3576   0.902   0.173   4.934  1.3909 -1.1579  0.9412
    5MOL   H609 3577   1.012   0.244   4.809  0.8053 -3.0154  0.8882
    5MOL   H610 3578   0.775   0.292   4.858 -0.8315 -0.7083  3.8061
    5MOL   H611 3579   0.833   0.408   4.983  0.7816  2.2476 -0.8822
    5MOL   H612 3580   0.916   0.417   4.689 -1.6405  1.8386 -1.5518
    5MOL   H613 3581   0.973   0.522   4.820  0.5741 -1.0407  0.7106
    5MOL   H614 3582   0.686   0.482   4.707 -0.9281  2.0216 -0.3532
    5MOL   H615 3583   0.701   0.581   4.840 -0.7927 -1.4066  0.6937
    5MOL   H616 3584   0.689   0.673   4.589  1.2635 -2.8389 -0.1148
    5MOL   H617 3585   0.851   0.651   4.578  0.0932 -0.4766  0.2174
    5MOL   H618 3586   0.867   0.794   4.805 -0.9865  0.2250  0.4038
    5MOL   H619 3587   0.696   0.815   4.784 -0.3121 -0.0003 -0.6084
    5MOL   H620 3588   0.769   1.010   4.701 -1.5254 -1.0718  0.7555
    5MOL   H621 3589   0.729   0.920   4.553  0.3296 -0.8955 -1.0003
    5MOL   H622 3590   0.967   0.869   4.528  1.8524  2.2122 -0.4552
    5MOL   H623 3591   0.999   0.946   4.690 -2.3090 -0.3927  1.5902
    5MOL   H624 3592   1.070   1.111   4.560 -0.5197  1.8850  0.4553
    5MOL   H625 3593   0.907   1.160   4.599  0.4268 -0.1155  0.1243
    5MOL   H626 3594   0.820   1.068   4.372 -0.4999  0.3685 -0.1272
    5MOL   H627 3595   0.988   1.040   4.330 -0.8732 -0.1988 -0.6488
    5MOL   H628 3596   1.031   1.275   4.346 -0.0016  0.8340 -0.1704
    5MOL   H629 3597   0.860   1.311   4.391  0.1754 -0.5164  2.0096
    5MOL   H630 3598   0.968   1.259   4.136  0.0336 -1.8196 -0.0156
    5MOL   C631 3599   0.768   1.246   4.141 -0.3528  0.1910 -0.3220
    5MOL   O632 3600   0.663   1.220   4.210 -0.5564  0.0683 -0.0553
    5MOL   C633 3601   0.761   1.230   3.990  0.2319  0.4230 -0.4965
    5MOL   C634 3602   0.636   1.298   3.928  0.8423  0.4117 -0.1897
    5MOL   C635 3603   0.518   1.201   3.906 -0.3513  0.5930 -0.0152
    5MOL   C636 3604   0.391   1.265   3.844  0.7825 -0.0990  0.0202
    5MOL   C637 3605   0.401   1.326   3.706  0.0620  0.0772  0.0859
    5MOL   C638 3606   0.468   1.229   3.604 -0.4136  0.1838  0.1149
    5MOL   C639 3607   0.459   1.281   3.456  0.0438 -0.6394 -0.5880
    5MOL   C640 3608   0.535   1.415   3.436 -0.6133 -0.1515 -0.9722
    5MOL   C641 3609   0.492   1.490   3.320 -0.0116 -0.2100 -0.1319
    5MOL   C642 3610   0.608   1.573   3.259  0.2791 -1.1713  0.5626
    5MOL   C643 3611   0.558   1.664   3.150  0.5557 -0.5707  0.4970
    5MOL   N644 3612   0.480   1.773   3.198  0.8944 -0.4146 -0.1428
    5MOL   H645 3613   0.758   1.124   3.964 -1.5326  0.1942  0.5134
    5MOL   H646 3614   0.845   1.257   3.926  0.2441 -2.0165 -1.5369
    5MOL   H647 3615   0.602   1.383   3.987  0.6024 -0.4249  0.8997
    5MOL   H648 3616   0.652   1.340   3.828 -2.5049 -0.6274 -1.2243
    5MOL   H649 3617   0.488   1.154   4.000  1.1663  1.8229  1.1261
    5MOL   H650 3618   0.546   1.112   3.850  1.0692 -0.6425  2.5790
    5MOL   H651 3619   0.317   1.185   3.833  1.1357 -0.3359 -0.6748
    5MOL   H652 3620   0.348   1.341   3.910 -2.0622 -1.1248 -0.5683
    5MOL   H653 3621   0.466   1.412   3.727  0.2741  0.3707 -1.7214
    5MOL   H654 3622   0.305   1.372   3.680 -0.3539 -2.1790 -2.6179
    5MOL   H655 3623   0.414   1.134   3.608  0.7795 -0.4481  2.2259
    5MOL   H656 3624   0.571   1.217   3.638 -0.0612  1.6723 -0.4046
    5MOL   H657 3625   0.355   1.291   3.424 -0.4999 -2.1016  0.6700
    5MOL   H658 3626   0.483   1.217   3.371  2.6284  1.2403 -1.3228
    5MOL   H659 3627   0.640   1.389   3.428 -0.4461  0.1110  0.1740
    5MOL   H660 3628   0.531   1.481   3.523  1.3457  2.2960 -2.6871
    5MOL   H661 3629   0.399   1.543   3.341 -0.6806 -1.6234  0.5079
    5MOL   H662 3630   0.468   1.414   3.246 -0.5929 -1.0605  0.9221
    5MOL   H663 3631   0.685   1.508   3.216 -0.9873 -1.1445 -1.8422
    5MOL   H664 3632   0.661   1.633   3.333  0.3107 -0.5018  0.0017
    5MOL   H665 3633   0.495   1.605   3.084  2.3049 -0.8087 -1.0154
    5MOL   H666 3634   0.647   1.698   3.097  1.4309 -0.0193  2.2793
    5MOL   H667 3635   0.452   1.783   3.294 -0.3273  1.3176 -0.6631
    5MOL   C668 3636   0.446   1.873   3.114  0.3559 -0.6801 -0.1861
    5MOL   O669 3637   0.470   1.876   2.991  0.3063  0.4678 -0.2892
    5MOL   C670 3638   0.389   1.996   3.183  0.3888 -0.0862  0.2367
    5MOL   C671 3639   0.425   2.127   3.113 -0.2297 -0.5048 -0.1909
    5MOL   C672 3640   0.407   2.253   3.198  0.9081  0.4233 -0.2234
    5MOL   C673 3641   0.467   2.375   3.130 -0.2217  0.1050  0.1582
    5MOL   C674 3642   0.422   2.507   3.196  0.3381 -0.0991  0.1888
    5MOL   C675 3643   0.498   2.633   3.145 -0.3051 -0.0718 -0.0657
    5MOL   C676 3644   0.649   2.612   3.139  0.1102 -1.4103 -0.4211
    5MOL   C677 3645   0.704   2.574   3.281  0.6108  1.0630  0.2103
    5MOL   C678 3646   0.855   2.570   3.288 -0.1194  0.0872  0.8792
    5MOL   C679 3647   0.932   2.702   3.260  0.2632  0.0212  0.4241
    5MOL   C680 3648   0.918   2.808   3.368  0.0035 -0.3284 -0.4414
    5MOL   N681 3649   0.967   2.776   3.500  0.4177  0.0592  0.3706
    5MOL   H682 3650   0.431   1.993   3.283 -1.2393 -0.4796  0.9281
    5MOL   H683 3651   0.280   1.999   3.184  0.4078  0.7174  0.1743
    5MOL   H684 3652   0.529   2.117   3.081  0.2025  1.0781  0.6505
    5MOL   H685 3653   0.358   2.134   3.027  0.4084  3.1620 -0.4674
    5MOL   H686 3654   0.448   2.249   3.299  0.4430  0.8805 -0.0094
    5MOL   H687 3655   0.299   2.264   3.209  0.5872 -0.0738 -2.5879
    5MOL   H688 3656   0.575   2.367   3.131 -0.1883  0.4908 -0.1952
    5MOL   H689 3657   0.432   2.386   3.028  1.5068 -0.9195 -0.5555
    5MOL   H690 3658   0.439   2.500   3.303  0.8831 -2.0973  0.0102
    5MOL   H691 3659   0.314   2.507   3.181  0.4491  1.2046 -0.6465
    5MOL   H692 3660   0.470   2.723   3.198  0.1555 -0.2567  0.4912
    5MOL   H693 3661   0.471   2.657   3.042 -1.9958  0.3140  0.4452
    5MOL   H694 3662   0.694   2.706   3.109 -1.1083 -0.7067 -0.1105
    5MOL   H695 3663   0.673   2.546   3.056  1.6631 -1.5614  0.1347
    5MOL   H696 3664   0.672   2.478   3.323 -0.1412  1.0366 -0.4202
    5MOL   H697 3665   0.671   2.649   3.352  1.2473  0.7681  0.8307
    5MOL   H698 3666   0.890   2.496   3.216 -1.1300  0.3786  0.0792
    5MOL   H699 3667   0.880   2.532   3.387 -0.7603 -0.9993  0.6333
    5MOL   H700 3668   0.909   2.753   3.166 -0.1855  0.9608  1.0358
    5MOL   H701 3669   1.038   2.678   3.251 -0.4157 -2.3982 -1.9052
    5MOL   H702 3670   0.814   2.840   3.372 -0.4336 -1.8000  0.1555
    5MOL   H703 3671   0.973   2.898   3.339 -1.0632  0.7653  0.8748
    5MOL   H704 3672   0.985   2.678   3.513  0.9983  0.0362 -0.5593
    5MOL   C705 3673   0.985   2.857   3.604  0.4069 -0.2180  0.1956
    5MOL   O706 3674   0.950   2.975   3.598 -0.1246 -0.0189  0.0838
    5MOL   C707 3675   1.063   2.819   3.731  0.5854  0.5859  0.0454
    5MOL   C708 3676   0.993   2.824   3.867  0.3293 -0.1781 -0.9643
    5MOL   C709 3677   1.087   2.821   3.989  0.3503  0.4325 -0.0728
    5MOL   C710 3678   1.002   2.822   4.121 -0.6931 -0.1437 -0.0775
    5MOL   C711 3679   0.929   2.692   4.155 -0.8588 -0.8317  0.2943
    5MOL   C712 3680   1.029   2.591   4.206  0.4383 -0.4467  0.0046
    5MOL   C713 3681   0.976   2.449   4.203 -0.5059  0.2001  0.2649
    5MOL   C714 3682   1.064   2.340   4.265  0.4389 -0.2014 -0.1622
    5MOL   C715 3683   1.060   2.340   4.419  0.3689 -1.1417 -0.6770
    5MOL   C716 3684   1.186   2.301   4.484 -1.1564  0.2319 -0.2661
    5MOL   C717 3685   1.176   2.252   4.632 -0.0439  0.4872 -0.4231
    5MOL   N718 3686   1.298   2.205   4.684 -0.0115 -0.5600  0.6110
    5MOL   H719 3687   1.157   2.875   3.732  0.2515  1.1573 -0.3085
    5MOL   H720 3688   1.099   2.716   3.734 -0.2113  0.2751 -0.7955
    5MOL   H721 3689   0.939   2.918   3.868 -0.8532 -0.8576 -0.7251
    5MOL   H722 3690   0.920   2.744   3.873  0.6482 -0.2803  2.9108
    5MOL   H723 3691   1.155   2.907   3.991  1.4714 -0.4745  1.4818
    5MOL   H724 3692   1.152   2.733   3.989  0.4552  0.4568  3.1515
    5MOL   H725 3693   1.071   2.848   4.201  1.7511 -3.8185 -0.8662
    5MOL   H726 3694   0.938   2.910   4.109  0.8586  1.1318  0.9259
    5MOL   H727 3695   0.867   2.661   4.070 -1.3428 -0.1267  0.3928
    5MOL   H728 3696   0.855   2.714   4.231 -0.7685 -0.2110  0.2022
    5MOL   H729 3697   1.045   2.621   4.310  2.4905 -0.4508 -0.2940
    5MOL   H730 3698   1.124   2.595   4.153  0.0313 -1.3489 -0.7901
    5MOL   H731 3699   0.955   2.425   4.099  1.2424 -0.2640  0.0167
    5MOL   H732 3700   0.876   2.440   4.246 -0.6766  0.5358 -0.0616
    5MOL   H733 3701   1.168   2.358   4.239  0.1021  1.8732 -0.1951
    5MOL   H734 3702   1.033   2.242   4.230 -1.2247  0.4404 -0.5372
    5MOL   H735 3703   0.992   2.262   4.452 -1.1588  0.0829 -0.8521
    5MOL   H736 3704   1.033   2.438   4.459  1.3612 -1.2158  0.2324
    5MOL   H737 3705   1.260   2.380   4.473  0.9560 -1.7652 -0.8743
    5MOL   H738 3706   1.233   2.218   4.430  0.6595  0.7596  0.4760
    5MOL   H739 3707   1.102   2.172   4.632  2.7578 -2.2178  0.9440
    5MOL   H740 3708   1.134   2.338   4.685  3.9620  1.9296  0.6761
    5MOL   H741 3709   1.305   2.110   4.652  0.5947 -1.7838  4.0970
    5MOL   H742 3710   1.287   2.201   4.785 -1.2196  2.3082  0.6351
    6MOL     C1 3711   7.285   6.790   1.287  0.4280  0.4960 -0.2276
    6MOL     O2 3712   7.180   6.817   1.226 -0.4489  0.0381 -0.7262
    6MOL     C3 3713   7.368   6.659   1.263 -0.4180  0.1427 -0.2459
    6MOL     C4 3714   7.475   6.675   1.148  0.3178  0.5781  0.4155
    6MOL     C5 3715   7.599   6.759   1.191  0.4504 -0.7256 -0.0232
    6MOL     C6 3716   7.683   6.692   1.300 -0.5809  0.2818 -0.5319
    6MOL     C7 3717   0.093   6.594   1.242 -0.1569 -0.5277 -0.3447
    6MOL     C8 3718   0.193   6.541   1.352 -0.7260 -0.0988 -0.1468
    6MOL     C9 3719   0.306   6.461   1.287  0.3673  0.2391  0.6460
    6MOL    C10 3720   0.377   6.379   1.388 -0.2106  0.3706 -0.7060
    6MOL    C11 3721   0.493   6.297   1.324 -0.2772  0.5714  0.6818
    6MOL    C12 3722   0.600   6.262   1.423 -1.0866  0.1762  0.0078
    6MOL    C13 3723   0.725   6.189   1.355  0.3222  0.5900  0.0660
    6MOL    N14 3724   0.794   6.283   1.273 -0.2927  0.0315  0.3005
    6MOL    H15 3725   7.292   6.590   1.226 -0.0862 -1.2816  1.6332
    6MOL    H16 3726   7.406   6.601   1.348  2.5883 -0.9028 -2.2446
    6MOL    H17 3727   7.506   6.578   1.111 -0.1751  0.8295 -0.6864
    6MOL    H18 3728   7.420   6.722   1.066  0.5056  1.4209  0.7643
    6MOL    H19 3729   7.560   6.853   1.231 -0.7566 -1.2093 -0.0596
    6MOL    H20 3730   7.660   6.792   1.107  0.6100  0.3664  0.5113
    6MOL    H21 3731   0.041   6.775   1.347 -0.3206 -0.3094  0.2456
    6MOL    H22 3732   7.617   6.635   1.367  0.7594  1.8598  2.2138
    6MOL    H23 3733   0.139   6.648   1.159 -1.8136  2.1549  0.4128
    6MOL    H24 3734   0.041   6.502   1.216 -1.4419  0.6516 -1.9956
    6MOL    H25 3735   0.146   6.483   1.431 -1.8998  0.9469 -0.0686
    6MOL    H26 3736   0.248   6.620   1.402  1.6594 -1.3856 -0.6430
    6MOL    H27 3737   0.388   6.523   1.251  1.2194 -1.8303 -1.0387
    6MOL    H28 3738   0.260   6.408   1.204  0.0529  1.2576  0.1631
    6MOL    H29 3739   0.303   6.310   1.429 -1.8288  2.6765  0.3819
    6MOL    H30 3740   0.409   6.444   1.468 -3.0562 -2.4419  2.9202
    6MOL    H31 3741   0.525   6.347   1.233 -1.7151 -0.0223 -0.1730
    6MOL    H32 3742   0.440   6.214   1.276 -1.1257  1.2451  0.4452
    6MOL    H33 3743   0.557   6.198   1.500 -0.5056  1.1377  1.1535
    6MOL    H34 3744   0.642   6.346   1.479 -0.5176  0.1106 -0.3158
    6MOL    H35 3745   0.682   6.110   1.294 -0.8891  2.2900 -1.3138
    6MOL    H36 3746   0.801   6.149   1.422  3.0451  1.7103 -2.2859
    6MOL    H37 3747   0.771   6.381   1.287 -0.5522  0.2354 -1.4212
    6MOL    H38 3748   7.322   6.858   1.364 -0.4102  1.4792 -0.6902
    6MOL    C39 3749   0.869   6.247   1.168 -0.2819  0.1937  0.8696
    6MOL    O40 3750   0.899   6.136   1.140 -0.2800 -0.0467 -0.5692
    6MOL    C41 3751   0.918   6.362   1.078 -0.4861 -0.5824  0.2791
    6MOL    C42 3752   1.018   6.327   0.972 -0.6216 -0.2591 -0.4992
    6MOL    C43 3753   0.977   6.222   0.865  0.4825 -0.1052 -0.1234
    6MOL    C44 3754   1.074   6.199   0.751  0.4937  0.3349  0.2764
    6MOL    C45 3755   1.022   6.087   0.658 -0.2820 -0.5330 -0.8718
    6MOL    C46 3756   1.126   6.039   0.556  0.2172  0.1284  0.2835
    6MOL    C47 3757   1.052   5.955   0.435 -0.3170  0.0507 -0.2216
    6MOL    C48 3758   1.150   5.910   0.325 -0.0923 -0.8434  0.3311
    6MOL    C49 3759   1.083   5.828   0.208  0.3317  0.3497 -0.6483
    6MOL    C50 3760   1.175   5.787   0.092  0.1288 -0.5573 -0.5123
    6MOL    C51 3761   1.096   5.752   7.662 -0.8978  0.1855 -0.7145
    6MOL    N52 3762   1.183   5.728   7.546 -0.4529 -0.2960 -0.1466
    6MOL    H53 3763   0.970   6.424   1.151  1.0578 -1.6586  0.1216
    6MOL    H54 3764   0.842   6.428   1.036  0.4905  0.2981 -0.1157
    6MOL    H55 3765   1.065   6.415   0.926 -1.0911  1.1659  1.6869
    6MOL    H56 3766   1.097   6.278   1.028  0.3453  2.6169  0.7714
    6MOL    H57 3767   0.889   6.271   0.823  0.5964 -0.9259 -1.3270
    6MOL    H58 3768   0.928   6.133   0.904  0.8845  0.2135  1.1438
    6MOL    H59 3769   1.090   6.291   0.695 -0.4449  0.9879  1.0823
    6MOL    H60 3770   1.171   6.175   0.794  0.6521  0.3126 -0.0946
    6MOL    H61 3771   0.933   6.130   0.612  0.6521  2.1547 -0.2918
    6MOL    H62 3772   0.999   6.000   0.719 -0.4623 -1.4588 -2.2273
    6MOL    H63 3773   1.218   5.997   0.596  0.1576 -0.4816 -0.2120
    6MOL    H64 3774   1.162   6.130   0.509  1.0287 -0.3808 -0.0955
    6MOL    H65 3775   0.968   6.017   0.407  0.5969  0.9991 -0.9062
    6MOL    H66 3776   1.015   5.858   0.469  1.7370 -0.7112 -0.0891
    6MOL    H67 3777   1.238   5.855   0.356  2.8278  4.7934  2.7270
    6MOL    H68 3778   1.193   6.000   0.282  0.2434 -1.2860 -0.2558
    6MOL    H69 3779   0.998   5.884   0.169 -1.4097 -1.3062  0.6846
    6MOL    H70 3780   1.036   5.740   0.253  4.0078 -2.1362 -1.4255
    6MOL    H71 3781   1.237   5.705   0.128 -1.4904 -2.4308 -1.8642
    6MOL    H72 3782   1.245   5.868   0.069  0.3516 -0.7920 -0.6579
    6MOL    H73 3783   1.031   5.838   7.641  2.7856  3.3025  0.0459
    6MOL    H74 3784   1.027   5.669   7.675 -0.1750 -0.3515 -0.3384
    6MOL    H75 3785   1.238   5.643   7.549 -0.3987 -0.2991 -1.0154
    6MOL    C76 3786   1.176   5.778   7.426 -0.7120 -0.3148 -0.1043
    6MOL    O77 3787   1.093   5.863   7.395 -0.1707  0.2937 -0.0583
    6MOL    C78 3788   1.257   5.702   7.326 -0.2874 -0.5885  0.1522
    6MOL    C79 3789   1.358   5.785   7.245 -0.4358 -0.3016 -0.0885
    6MOL    C80 3790   1.405   5.720   7.111  0.3251 -0.4673  0.3420
    6MOL    C81 3791   1.525   5.615   7.125 -0.3094 -0.0523 -0.2309
    6MOL    C82 3792   1.488   5.473   7.167 -0.1910  0.3404 -0.4742
    6MOL    C83 3793   1.366   5.413   7.092 -0.3565  0.1266  0.0549
    6MOL    C84 3794   1.311   5.291   7.161 -0.6688  0.5790 -0.2198
    6MOL    C85 3795   1.173   5.260   7.103  0.3771  0.0590  0.1533
    6MOL    C86 3796   1.123   5.144   7.180 -0.4886  0.5570 -1.2989
    6MOL    C87 3797   1.000   5.091   7.108 -0.4051 -0.2120  0.2270
    6MOL    C88 3798   0.877   5.180   7.107  0.5071 -0.7962 -0.3147
    6MOL    N89 3799   0.757   5.103   7.079  0.0631  0.1193 -0.0842
    6MOL    H90 3800   1.169   5.678   7.268 -0.4225  0.0831  0.0811
    6MOL    H91 3801   1.292   5.606   7.364 -1.0292 -0.6507  0.6839
    6MOL    H92 3802   1.316   5.884   7.228 -0.0503 -0.0777  0.2340
    6MOL    H93 3803   1.451   5.795   7.302  0.5028 -3.4724 -0.9458
    6MOL    H94 3804   1.451   5.797   7.049 -0.6855  1.0175  1.3988
    6MOL    H95 3805   1.324   5.689   7.045 -0.1458 -0.5109  0.9314
    6MOL    H96 3806   1.567   5.615   7.024  0.1823  3.5936 -0.0829
    6MOL    H97 3807   1.604   5.653   7.190 -1.6682 -1.0278  2.0546
    6MOL    H98 3808   1.465   5.457   7.272  1.6327 -3.2829 -0.5591
    6MOL    H99 3809   1.575   5.409   7.160 -0.9182 -1.0651  2.7015
    6MOL   H100 3810   1.387   5.404   6.985 -1.6458 -2.5314 -0.0273
    6MOL   H101 3811   1.290   5.489   7.103  1.3968  2.1890 -1.5796
    6MOL   H102 3812   1.304   5.307   7.268 -1.1570 -3.4022  0.4318
    6MOL   H103 3813   1.381   5.215   7.127  0.1084  2.0656 -2.0318
    6MOL   H104 3814   1.190   5.243   6.997 -0.5007 -0.0756  0.0288
    6MOL   H105 3815   1.110   5.349   7.105  1.8236  1.1059  2.2162
    6MOL   H106 3816   1.106   5.159   7.287 -0.2168  1.4865 -1.3820
    6MOL   H107 3817   1.194   5.062   7.187  0.3750  1.2776 -1.6022
    6MOL   H108 3818   0.985   4.988   7.143  1.5723 -0.0825  1.5500
    6MOL   H109 3819   1.027   5.067   7.005  0.7366  0.9191  0.2572
    6MOL   H110 3820   0.893   5.257   7.032 -1.8718 -0.6795 -0.7463
    6MOL   H111 3821   0.860   5.232   7.201  0.7606 -1.5373  0.1462
    6MOL   H112 3822   0.776   5.004   7.080  1.6715  0.4192 -0.1323
    6MOL   C113 3823   0.629   5.152   7.067 -0.2011  0.2390 -0.0997
    6MOL   O114 3824   0.595   5.268   7.073  0.3246  0.0546 -0.0337
    6MOL   C115 3825   0.526   5.037   7.046 -0.4837  0.1550  0.1133
    6MOL   C116 3826   0.457   5.038   6.905  0.1036  0.1642 -0.5945
    6MOL   C117 3827   0.325   4.951   6.900 -0.3846  0.5803  0.4487
    6MOL   C118 3828   0.237   4.981   6.776 -0.1254  0.3730  0.5697
    6MOL   C119 3829   0.181   5.122   6.776 -0.4899  0.0823  0.5397
    6MOL   C120 3830   0.090   5.145   6.660 -0.5596 -0.2979 -0.0347
    6MOL   C121 3831   7.693   5.266   6.674  0.0107  0.1906 -0.4603
    6MOL   C122 3832   0.050   5.408   6.689  0.4300 -0.2398 -0.5747
    6MOL   C123 3833   7.636   5.516   6.691  0.1051  0.4674  0.0391
    6MOL   C124 3834   7.683   5.660   6.696  0.0591  0.0375 -0.0198
    6MOL   C125 3835   7.580   5.759   6.659  0.3158 -0.9217  0.0025
    6MOL   N126 3836   7.634   5.895   6.670  0.1204  0.2057 -0.0944
    6MOL   H127 3837   0.452   5.043   7.125  0.6696  0.4570  1.1840
    6MOL   H128 3838   0.572   4.941   7.068 -1.4751 -0.6997 -1.3883
    6MOL   H129 3839   0.435   5.142   6.881  0.4845  1.0297  2.6124
    6MOL   H130 3840   0.525   5.003   6.827  0.2385  1.0201 -0.8675
    6MOL   H131 3841   0.267   4.962   6.991  0.2079  0.9536  0.7883
    6MOL   H132 3842   0.348   4.844   6.904 -0.4000  0.4419 -2.2572
    6MOL   H133 3843   0.288   4.974   6.680 -1.2645  0.8196 -0.0630
    6MOL   H134 3844   0.147   4.920   6.776  0.7133 -0.8927 -0.2079
    6MOL   H135 3845   0.257   5.199   6.795  0.2271 -0.6795  0.8053
    6MOL   H136 3846   0.120   5.125   6.867 -2.9220 -0.0188 -1.0582
    6MOL   H137 3847   0.027   5.057   6.647 -0.0968 -0.5782 -0.4074
    6MOL   H138 3848   0.148   5.147   6.568  1.5083 -1.2353  1.2121
    6MOL   H139 3849   7.623   5.244   6.754 -0.9206  1.9935 -0.7578
    6MOL   H140 3850   7.620   5.266   6.593  0.1735  0.0900 -0.6069
    6MOL   H141 3851   0.112   5.427   6.602 -1.5008 -1.5553 -2.2720
    6MOL   H142 3852   0.117   5.421   6.774  0.8164  0.1864 -0.9440
    6MOL   H143 3853   7.574   5.492   6.777 -0.3940  1.5694 -0.0001
    6MOL   H144 3854   7.571   5.508   6.605  0.9979  1.6033 -0.7663
    6MOL   H145 3855   0.074   5.677   6.629  1.7066  1.2924  2.3235
    6MOL   H146 3856   0.025   5.676   6.797 -0.6000 -0.5407  0.3071
    6MOL   H147 3857   7.489   5.750   6.719 -1.1300  0.7495 -1.8480
    6MOL   H148 3858   7.538   5.746   6.559 -0.1354 -1.2676  0.2376
    6MOL   H149 3859   0.036   5.904   6.697  0.1090  3.3047 -0.8838
    6MOL   C150 3860   7.557   6.006   6.676 -0.0047 -0.1263  0.3512
    6MOL   O151 3861   7.438   6.011   6.648  0.2482 -0.0560  0.2943
    6MOL   C152 3862   7.628   6.143   6.711  0.2290  0.4007 -0.4599
    6MOL   C153 3863   7.666   6.215   6.576  0.0295  0.0776 -1.0103
    6MOL   C154 3864   7.550   6.240   6.471  0.9207  0.5666  0.2155
    6MOL   C155 3865   7.596   6.311   6.348  0.0491  0.1467  1.2268
    6MOL   C156 3866   7.470   6.338   6.254 -1.5920  0.1209 -0.0036
    6MOL   C157 3867   7.513   6.405   6.124 -0.6574 -0.4494  0.1463
    6MOL   C158 3868   7.382   6.463   6.050  0.4945 -1.1315  0.5459
    6MOL   C159 3869   7.287   6.360   5.978 -0.0089  0.1557  0.1360
    6MOL   C160 3870   7.313   6.342   5.828  1.1416 -0.1176 -0.4117
    6MOL   C161 3871   7.209   6.246   5.764 -0.5688 -0.2414 -0.2143
    6MOL   C162 3872   7.235   6.095   5.812  0.2382 -0.2424 -0.2068
    6MOL   N163 3873   7.151   6.005   5.736 -0.1816 -0.2937  0.5829
    6MOL   H164 3874   0.013   6.135   6.785 -0.1114  0.2061 -0.1126
    6MOL   H165 3875   7.553   6.199   6.768 -1.4994 -0.6536 -1.6297
    6MOL   H166 3876   0.014   6.311   6.605 -1.3895  0.0062  1.4609
    6MOL   H167 3877   0.045   6.154   6.524  0.4750  2.0780 -2.7863
    6MOL   H168 3878   7.479   6.305   6.521  0.5938 -0.0624  0.5776
    6MOL   H169 3879   7.494   6.152   6.439  1.8892 -0.4222  1.2025
    6MOL   H170 3880   7.652   6.403   6.365 -0.7039  0.8927 -0.1870
    6MOL   H171 3881   7.662   6.250   6.286 -1.2563 -0.6203  0.5780
    6MOL   H172 3882   7.412   6.402   6.321  0.7071 -1.2901  3.5249
    6MOL   H173 3883   7.420   6.242   6.246  0.2871 -0.8936  0.1661
    6MOL   H174 3884   7.578   6.342   6.063 -2.1956 -0.5673 -1.4247
    6MOL   H175 3885   7.572   6.493   6.152 -0.3733  0.1315 -2.1473
    6MOL   H176 3886   7.417   6.530   5.970 -0.2961  1.2920  2.1772
    6MOL   H177 3887   7.333   6.539   6.109 -0.3583  0.0038 -1.5528
    6MOL   H178 3888   7.184   6.395   5.985  0.4994  1.0397  4.8041
    6MOL   H179 3889   7.296   6.264   6.030 -1.6680 -1.6925 -2.8160
    6MOL   H180 3890   7.412   6.301   5.809  1.8482  0.9398  0.8922
    6MOL   H181 3891   7.314   6.441   5.783  1.4311 -0.6991 -1.6948
    6MOL   H182 3892   7.236   6.255   5.659  0.3469  2.2095  0.1881
    6MOL   H183 3893   7.110   6.285   5.787 -0.5770 -0.6970  0.5539
    6MOL   H184 3894   7.207   6.070   5.915  0.3182  2.2824  0.4592
    6MOL   H185 3895   7.340   6.071   5.794  0.7829  2.1630 -0.3742
    6MOL   H186 3896   7.062   5.982   5.777  0.0834  0.5294  1.6581
    6MOL   C187 3897   7.198   5.948   5.622 -0.2051  0.4564 -0.0894
    6MOL   O188 3898   7.299   5.990   5.570 -0.3359  0.3947  0.1794
    6MOL   C189 3899   7.127   5.829   5.565  0.3591 -0.5372  0.9528
    6MOL   C190 3900   7.034   5.863   5.449  0.5057  0.2089 -0.5576
    6MOL   C191 3901   6.929   5.754   5.409  0.8157  0.3501 -0.2560
    6MOL   C192 3902   6.993   5.635   5.324 -0.0145  0.5247  0.3013
    6MOL   C193 3903   6.897   5.518   5.294  0.2919 -0.0703  0.1107
    6MOL   C194 3904   6.954   5.416   5.194  0.1035 -0.2839 -0.5304
    6MOL   C195 3905   6.856   5.315   5.137 -0.0075 -0.0463  0.5151
    6MOL   C196 3906   6.812   5.214   5.241 -0.5007 -0.1915  0.5782
    6MOL   C197 3907   6.702   5.120   5.177 -0.2134 -0.0088  0.4859
    6MOL   C198 3908   6.631   5.032   5.282  0.0076 -0.3692 -0.8017
    6MOL   C199 3909   6.727   4.933   5.343 -1.2638 -0.5503 -0.4732
    6MOL   N200 3910   6.779   4.835   5.247 -0.2807  0.0649 -0.1797
    6MOL   H201 3911   7.077   5.770   5.642 -1.4794  2.3608  2.0461
    6MOL   H202 3912   7.191   5.752   5.521 -2.5208 -2.5986  0.2217
    6MOL   H203 3913   6.994   5.964   5.453  0.2838  0.1455 -1.0413
    6MOL   H204 3914   7.101   5.883   5.365  2.0059  0.2432  0.6172
    6MOL   H205 3915   6.849   5.798   5.350  0.4774  1.4732  1.0337
    6MOL   H206 3916   6.877   5.719   5.498 -1.2280  5.0990  0.5635
    6MOL   H207 3917   7.034   5.667   5.228 -0.8378 -0.1904 -0.2929
    6MOL   H208 3918   7.085   5.608   5.376 -0.0910  0.1204  0.2319
    6MOL   H209 3919   6.799   5.555   5.264  0.0272 -0.3254  0.6554
    6MOL   H210 3920   6.878   5.462   5.386  0.0863 -0.3706 -0.1135
    6MOL   H211 3921   7.035   5.365   5.247  0.3699  0.6293 -0.0457
    6MOL   H212 3922   6.988   5.477   5.111 -0.1574  0.1870 -0.2922
    6MOL   H213 3923   6.913   5.259   5.063  0.2064  2.0346 -0.9441
    6MOL   H214 3924   6.769   5.369   5.099  0.2028  0.1734  0.3452
    6MOL   H215 3925   6.774   5.269   5.327 -2.4969 -2.4097  1.1663
    6MOL   H216 3926   6.896   5.149   5.263 -1.0763 -1.2355 -0.2635
    6MOL   H217 3927   6.746   5.048   5.107 -1.7877  1.6682 -2.3210
    6MOL   H218 3928   6.633   5.188   5.128 -0.1863  0.4096  1.0225
    6MOL   H219 3929   6.550   4.969   5.245  0.2906 -1.1567 -0.0738
    6MOL   H220 3930   6.587   5.105   5.349 -0.5031 -1.6328  0.2536
    6MOL   H221 3931   6.666   4.882   5.418 -1.9337  1.6070  0.5009
    6MOL   H222 3932   6.804   4.985   5.400 -1.9124 -1.1213  0.9348
    6MOL   H223 3933   6.711   4.796   5.183 -0.5012 -0.6957  0.5072
    6MOL   C224 3934   6.907   4.795   5.237 -0.1099  0.1721  0.0505
    6MOL   O225 3935   7.000   4.822   5.321  0.1789  0.0365 -0.0317
    6MOL   C226 3936   6.938   4.685   5.131 -0.0039  0.2678 -0.2049
    6MOL   C227 3937   7.027   4.738   5.015  0.5845  0.5759 -0.6024
    6MOL   C228 3938   6.965   4.829   4.911  0.5460  0.0172 -0.6600
    6MOL   C229 3939   7.056   4.853   4.798 -0.4178  0.4015 -0.0968
    6MOL   C230 3940   7.016   4.966   4.698  0.6097  0.0275  0.0445
    6MOL   C231 3941   7.132   5.008   4.608  0.1423  0.0890  0.0855
    6MOL   C232 3942   7.257   5.062   4.675  0.0589 -0.5904 -0.3845
    6MOL   C233 3943   7.221   5.186   4.760 -0.8161  1.0956  0.1558
    6MOL   C234 3944   7.353   5.250   4.809  0.2426 -0.7662  0.2342
    6MOL   C235 3945   7.418   5.354   4.714  0.4842 -0.4466 -0.4121
    6MOL   C236 3946   7.522   5.441   4.782  0.2816  0.2872  0.4611
    6MOL   N237 3947   7.630   5.372   4.848 -0.6075 -0.1600 -0.2083
    6MOL   H238 3948   6.849   4.641   5.086 -0.2223 -2.7184  2.8625
    6MOL   H239 3949   6.987   4.601   5.181 -1.9141  0.4696  2.1149
    6MOL   H240 3950   7.121   4.785   5.045  1.4639 -2.3254  1.4993
    6MOL   H241 3951   7.070   4.648   4.970 -0.7458 -1.5280  2.1449
    6MOL   H242 3952   6.955   4.923   4.965  0.6863 -0.3827  0.0790
    6MOL   H243 3953   6.869   4.789   4.881 -0.4360  1.4176  0.5153
    6MOL   H244 3954   7.157   4.863   4.838 -0.8212  0.1988  0.9954
    6MOL   H245 3955   7.067   4.758   4.747  1.0584 -0.4580  1.7778
    6MOL   H246 3956   6.970   5.050   4.750 -1.9883 -0.5834 -1.1633
    6MOL   H247 3957   6.929   4.929   4.643  0.2345  3.8571 -2.1140
    6MOL   H248 3958   7.091   5.081   4.539  0.8466 -0.9322 -1.4407
    6MOL   H249 3959   7.159   4.925   4.543 -0.0722 -1.4516  1.9114
    6MOL   H250 3960   7.326   5.080   4.592 -0.8937  0.1824 -1.0257
    6MOL   H251 3961   7.294   4.984   4.741  0.8528 -0.2489 -0.4117
    6MOL   H252 3962   7.147   5.148   4.829 -1.3443 -0.4508 -1.2290
    6MOL   H253 3963   7.175   5.272   4.712  2.0836  2.0706 -1.0385
    6MOL   H254 3964   7.425   5.171   4.829  1.4414 -0.1317 -1.4818
    6MOL   H255 3965   7.329   5.296   4.905  2.0011 -1.3959  0.9901
    6MOL   H256 3966   7.338   5.424   4.687  1.1900  0.6249  0.2393
    6MOL   H257 3967   7.455   5.308   4.623 -0.2764 -1.6913 -0.1041
    6MOL   H258 3968   7.464   5.501   4.853  0.5582  0.8869  0.1874
    6MOL   H259 3969   7.560   5.506   4.702  1.2671 -2.6610 -1.5340
    6MOL   H260 3970   7.607   5.325   4.934  1.1070  0.5494  0.6615
    6MOL   C261 3971   0.067   5.366   4.812  0.2309 -0.1041  0.0557
    6MOL   O262 3972   0.115   5.420   4.714 -0.2778 -0.4569 -0.1288
    6MOL   C263 3973   0.157   5.293   4.909 -0.2507 -0.0430 -0.0940
    6MOL   C264 3974   0.311   5.307   4.889 -0.0524 -0.0732 -0.5218
    6MOL   C265 3975   0.393   5.254   5.005 -0.9547 -0.0015  0.9257
    6MOL   C266 3976   0.408   5.097   5.004  0.8049 -0.1536  0.8476
    6MOL   C267 3977   0.493   5.048   5.122  0.3816  0.2191 -0.4703
    6MOL   C268 3978   0.525   4.894   5.118 -0.6125  0.3409  0.1912
    6MOL   C269 3979   0.408   4.798   5.110  0.0952  0.1472 -0.3367
    6MOL   C270 3980   0.456   4.654   5.098 -0.8309 -0.1022  0.3658
    6MOL   C271 3981   0.349   4.548   5.084 -0.4216 -0.5659 -0.6789
    6MOL   C272 3982   0.249   4.565   4.968 -0.2011 -0.4269 -0.0252
    6MOL   C273 3983   0.149   4.453   4.965  0.1186 -0.0540  0.6853
    6MOL   N274 3984   0.076   4.472   4.843 -0.4470  0.0773 -0.2466
    6MOL   H275 3985   0.137   5.187   4.898  1.8296 -0.2157 -2.7408
    6MOL   H276 3986   0.136   5.325   5.011  1.4366 -0.8665  0.5302
    6MOL   H277 3987   0.343   5.251   4.801  0.0290  0.8166 -1.0643
    6MOL   H278 3988   0.343   5.411   4.885 -0.7576  0.1231 -1.1364
    6MOL   H279 3989   0.355   5.280   5.103 -0.1213 -1.3981  1.6326
    6MOL   H280 3990   0.491   5.301   4.995 -1.4533  1.1075  1.1481
    6MOL   H281 3991   0.308   5.055   4.999  0.2815  0.9814  1.4047
    6MOL   H282 3992   0.468   5.061   4.921 -0.6273 -2.8027  0.9277
    6MOL   H283 3993   0.442   5.053   5.218  1.6527 -1.1988  0.3018
    6MOL   H284 3994   0.595   5.087   5.130  0.6571 -0.2403 -1.6449
    6MOL   H285 3995   0.577   4.863   5.209 -2.5323 -2.2202  0.4944
    6MOL   H286 3996   0.594   4.872   5.037  1.7852 -1.6216  2.6595
    6MOL   H287 3997   0.350   4.819   5.020 -1.2056 -2.1333 -0.0654
    6MOL   H288 3998   0.350   4.809   5.202  2.5411 -0.5730  1.3584
    6MOL   H289 3999   0.501   4.628   5.194  1.1859 -1.6448 -0.9358
    6MOL   H290 4000   0.534   4.659   5.021  0.3484  0.6960  1.5997
    6MOL   H291 4001   0.302   4.532   5.181  0.4910 -0.9139 -0.2857
    6MOL   H292 4002   0.411   4.460   5.067  0.7123  0.2981 -1.0765
    6MOL   H293 4003   0.300   4.589   4.875 -1.4606  0.3772 -0.5162
    6MOL   H294 4004   0.200   4.657   5.000 -0.2532 -0.9817  1.5357
    6MOL   H295 4005   0.074   4.462   5.044 -0.4220  2.5310 -0.0798
    6MOL   H296 4006   0.179   4.348   4.965  0.3765  0.0083 -0.2286
    6MOL   H297 4007   7.685   4.526   4.847 -0.3621  0.3529 -1.8241
    6MOL   C298 4008   0.100   4.413   4.728  0.7612  0.2516 -0.5263
    6MOL   O299 4009   0.178   4.318   4.715  0.5808  0.2319  0.1821
    6MOL   C300 4010   7.689   4.435   4.615  0.9271  0.8591 -0.0963
    6MOL   C301 4011   7.646   4.304   4.553 -0.9624 -0.5436 -0.3335
    6MOL   C302 4012   7.547   4.321   4.438 -0.3473 -0.1990 -0.3263
    6MOL   C303 4013   7.494   4.189   4.388  0.5938  0.7869  0.0419
    6MOL   C304 4014   7.374   4.215   4.295  0.4181  0.4683  0.8241
    6MOL   C305 4015   7.297   4.091   4.252 -0.0495  0.0023  0.0290
    6MOL   C306 4016   7.155   4.125   4.189 -0.1907 -0.8425 -0.2269
    6MOL   C307 4017   7.066   4.003   4.166 -0.3975  0.7092  0.0490
    6MOL   C308 4018   7.085   3.912   4.048 -0.5035 -0.1810  0.3840
    6MOL   C309 4019   7.210   3.821   4.060  0.6576  0.1096  0.1449
    6MOL   C310 4020   7.238   3.732   3.936  1.0257  0.2082  0.3757
    6MOL   N311 4021   7.344   3.635   3.947  0.2009  0.0384 -0.4080
    6MOL   H312 4022   0.034   4.505   4.541 -2.2024 -0.6505 -3.3209
    6MOL   H313 4023   7.603   4.487   4.657 -0.3075  0.5667 -2.1880
    6MOL   H314 4024   0.040   4.244   4.530 -0.3877  0.7867 -1.6756
    6MOL   H315 4025   7.608   4.233   4.627  2.1284  0.5099  2.4104
    6MOL   H316 4026   7.591   4.379   4.356 -2.3973  1.9425  0.0415
    6MOL   H317 4027   7.466   4.384   4.475 -0.8594  0.0624 -1.8949
    6MOL   H318 4028   7.572   4.131   4.339 -0.0493 -0.7489  0.8014
    6MOL   H319 4029   7.458   4.125   4.468 -2.8158  0.6415 -1.5074
    6MOL   H320 4030   7.410   4.262   4.204 -2.1383 -1.5401 -1.3045
    6MOL   H321 4031   7.300   4.275   4.346  0.6183 -0.0190  1.7081
    6MOL   H322 4032   7.269   4.027   4.336  1.4233  0.0842  0.5935
    6MOL   H323 4033   7.363   4.042   4.180 -0.2240 -0.1917  0.0025
    6MOL   H324 4034   7.168   4.188   4.101 -0.8253 -0.4116 -0.0159
    6MOL   H325 4035   7.112   4.183   4.271 -0.4560 -0.5829 -0.5508
    6MOL   H326 4036   6.962   4.037   4.163 -0.9014 -0.6011  1.6564
    6MOL   H327 4037   7.074   3.941   4.256  1.3394 -0.5416 -0.9489
    6MOL   H328 4038   7.112   3.965   3.956  0.7201  0.0893  0.8826
    6MOL   H329 4039   7.005   3.839   4.046  0.5522 -1.3559 -0.2049
    6MOL   H330 4040   7.216   3.760   4.150  1.2926  0.5419  0.3911
    6MOL   H331 4041   7.298   3.884   4.060  0.6958  0.0993 -1.8220
    6MOL   H332 4042   7.271   3.789   3.850  0.1132 -0.5552 -0.4906
    6MOL   H333 4043   7.143   3.692   3.901  1.3509  0.0624 -0.3535
    6MOL   H334 4044   7.429   3.662   3.899 -0.9087  2.0354 -1.3377
    6MOL   C335 4045   7.328   3.508   3.990  0.0767  0.3673 -0.0160
    6MOL   O336 4046   7.224   3.464   4.040  0.2055 -0.0389 -0.0812
    6MOL   C337 4047   7.446   3.412   3.991 -0.1167  0.1085 -0.5477
    6MOL   C338 4048   7.430   3.293   4.092 -1.2312 -0.1853  0.0177
    6MOL   C339 4049   7.498   3.326   4.229  0.0142  0.2813 -0.7954
    6MOL   C340 4050   7.653   3.306   4.216 -0.0337 -0.0229 -0.1104
    6MOL   C341 4051   0.037   3.348   4.341  0.9087  0.5708  0.1307
    6MOL   C342 4052   0.189   3.370   4.325 -0.2022 -0.1034 -0.4328
    6MOL   C343 4053   0.257   3.388   4.462 -0.0114 -0.4102 -0.1672
    6MOL   C344 4054   0.211   3.494   4.561  0.3896  0.5612 -0.2513
    6MOL   C345 4055   0.286   3.497   4.696 -0.2852  0.0789  0.4376
    6MOL   C346 4056   0.226   3.592   4.806  0.5360 -0.1088 -0.6783
    6MOL   C347 4057   0.269   3.544   4.943  0.1753 -0.2981  0.6423
    6MOL   N348 4058   0.252   3.644   5.054 -0.0549  0.1936  0.1113
    6MOL   H349 4059   7.538   3.464   4.017 -0.3933  1.9153 -2.9568
    6MOL   H350 4060   7.467   3.380   3.889 -2.3766 -0.9841 -0.6973
    6MOL   H351 4061   7.329   3.254   4.105 -1.2286 -0.5442 -1.0327
    6MOL   H352 4062   7.482   3.214   4.038 -0.2752 -0.2756  1.0556
    6MOL   H353 4063   7.468   3.254   4.304 -1.3231  1.5606 -0.0882
    6MOL   H354 4064   7.477   3.425   4.270  0.2876 -0.3248  0.8155
    6MOL   H355 4065   7.673   3.200   4.197 -1.9091 -0.3788 -0.1242
    6MOL   H356 4066   0.011   3.353   4.132  2.7234 -0.6211  1.1843
    6MOL   H357 4067   0.025   3.282   4.426  1.4586 -0.2690 -0.4347
    6MOL   H358 4068   0.002   3.448   4.367 -4.4914 -1.6078  1.9178
    6MOL   H359 4069   0.215   3.456   4.264  1.3179  0.1031  0.4720
    6MOL   H360 4070   0.240   3.286   4.277 -3.8717 -0.5652 -3.7726
    6MOL   H361 4071   0.364   3.396   4.438  0.6813 -2.5590  1.9789
    6MOL   H362 4072   0.252   3.293   4.515 -4.1454 -0.3782 -0.3851
    6MOL   H363 4073   0.108   3.477   4.592  0.0742  2.0435 -0.4399
    6MOL   H364 4074   0.208   3.594   4.518 -0.4767  0.5358 -0.2563
    6MOL   H365 4075   0.386   3.536   4.676 -0.4746 -0.8450 -2.6165
    6MOL   H366 4076   0.297   3.394   4.730 -3.0320 -0.2894  0.3420
    6MOL   H367 4077   0.118   3.601   4.796  0.3481 -1.8112 -0.3355
    6MOL   H368 4078   0.271   3.690   4.790  2.6268 -1.0198 -0.5773
    6MOL   H369 4079   0.377   3.530   4.937  0.4265  2.1579 -1.4594
    6MOL   H370 4080   0.221   3.451   4.974 -2.1529 -0.2028 -2.3610
    6MOL   H371 4081   0.341   3.662   5.098  1.2980 -1.3233 -1.9137
    6MOL   C372 4082   0.152   3.733   5.070  0.1856  0.5454  0.2204
    6MOL   O373 4083   0.048   3.732   5.007  0.1661 -0.3323  0.2388
    6MOL   C374 4084   0.176   3.842   5.178  0.3739 -0.0208  0.7819
    6MOL   C375 4085   0.177   3.980   5.113 -0.3131 -0.2936  0.1800
    6MOL   C376 4086   0.155   4.097   5.207  0.0087  0.6834  0.0814
    6MOL   C377 4087   0.018   4.088   5.283  0.0820 -0.1209 -0.8836
    6MOL   C378 4088   7.662   4.233   5.331 -0.2577 -0.6595 -0.3036
    6MOL   C379 4089   7.530   4.227   5.408  0.6589 -0.1559  0.2079
    6MOL   C380 4090   7.408   4.188   5.320  0.9574 -0.4213  0.1010
    6MOL   C381 4091   7.269   4.181   5.388  0.0028 -0.3487 -0.2189
    6MOL   C382 4092   7.156   4.133   5.293 -0.9941 -0.2109  0.2268
    6MOL   C383 4093   7.123   4.225   5.176 -0.1445 -0.2819 -0.3137
    6MOL   C384 4094   6.984   4.186   5.122 -0.4426 -0.4698  0.4922
    6MOL   N385 4095   6.957   4.272   5.010 -0.1074 -0.5418  0.1284
    6MOL   H386 4096   0.266   3.825   5.237  1.3395 -1.2243 -0.9924
    6MOL   H387 4097   0.096   3.832   5.251 -0.4463 -1.6475 -0.3145
    6MOL   H388 4098   0.269   3.999   5.058  1.3797 -3.7833  1.6357
    6MOL   H389 4099   0.104   3.979   5.031 -1.4147 -0.5099  1.1516
    6MOL   H390 4100   0.169   4.186   5.146 -1.1504  0.1960 -0.9251
    6MOL   H391 4101   0.230   4.109   5.285 -1.3969 -0.2513  1.6038
    6MOL   H392 4102   7.641   4.051   5.209  1.6884 -1.4043 -1.8325
    6MOL   H393 4103   0.018   4.012   5.361 -0.1639  0.3825 -0.3939
    6MOL   H394 4104   7.647   4.309   5.255 -0.7302  0.8470  1.2645
    6MOL   H395 4105   0.042   4.269   5.403 -0.9709 -1.1819  0.6955
    6MOL   H396 4106   7.505   4.322   5.453  0.7268 -0.9018  1.8485
    6MOL   H397 4107   7.556   4.151   5.482  1.8696 -2.1523 -2.1956
    6MOL   H398 4108   7.426   4.089   5.277  1.6339 -0.0006 -0.6189
    6MOL   H399 4109   7.397   4.257   5.236  4.0246 -0.3662 -0.3260
    6MOL   H400 4110   7.252   4.282   5.427  1.0204  0.8188 -2.6734
    6MOL   H401 4111   7.273   4.109   5.469  0.5177 -0.4314 -0.3167
    6MOL   H402 4112   7.071   4.133   5.361 -1.9108  2.1000 -0.8768
    6MOL   H403 4113   7.170   4.028   5.265 -1.0706 -0.8825  2.6098
    6MOL   H404 4114   7.198   4.216   5.096  1.8175  1.7261  1.2463
    6MOL   H405 4115   7.126   4.326   5.217  0.4024 -1.5137  2.8307
    6MOL   H406 4116   6.906   4.198   5.197  1.7963  4.5933  2.2316
    6MOL   H407 4117   6.980   4.082   5.088 -1.2609 -0.4084  0.3890
    6MOL   H408 4118   7.026   4.336   4.972 -0.7435  1.5989  2.4526
    6MOL   C409 4119   6.844   4.285   4.942  0.5406 -0.9170  0.3018
    6MOL   O410 4120   6.745   4.230   4.976  0.6161  0.7154  0.2062
    6MOL   C411 4121   6.840   4.393   4.827 -0.2269  0.2207 -0.0738
    6MOL   C412 4122   6.718   4.480   4.805 -0.5880 -0.6267 -0.1515
    6MOL   C413 4123   6.734   4.588   4.699  0.4079  0.2135  0.1300
    6MOL   C414 4124   6.616   4.687   4.721 -0.6000  0.5077  0.4048
    6MOL   C415 4125   6.610   4.798   4.620  0.3525  0.4579  0.0414
    6MOL   C416 4126   6.506   4.909   4.644  0.0669  0.3508  0.2257
    6MOL   C417 4127   6.534   5.000   4.766  0.0123 -0.8954 -0.2823
    6MOL   C418 4128   6.423   5.108   4.772 -0.3763 -0.2530  0.0009
    6MOL   C419 4129   6.453   5.226   4.861 -0.3704 -0.1291 -0.0544
    6MOL   C420 4130   6.394   5.353   4.819  0.5399 -0.3411 -0.3341
    6MOL   C421 4131   6.432   5.479   4.903 -0.2967  0.4503 -0.1071
    6MOL   N422 4132   6.570   5.514   4.881 -0.1230 -0.9157  0.6910
    6MOL   H423 4133   6.858   4.324   4.744 -1.1569  0.2074 -0.2608
    6MOL   H424 4134   6.924   4.460   4.847 -0.7945  1.2255 -0.9933
    6MOL   H425 4135   6.635   4.418   4.771 -2.8947  2.5257 -0.4741
    6MOL   H426 4136   6.678   4.518   4.899 -0.4788 -0.4653 -0.1717
    6MOL   H427 4137   6.732   4.538   4.602  0.2958  2.4379 -1.0619
    6MOL   H428 4138   6.828   4.641   4.710  0.9739 -0.9885  1.1622
    6MOL   H429 4139   6.526   4.626   4.720  0.6464 -1.3843 -1.6552
    6MOL   H430 4140   6.631   4.745   4.812  0.9312 -0.4325  0.7754
    6MOL   H431 4141   6.591   4.753   4.522 -0.4358 -0.4326  0.5917
    6MOL   H432 4142   6.707   4.846   4.613  0.3977  0.2094 -1.1458
    6MOL   H433 4143   6.404   4.873   4.641  0.1165  0.2136  0.1661
    6MOL   H434 4144   6.503   4.979   4.560 -2.2994  0.3269  0.2623
    6MOL   H435 4145   6.627   5.054   4.748 -0.0043 -1.2676 -1.5728
    6MOL   H436 4146   6.543   4.947   4.860  0.4336  0.3429  0.3868
    6MOL   H437 4147   6.330   5.065   4.810  1.5748 -3.4788  1.3869
    6MOL   H438 4148   6.419   5.148   4.671  0.0573 -1.8563 -0.6790
    6MOL   H439 4149   6.562   5.230   4.855 -0.2692 -1.5411  0.4372
    6MOL   H440 4150   6.440   5.208   4.968 -0.3037  1.6959  0.2641
    6MOL   H441 4151   6.288   5.351   4.791  1.3452  1.3257 -3.8174
    6MOL   H442 4152   6.441   5.379   4.724  0.1851  2.9052  0.3000
    6MOL   H443 4153   6.414   5.453   5.008  0.2536  0.7813  0.0704
    6MOL   H444 4154   6.362   5.561   4.887 -1.9467 -0.3585  2.5623
    6MOL   H445 4155   6.622   5.463   4.812  1.5644 -0.9457  1.9594
    6MOL   C446 4156   6.638   5.603   4.955  0.5642 -0.1353 -0.0952
    6MOL   O447 4157   6.585   5.672   5.046 -0.3191  0.4508 -0.1158
    6MOL   C448 4158   6.786   5.623   4.925 -0.3724  0.4099  1.1608
    6MOL   C449 4159   6.847   5.747   5.003 -0.0485  0.1916  0.6572
    6MOL   C450 4160   6.820   5.881   4.941 -0.1452  0.5406  0.4677
    6MOL   C451 4161   6.902   5.990   5.008  0.2041  0.1132  0.0607
    6MOL   C452 4162   6.891   6.125   4.947  0.7281 -0.6118  0.4184
    6MOL   C453 4163   6.932   6.119   4.799 -0.1942 -0.6513 -0.9737
    6MOL   C454 4164   6.958   6.258   4.738 -0.7099 -0.1224 -0.4961
    6MOL   C455 4165   6.983   6.253   4.584  0.2863 -0.9655 -0.0994
    6MOL   C456 4166   7.099   6.175   4.536  0.1626  0.4920 -0.1245
    6MOL   C457 4167   7.128   6.214   4.390  0.8566  0.2879 -0.1487
    6MOL   C458 4168   7.238   6.134   4.330 -0.2992  0.1341  0.2690
    6MOL   N459 4169   7.279   6.161   4.187 -0.1193 -0.0325 -0.0634
    6MOL   H460 4170   6.796   5.635   4.817  0.0376  1.1524  1.2788
    6MOL   H461 4171   6.834   5.531   4.959 -1.3681 -0.7771 -0.5658
    6MOL   H462 4172   6.816   5.751   5.107  2.0538 -0.5498  1.3295
    6MOL   H463 4173   6.953   5.728   5.019 -0.4518 -1.6511  1.2105
    6MOL   H464 4174   6.713   5.902   4.945  0.1749  3.1650 -3.0507
    6MOL   H465 4175   6.855   5.881   4.838  1.3439  1.2584  0.9469
    6MOL   H466 4176   6.879   5.998   5.114 -0.9154 -1.2726 -0.0579
    6MOL   H467 4177   7.008   5.975   4.993  0.2359  1.9826 -1.7831
    6MOL   H468 4178   6.972   6.180   4.994  0.5315  0.8550 -0.8932
    6MOL   H469 4179   6.798   6.180   4.965 -0.7216 -1.9528 -2.5640
    6MOL   H470 4180   6.856   6.063   4.744  1.3004 -0.4121 -3.3664
    6MOL   H471 4181   7.018   6.053   4.789  1.0768  0.5316  1.5603
    6MOL   H472 4182   7.025   6.319   4.799  0.7122 -1.3449 -0.7894
    6MOL   H473 4183   6.861   6.295   4.769 -0.9173 -1.0780  0.0127
    6MOL   H474 4184   6.997   6.354   4.544  0.4117 -1.0216 -0.1962
    6MOL   H475 4185   6.887   6.228   4.537  0.1689 -0.1098 -0.3352
    6MOL   H476 4186   7.080   6.067   4.532  0.8126  0.4108 -1.2324
    6MOL   H477 4187   7.197   6.192   4.581  1.0735 -2.2864 -0.9135
    6MOL   H478 4188   7.159   6.318   4.390 -2.8978  1.5164  2.2139
    6MOL   H479 4189   7.039   6.208   4.327  0.9901  1.0481 -0.4065
    6MOL   H480 4190   7.232   6.026   4.333 -0.5129  0.0825 -1.4275
    6MOL   H481 4191   7.326   6.163   4.387  0.6629  1.4107 -1.7947
    6MOL   H482 4192   7.205   6.170   4.119 -0.5852  0.2199  0.4736
    6MOL   C483 4193   7.404   6.177   4.148 -0.8068 -0.6462 -0.9200
    6MOL   O484 4194   7.503   6.144   4.222  0.2360 -0.3745  0.1908
    6MOL   C485 4195   7.433   6.241   4.009 -0.8943 -0.6605  0.0950
    6MOL   C486 4196   7.502   6.381   4.009  0.1803 -0.7339 -0.0091
    6MOL   C487 4197   7.386   6.487   4.010  0.5104 -0.3858 -0.0617
    6MOL   C488 4198   7.443   6.633   3.988  0.7091 -0.3563  0.0470
    6MOL   C489 4199   7.506   6.689   4.111 -0.1227 -0.1483 -0.1203
    6MOL   C490 4200   7.525   6.843   4.116  0.0726  0.6313 -0.0778
    6MOL   C491 4201   7.603   6.876   4.245 -0.3689 -0.0132  0.1705
    6MOL   C492 4202   7.605   7.023   4.285  0.0634 -0.3295  0.0178
    6MOL   C493 4203   7.480   7.113   4.272  0.3162 -0.1714 -0.4824
    6MOL   C494 4204   7.485   7.247   4.345 -0.3733 -0.6236  0.9441
    6MOL   C495 4205   7.361   7.335   4.371 -0.3824  0.1052  0.4373
    6MOL   N496 4206   7.385   7.438   4.476 -0.0555  0.0663 -0.5162
    6MOL   H497 4207   7.355   6.237   3.933 -1.3601 -1.5867  0.6248
    6MOL   H498 4208   7.521   6.183   3.979  1.0445  2.1643  0.0455
    6MOL   H499 4209   7.562   6.406   4.097  1.2826 -1.9232 -0.4085
    6MOL   H500 4210   7.570   6.396   3.926 -1.8716  2.2266 -1.2162
    6MOL   H501 4211   7.324   6.472   4.098 -1.4733  2.3610 -0.8984
    6MOL   H502 4212   7.321   6.461   3.927 -0.2023  1.7131 -0.2052
    6MOL   H503 4213   7.507   6.637   3.901  0.2283  1.3877 -0.2390
    6MOL   H504 4214   7.358   6.694   3.957  1.4389  0.5165 -0.2411
    6MOL   H505 4215   7.597   6.638   4.144  2.1647  2.0920 -2.6596
    6MOL   H506 4216   7.431   6.666   4.186 -0.2246  0.9455  0.1205
    6MOL   H507 4217   7.425   6.887   4.123 -0.9762 -1.9703  2.2234
    6MOL   H508 4218   7.566   6.872   4.019  1.1411  0.5376  0.3338
    6MOL   H509 4219   0.008   6.830   4.245  0.5630  1.7471  3.6415
    6MOL   H510 4220   7.555   6.817   4.323 -0.5066 -1.4613 -0.9855
    6MOL   H511 4221   0.000   7.065   4.237  1.4425 -1.0897  1.8460
    6MOL   H512 4222   7.635   7.016   4.390 -3.2725 -0.1449  1.0442
    6MOL   H513 4223   7.394   7.059   4.313  1.7870 -1.2754  1.2321
    6MOL   H514 4224   7.456   7.131   4.167 -1.4164 -1.6488 -0.3614
    6MOL   H515 4225   7.565   7.300   4.293  2.2235 -1.6457  3.7256
    6MOL   H516 4226   7.532   7.224   4.441  2.5195  2.0928  0.2749
    6MOL   H517 4227   7.282   7.267   4.402  0.6250 -1.3989 -0.1974
    6MOL   H518 4228   7.344   7.393   4.280 -1.7274  1.6260  1.6420
    6MOL   H519 4229   7.470   7.435   4.530 -0.4354  1.1105  0.1625
    6MOL   C520 4230   7.285   7.518   4.523  0.1261 -0.1742 -0.6524
    6MOL   O521 4231   7.177   7.541   4.465  0.1534 -0.2059 -0.2564
    6MOL   C522 4232   7.319   7.600   4.649  0.0975  0.1557 -0.5117
    6MOL   C523 4233   7.336   0.056   4.622 -0.2992 -0.1002 -0.3465
    6MOL   C524 4234   7.489   0.103   4.612 -0.0550  0.5482 -0.4155
    6MOL   C525 4235   7.510   0.236   4.541  0.1191 -0.2637  0.8395
    6MOL   C526 4236   7.655   0.274   4.533 -0.4480  0.2611  0.6201
    6MOL   C527 4237   7.671   0.407   4.449 -0.5550  0.7235 -0.4763
    6MOL   C528 4238   0.000   0.385   4.300 -0.1430  0.1556 -0.1945
    6MOL   C529 4239   0.060   0.505   4.225 -0.2309 -0.1992  0.5040
    6MOL   C530 4240   7.681   0.641   4.246 -0.0941  0.1563 -0.1846
    6MOL   C531 4241   0.044   0.752   4.157  1.0708  0.0219 -0.2791
    6MOL   C532 4242   7.674   0.889   4.191  0.3086  0.1400  0.3455
    6MOL   N533 4243   7.525   0.883   4.182 -0.3060  0.7801 -0.1407
    6MOL   H534 4244   7.406   7.548   4.691  0.3603  1.3334  0.4068
    6MOL   H535 4245   7.238   7.580   4.718  0.9372 -2.8480 -0.3038
    6MOL   H536 4246   7.283   0.074   4.529 -0.1213  0.8244 -0.2740
    6MOL   H537 4247   7.289   0.114   4.702 -2.7746 -1.0252 -1.0867
    6MOL   H538 4248   7.547   0.026   4.561  1.1984  1.4433 -0.3585
    6MOL   H539 4249   7.540   0.110   4.708  1.1841  2.2765 -1.1659
    6MOL   H540 4250   7.469   0.242   4.439 -1.1194  2.6810  1.4289
    6MOL   H541 4251   7.447   0.303   4.600 -1.0933 -3.0168  2.7361
    6MOL   H542 4252   0.020   0.201   4.479  0.6493  1.1114  0.6522
    6MOL   H543 4253   0.010   0.290   4.629 -0.7651  0.5864  0.7338
    6MOL   H544 4254   0.062   0.461   4.493 -1.7527  2.3481 -0.0909
    6MOL   H545 4255   7.586   0.475   4.458  0.1602  1.4895  0.8204
    6MOL   H546 4256   7.600   0.350   4.258  0.0471 -1.4493  0.6829
    6MOL   H547 4257   0.068   0.300   4.289  0.2756  0.4937 -0.2619
    6MOL   H548 4258   0.052   0.480   4.120  1.2206 -2.4081  0.8824
    6MOL   H549 4259   0.165   0.509   4.253 -0.0957  0.1335 -0.0435
    6MOL   H550 4260   0.006   0.679   4.346  0.4347  0.1133 -0.2676
    6MOL   H551 4261   7.577   0.611   4.230 -0.0694  0.2081 -0.4442
    6MOL   H552 4262   0.015   0.735   4.054 -1.7341  0.6169  0.3830
    6MOL   H553 4263   0.153   0.749   4.151  1.1711  2.2348  0.1216
    6MOL   H554 4264   0.010   0.975   4.132 -0.7024 -0.3275 -0.8725
    6MOL   H555 4265   0.005   0.915   4.294 -0.3547  0.1334  0.5072
    6MOL   H556 4266   7.489   0.793   4.153  0.6375  0.2143  0.4209
    6MOL   C557 4267   7.440   0.978   4.229  0.6493 -0.0484 -0.3484
    6MOL   O558 4268   7.469   1.091   4.269 -0.3247 -0.0656 -0.3239
    6MOL   C559 4269   7.293   0.935   4.217 -0.2522 -0.3094  0.1789
    6MOL   C560 4270   7.215   0.945   4.354 -0.2814 -0.1820 -0.4372
    6MOL   C561 4271   7.246   0.833   4.454  0.1434 -0.1826 -0.1424
    6MOL   C562 4272   7.202   0.693   4.407  0.6544  0.0636 -0.1228
    6MOL   C563 4273   7.241   0.579   4.505 -0.3152  0.4653 -0.1033
    6MOL   C564 4274   7.195   0.445   4.456  0.3340 -0.3084  0.5470
    6MOL   C565 4275   7.252   0.397   4.317  0.9014 -0.0509  0.0451
    6MOL   C566 4276   7.224   0.253   4.281  0.1358  0.2490 -0.2018
    6MOL   C567 4277   7.298   0.206   4.154  1.4164 -0.0960  0.3946
    6MOL   C568 4278   7.218   0.262   4.031 -0.1153  0.4964  0.2630
    6MOL   C569 4279   7.303   0.248   3.908  0.6531  0.5372 -0.1675
    6MOL   N570 4280   7.312   0.110   3.848  0.5257  0.3895 -0.5925
    6MOL   H571 4281   7.289   0.837   4.169 -0.8446 -0.6250  0.8522
    6MOL   H572 4282   7.244   0.989   4.136 -0.4706  1.3759  1.4147
    6MOL   H573 4283   7.223   1.049   4.387 -0.7758  0.1320 -1.3211
    6MOL   H574 4284   7.111   0.924   4.331 -0.3192  2.0387 -2.3673
    6MOL   H575 4285   7.193   0.857   4.546 -2.1108  0.4952 -1.5840
    6MOL   H576 4286   7.352   0.830   4.477 -0.1688  0.1547  1.4459
    6MOL   H577 4287   7.097   0.684   4.382  0.3001  1.0945  0.9557
    6MOL   H578 4288   7.262   0.676   4.318  0.3817 -0.0816 -0.2759
    6MOL   H579 4289   7.198   0.597   4.603 -1.8344 -1.9369 -0.2926
    6MOL   H580 4290   7.348   0.565   4.524 -0.6002  1.5015  2.5363
    6MOL   H581 4291   7.086   0.439   4.451  0.4502 -0.9373 -2.6975
    6MOL   H582 4292   7.218   0.366   4.528 -1.7288 -0.5369  0.9978
    6MOL   H583 4293   7.356   0.428   4.323  1.0159 -0.1723 -1.1760
    6MOL   H584 4294   7.197   0.449   4.239  1.8557  1.1207  0.1504
    6MOL   H585 4295   7.118   0.239   4.260 -0.0392 -0.0801  0.8630
    6MOL   H586 4296   7.238   0.190   4.368 -1.2818 -0.0159 -0.1432
    6MOL   H587 4297   7.309   0.098   4.159 -0.8813 -0.3987 -0.3155
    6MOL   H588 4298   7.399   0.245   4.156  1.4521 -0.1879  0.3782
    6MOL   H589 4299   7.210   0.368   4.052 -1.2171  0.8406 -1.7037
    6MOL   H590 4300   7.122   0.216   4.005 -0.7482  1.0649  1.5984
    6MOL   H591 4301   7.403   0.290   3.916  0.3808  1.7299 -2.5079
    6MOL   H592 4302   7.256   0.309   3.831  1.1151 -0.3142 -1.1297
    6MOL   H593 4303   7.337   0.034   3.909 -1.6427 -1.7139 -2.2458
    6MOL   C594 4304   7.281   0.078   3.721 -0.8603 -0.4550  0.1749
    6MOL   O595 4305   7.234   0.161   3.646 -0.6443  0.1724 -0.1836
    6MOL   C596 4306   7.287   7.624   3.682 -0.0132  0.2893 -0.1752
    6MOL   C597 4307   7.203   7.595   3.560 -0.1802  0.7238  0.3130
    6MOL   C598 4308   7.171   7.440   3.544 -0.7027  0.2265  0.1276
    6MOL   C599 4309   7.294   7.345   3.547 -0.2639  0.1966 -0.4032
    6MOL   C600 4310   7.249   7.194   3.529 -0.1761 -0.3569 -0.4202
    6MOL   C601 4311   7.363   7.098   3.522  0.2975  0.3800  0.1407
    6MOL   C602 4312   7.303   6.957   3.501  0.3596  0.2143  0.5081
    6MOL   C603 4313   7.411   6.854   3.505 -0.2288  0.2437 -0.2987
    6MOL   C604 4314   7.364   6.734   3.430 -0.1844  0.2422 -0.0593
    6MOL   C605 4315   7.271   6.658   3.507 -0.1585 -0.1744  0.3420
    6MOL   C606 4316   7.223   6.522   3.442  0.3123 -1.1346  0.0185
    6MOL   N607 4317   7.139   6.445   3.532 -0.1729 -0.5447 -0.4449
    6MOL   H608 4318   7.251   7.572   3.770  1.4065 -3.5391 -1.7669
    6MOL   H609 4319   7.386   7.581   3.670 -0.2205 -0.2472  0.0179
    6MOL   H610 4320   7.102   7.634   3.575 -0.4393  1.4002 -2.9548
    6MOL   H611 4321   7.252   7.631   3.470  2.4023 -1.3188  0.8558
    6MOL   H612 4322   7.117   7.429   3.451 -1.8298  1.8720  0.5581
    6MOL   H613 4323   7.100   7.404   3.618 -2.0425  1.6068 -0.4740
    6MOL   H614 4324   7.363   7.384   3.472  0.3549  1.4670  0.8127
    6MOL   H615 4325   7.351   7.358   3.639  0.3360  0.5293 -0.8221
    6MOL   H616 4326   7.178   7.177   3.449 -2.7522 -0.3278  1.7903
    6MOL   H617 4327   7.197   7.191   3.625  0.3762 -1.6103 -0.1514
    6MOL   H618 4328   7.414   7.109   3.618  0.3891  0.9042  0.0323
    6MOL   H619 4329   7.431   7.119   3.439 -1.8423  1.8135 -1.2889
    6MOL   H620 4330   7.257   6.943   3.403 -1.5281  0.2303  1.3654
    6MOL   H621 4331   7.220   6.946   3.570 -0.4546  0.9840 -0.3204
    6MOL   H622 4332   7.437   6.823   3.606 -0.0359  2.5529  0.3786
    6MOL   H623 4333   7.499   6.891   3.452  0.2349  2.1539  1.7586
    6MOL   H624 4334   7.453   6.680   3.399  0.2641  0.6286  0.5480
    6MOL   H625 4335   7.321   6.752   3.331 -1.1329 -1.3708  0.0442
    6MOL   H626 4336   7.186   6.723   3.528  0.5191  0.0908  2.4349
    6MOL   H627 4337   7.314   6.636   3.605  0.0472 -0.7302  0.1317
    6MOL   H628 4338   7.307   6.459   3.415  1.6714  0.8117 -0.4154
    6MOL   H629 4339   7.170   6.548   3.351  0.2872 -0.1868  0.2908
    6MOL   H630 4340   7.165   6.352   3.561  0.1490 -1.0791 -2.3592
    6MOL   C631 4341   7.015   6.481   3.564  0.3002 -0.0413 -0.7019
    6MOL   O632 4342   6.959   6.589   3.532 -0.1334  0.0195 -0.5027
    6MOL   C633 4343   6.942   6.382   3.658  0.8348  0.8696 -0.8443
    6MOL   C634 4344   6.791   6.422   3.703  0.8162 -0.3431 -0.2552
    6MOL   C635 4345   6.683   6.394   3.593 -0.2836 -0.2958  0.6184
    6MOL   C636 4346   6.549   6.446   3.645  0.1527  0.5552 -0.1691
    6MOL   C637 4347   6.429   6.433   3.553  0.3623 -0.1874  0.6857
    6MOL   C638 4348   6.307   6.477   3.637 -0.1583  0.3337  0.7550
    6MOL   C639 4349   6.169   6.461   3.576 -0.2911  0.0380 -0.6193
    6MOL   C640 4350   6.054   6.517   3.674  0.0089 -0.2495 -0.3127
    6MOL   C641 4351   5.920   6.487   3.630  0.6438 -0.3910  0.0589
    6MOL   C642 4352   5.810   6.541   3.718  0.1961 -0.0894  0.2108
    6MOL   C643 4353   5.670   6.542   3.659  0.5515 -0.4435  0.2132
    6MOL   N644 4354   5.611   6.409   3.658 -0.0379  0.0935  0.7603
    6MOL   H645 4355   7.007   6.365   3.745 -0.1876  1.5098  0.0569
    6MOL   H646 4356   6.937   6.281   3.618  0.6069 -0.4074  2.2085
    6MOL   H647 4357   6.761   6.372   3.794  1.7736 -0.0088  0.2507
    6MOL   H648 4358   6.791   6.524   3.741  0.3027 -0.9046  1.2714
    6MOL   H649 4359   6.663   6.287   3.584  1.1032 -0.7927  2.8667
    6MOL   H650 4360   6.702   6.446   3.500  0.7741  0.4119  1.2144
    6MOL   H651 4361   6.528   6.394   3.739  0.4746 -2.8993 -1.9204
    6MOL   H652 4362   6.568   6.547   3.680  2.1496  0.2237 -0.2217
    6MOL   H653 4363   6.409   6.330   3.525  3.9829 -0.5933 -0.7371
    6MOL   H654 4364   6.442   6.495   3.463  0.9948  0.2050  1.0442
    6MOL   H655 4365   6.330   6.580   3.663 -2.8311  1.2701 -0.3815
    6MOL   H656 4366   6.309   6.426   3.733  1.2488  1.1315  1.1565
    6MOL   H657 4367   6.154   6.364   3.529  0.8001 -0.3967 -0.0729
    6MOL   H658 4368   6.183   6.511   3.479 -0.1317  0.9645 -0.1272
    6MOL   H659 4369   6.050   6.626   3.677 -1.5004 -0.3342  2.5820
    6MOL   H660 4370   6.069   6.476   3.773  2.8773 -0.4102 -0.7772
    6MOL   H661 4371   5.913   6.378   3.625  0.2326 -0.4024  0.7757
    6MOL   H662 4372   5.905   6.529   3.531 -2.8704 -0.5446  0.4887
    6MOL   H663 4373   5.834   6.640   3.756  1.8528 -0.1105 -0.7351
    6MOL   H664 4374   5.808   6.475   3.805  2.3177 -0.6599 -0.1549
    6MOL   H665 4375   5.681   6.578   3.556 -0.7579 -0.2737  0.1177
    6MOL   H666 4376   5.599   6.607   3.710  0.4536  0.6512 -1.2875
    6MOL   H667 4377   5.613   6.369   3.565  0.6892 -0.3805  0.9818
    6MOL   C668 4378   5.542   6.351   3.757  0.6582 -0.5575  0.5582
    6MOL   O669 4379   5.550   6.396   3.870  0.1047 -0.2037 -0.3362
    6MOL   C670 4380   5.467   6.212   3.723  0.3239  0.1473 -0.5241
    6MOL   C671 4381   5.314   6.229   3.724  0.0005 -0.0709  0.0871
    6MOL   C672 4382   5.241   6.291   3.604  1.0197 -0.1517 -0.1212
    6MOL   C673 4383   5.197   6.191   3.499 -0.0637 -0.3929 -0.1143
    6MOL   C674 4384   5.155   6.255   3.363  0.1688 -0.4712 -0.8096
    6MOL   C675 4385   5.090   6.156   3.266 -0.3182  0.9813  0.5322
    6MOL   C676 4386   5.192   6.046   3.226 -0.4460  0.5424 -0.1732
    6MOL   C677 4387   5.163   5.974   3.096 -0.2688 -0.5188 -0.3001
    6MOL   C678 4388   5.276   5.874   3.069 -0.5422 -0.5955  0.0729
    6MOL   C679 4389   5.262   5.811   2.938 -0.0987  0.1210 -0.2165
    6MOL   C680 4390   5.374   5.707   2.893 -0.8973 -0.2082 -1.2469
    6MOL   N681 4391   5.496   5.784   2.877 -0.2881 -0.2729  0.5790
    6MOL   H682 4392   5.499   6.140   3.798  0.4723  1.2360  0.4619
    6MOL   H683 4393   5.502   6.164   3.632 -0.3402  0.4504 -0.9467
    6MOL   H684 4394   5.258   6.140   3.751 -0.1358 -0.2186 -0.6634
    6MOL   H685 4395   5.290   6.298   3.805  0.6852 -1.4184  1.4717
    6MOL   H686 4396   5.300   6.369   3.556  0.8056  0.0705 -0.0248
    6MOL   H687 4397   5.147   6.338   3.634  1.5038  0.6809  0.0882
    6MOL   H688 4398   5.276   6.116   3.492 -0.1798 -0.6144  0.8506
    6MOL   H689 4399   5.112   6.129   3.531  0.4794 -1.0024  0.1530
    6MOL   H690 4400   5.248   6.304   3.333  0.5559  1.1169  2.6729
    6MOL   H691 4401   5.085   6.335   3.388  1.3744  1.0564 -2.1773
    6MOL   H692 4402   5.055   6.204   3.174 -1.2347 -1.4751 -0.4598
    6MOL   H693 4403   5.009   6.102   3.316 -1.9067  0.3977 -2.4960
    6MOL   H694 4404   5.201   5.973   3.306  1.1413  1.9294  0.9553
    6MOL   H695 4405   5.292   6.088   3.213 -0.2747  0.4207  0.7773
    6MOL   H696 4406   5.130   6.039   3.015  0.3026  1.6572  1.1472
    6MOL   H697 4407   5.076   5.914   3.123  0.3113 -1.2861 -0.1134
    6MOL   H698 4408   5.269   5.789   3.138 -0.7992  0.8846  1.8911
    6MOL   H699 4409   5.374   5.919   3.081 -1.5706  0.8471  3.8726
    6MOL   H700 4410   5.268   5.898   2.873  1.5047 -1.5469 -2.3926
    6MOL   H701 4411   5.162   5.779   2.911  0.3126 -0.0450 -1.6122
    6MOL   H702 4412   5.345   5.651   2.804 -4.3542 -1.0352  0.3248
    6MOL   H703 4413   5.399   5.632   2.968  2.9083  0.3147 -1.8503
    6MOL   H704 4414   5.555   5.793   2.958 -1.3188 -1.2630  1.4513
    6MOL   C705 4415   5.537   5.849   2.771  0.3489  0.0211 -0.0682
    6MOL   O706 4416   5.476   5.833   2.668 -0.3782 -0.9432  0.0947
    6MOL   C707 4417   5.666   5.918   2.777  0.0408  0.0045 -0.1230
    6MOL   C708 4418   5.783   5.841   2.838 -0.9544 -0.8600  0.1829
    6MOL   C709 4419   5.923   5.859   2.764  1.4027  0.0300  0.3116
    6MOL   C710 4420   5.980   5.995   2.805  0.5081 -0.1531  0.0224
    6MOL   C711 4421   6.123   6.021   2.762  0.5630 -0.4507 -0.0950
    6MOL   C712 4422   6.154   6.165   2.800 -0.9247  0.2111  0.2094
    6MOL   C713 4423   6.287   6.215   2.755 -0.0681  0.5515  0.3383
    6MOL   C714 4424   6.324   6.355   2.803  0.4468  0.5066 -0.5295
    6MOL   C715 4425   6.463   6.381   2.766 -0.7324 -0.0982 -0.0690
    6MOL   C716 4426   6.523   6.486   2.851  0.4551 -0.5455  0.2043
    6MOL   C717 4427   6.655   6.540   2.789  0.3943  0.1073 -0.3501
    6MOL   N718 4428   6.691   6.674   2.823  0.1922 -0.0049 -0.2600
    6MOL   H719 4429   5.648   6.010   2.834  1.2500  0.3688 -0.3117
    6MOL   H720 4430   5.703   5.952   2.680 -0.2716  1.2845  0.1882
    6MOL   H721 4431   5.768   5.851   2.945 -0.6690 -0.5584  0.1946
    6MOL   H722 4432   5.761   5.736   2.819  0.0659 -0.7441 -1.6815
    6MOL   H723 4433   5.916   5.846   2.656  1.8750  0.1390  0.2695
    6MOL   H724 4434   5.983   5.780   2.809  0.8325 -0.9262 -0.5855
    6MOL   H725 4435   5.921   6.076   2.763  0.4145 -0.7373 -1.0041
    6MOL   H726 4436   5.967   5.996   2.913  1.3935  2.3472  0.1416
    6MOL   H727 4437   6.136   5.997   2.656 -0.2601  0.8694 -0.5075
    6MOL   H728 4438   6.189   5.963   2.826  0.7588  1.0047  1.0249
    6MOL   H729 4439   6.148   6.178   2.909 -0.9696 -1.1819  0.3769
    6MOL   H730 4440   6.079   6.232   2.757 -2.9266 -1.3608  1.1380
    6MOL   H731 4441   6.293   6.196   2.648 -0.4413 -2.3713  0.7946
    6MOL   H732 4442   6.358   6.150   2.806 -0.1777  0.4161  0.3177
    6MOL   H733 4443   6.308   6.365   2.911 -0.3555  0.0204 -0.6023
    6MOL   H734 4444   6.248   6.415   2.755  0.6073  1.2450  0.1235
    6MOL   H735 4445   6.449   6.415   2.663  1.1252 -0.1272 -0.3504
    6MOL   H736 4446   6.524   6.291   2.757 -1.9926 -1.0743  1.0159
    6MOL   H737 4447   6.532   6.453   2.954  0.7391 -0.9961  0.0368
    6MOL   H738 4448   6.450   6.566   2.859  0.8292 -0.2128  0.3293
    6MOL   H739 4449   6.660   6.537   2.680 -0.5558 -3.6903 -0.3787
    6MOL   H740 4450   6.735   6.481   2.834  0.0639 -0.0429  0.0416
    6MOL   H741 4451   6.621   6.738   2.787 -0.0360 -1.5128 -2.5271
    6MOL   H742 4452   6.682   6.692   2.922  2.2537 -1.4421  0.2214
    7MOL     C1 4453   6.314   6.872   0.341  0.0233  0.2071  0.3037
    7MOL     O2 4454   6.299   6.959   0.434 -0.2283  0.1792 -0.2197
    7MOL     C3 4455   6.296   6.725   0.374 -0.2161 -0.9635 -0.3144
    7MOL     C4 4456   6.310   6.644   0.241 -0.4001 -0.6575 -0.1219
    7MOL     C5 4457   6.239   6.508   0.256 -0.1814 -0.5607 -0.0404
    7MOL     C6 4458   6.273   6.406   0.146 -0.0381 -0.5020  0.0412
    7MOL     C7 4459   6.210   6.444   0.012  0.4399 -1.5435  0.0102
    7MOL     C8 4460   6.279   6.383   7.589 -0.2911  0.0827 -0.1388
    7MOL     C9 4461   6.216   6.415   7.449 -0.2364  1.3633 -0.1229
    7MOL    C10 4462   6.286   6.342   7.335 -0.3001  0.2159 -0.1883
    7MOL    C11 4463   6.436   6.364   7.316 -0.0380  0.2430 -0.2823
    7MOL    C12 4464   6.463   6.504   7.260  0.4034 -0.2537 -0.3112
    7MOL    C13 4465   6.610   6.536   7.239 -0.0645  0.4231  0.5148
    7MOL    N14 4466   6.641   6.681   7.227 -0.3752  0.2117 -0.0246
    7MOL    H15 4467   6.201   6.718   0.425 -0.8856  0.6984 -1.2782
    7MOL    H16 4468   6.375   6.677   0.432 -0.5278 -1.1026 -0.0107
    7MOL    H17 4469   6.269   6.705   0.161 -0.4295  0.8756  1.0320
    7MOL    H18 4470   6.416   6.634   0.221  0.1168  0.7996  1.7686
    7MOL    H19 4471   6.132   6.525   0.241  0.0915  1.6692  0.2623
    7MOL    H20 4472   6.256   6.466   0.355  2.8101 -0.0112 -0.2897
    7MOL    H21 4473   6.381   6.400   0.131 -0.3505 -0.6003 -2.3721
    7MOL    H22 4474   6.232   6.312   0.182 -0.3068 -0.3022  0.2569
    7MOL    H23 4475   6.230   6.548   7.680  3.6488 -2.9170 -3.4654
    7MOL    H24 4476   6.103   6.422   0.011 -0.0515  0.6951 -1.9787
    7MOL    H25 4477   6.281   6.276   7.610  0.7444 -0.0452 -0.8244
    7MOL    H26 4478   6.382   6.420   7.592  0.3978 -1.8589  1.3198
    7MOL    H27 4479   6.205   6.518   7.416  1.9321  0.6384 -3.2392
    7MOL    H28 4480   6.111   6.385   7.443  0.4168 -0.9937 -0.1047
    7MOL    H29 4481   6.243   6.383   7.244 -1.9314  0.2558  0.5812
    7MOL    H30 4482   6.266   6.236   7.343 -0.0188 -0.1756 -3.7412
    7MOL    H31 4483   6.469   6.283   7.252 -1.2790 -1.0326  0.6620
    7MOL    H32 4484   6.485   6.357   7.413 -0.9603  1.6620  0.3035
    7MOL    H33 4485   6.431   6.574   7.337 -0.1466 -0.9564  0.1042
    7MOL    H34 4486   6.407   6.534   7.171 -0.4584  0.3759  0.4400
    7MOL    H35 4487   6.647   6.478   7.154  0.4954  2.3683 -0.5938
    7MOL    H36 4488   6.657   6.504   7.332  1.9225 -1.6247 -1.1132
    7MOL    H37 4489   6.582   6.739   7.169  1.2583  0.8315 -1.0877
    7MOL    H38 4490   6.328   6.892   0.235 -2.6008 -1.0154 -0.3000
    7MOL    C39 4491   6.759   6.736   7.246  0.0517 -0.1654 -0.4879
    7MOL    O40 4492   6.848   6.676   7.305 -0.4418 -0.6473  0.0507
    7MOL    C41 4493   6.782   6.882   7.203  0.2798  0.0831  0.3120
    7MOL    C42 4494   6.883   6.967   7.285 -0.5109 -0.1090  0.6422
    7MOL    C43 4495   6.872   7.117   7.245 -0.4320  0.4050  0.0669
    7MOL    C44 4496   6.956   7.152   7.114  0.2080  0.2295  0.3905
    7MOL    C45 4497   7.081   7.222   7.124 -0.0905 -0.0995 -0.2919
    7MOL    C46 4498   7.162   7.245   6.996  0.2542  0.6550  0.2048
    7MOL    C47 4499   7.290   7.314   7.023  0.0426 -0.4382  0.3099
    7MOL    C48 4500   7.280   7.469   7.016  0.7171  0.4713  0.0335
    7MOL    C49 4501   7.413   7.534   7.067  0.1078 -0.2285  0.4149
    7MOL    C50 4502   7.428   7.686   7.038 -0.4062 -0.0077  0.3442
    7MOL    C51 4503   7.574   0.042   7.051  0.4065 -0.2656 -0.3183
    7MOL    N52 4504   7.586   0.186   7.037 -0.0265 -0.3645  0.9367
    7MOL    H53 4505   6.683   6.929   7.204 -0.0673 -0.6680  1.6854
    7MOL    H54 4506   6.814   6.875   7.098 -0.2227  2.7586 -0.0744
    7MOL    H55 4507   6.855   6.952   7.389 -0.8443 -0.2176  0.5366
    7MOL    H56 4508   6.984   6.926   7.276 -0.4306  0.0358  0.8981
    7MOL    H57 4509   6.902   7.182   7.327  1.0365 -1.2165  0.8718
    7MOL    H58 4510   6.767   7.143   7.233 -0.2218  1.3921  0.3287
    7MOL    H59 4511   6.979   7.059   7.063  0.1695  0.5885 -0.2843
    7MOL    H60 4512   6.892   7.204   7.042  1.2345 -0.0198 -0.7183
    7MOL    H61 4513   7.137   7.161   7.195  2.2840  1.2234 -0.9576
    7MOL    H62 4514   7.078   7.313   7.185 -1.3121 -0.3221 -0.0184
    7MOL    H63 4515   7.106   7.302   6.923  0.1361  0.0150 -0.2063
    7MOL    H64 4516   7.187   7.151   6.948 -1.0844  0.8643 -0.9217
    7MOL    H65 4517   7.356   7.269   6.949 -0.1238  0.0018 -0.1074
    7MOL    H66 4518   7.327   7.277   7.119  1.3339  1.0473  0.4075
    7MOL    H67 4519   7.190   7.503   7.069 -1.6590  0.7672 -3.9875
    7MOL    H68 4520   7.273   7.512   6.916 -0.2324  1.1070  0.3622
    7MOL    H69 4521   7.499   7.486   7.021  1.0478  0.9795  0.9143
    7MOL    H70 4522   7.425   7.504   7.172  2.3513 -2.0368 -0.3174
    7MOL    H71 4523   7.372   0.059   7.103  1.2471  1.4890  0.2626
    7MOL    H72 4524   7.406   0.013   6.933 -1.0250 -1.5159  0.1590
    7MOL    H73 4525   7.638   0.004   6.971 -0.3949 -1.4315 -0.4176
    7MOL    H74 4526   7.607   0.013   7.151 -1.0827  0.6580  0.4601
    7MOL    H75 4527   7.506   0.235   6.999  0.6034 -0.7173 -0.8623
    7MOL    C76 4528   0.007   0.255   7.053 -0.3135 -0.4639 -0.0338
    7MOL    O77 4529   0.108   0.200   7.098  0.0239  0.3504  0.0128
    7MOL    C78 4530   0.018   0.397   6.996  1.2364  0.3780  0.3491
    7MOL    C79 4531   0.138   0.431   6.919  0.7105  0.3043  0.7653
    7MOL    C80 4532   0.146   0.575   6.872  0.3508 -0.1679  0.1427
    7MOL    C81 4533   0.249   0.591   6.764 -0.0147 -0.1249 -0.1488
    7MOL    C82 4534   0.208   0.529   6.625 -0.4402 -0.7864  0.8638
    7MOL    C83 4535   0.118   0.609   6.532 -0.7896 -0.1140 -0.3623
    7MOL    C84 4536   0.130   0.557   6.384  0.5371 -0.1256 -0.8438
    7MOL    C85 4537   0.049   0.638   6.284  0.4633  0.7159 -0.4736
    7MOL    C86 4538   0.016   0.584   6.141  0.5587 -0.0337 -0.0899
    7MOL    C87 4539   0.132   0.531   6.059 -0.3727  0.1133  0.5778
    7MOL    C88 4540   0.087   0.493   5.925  1.0112 -0.9633 -0.6658
    7MOL    N89 4541   0.203   0.458   5.845 -0.1224 -0.0131 -0.4772
    7MOL    H90 4542   7.686   0.466   7.077 -1.8071  0.9758 -1.0580
    7MOL    H91 4543   7.631   0.406   6.924  2.0978 -0.2561 -0.7155
    7MOL    H92 4544   0.231   0.405   6.970 -0.6216 -1.4307  2.4117
    7MOL    H93 4545   0.127   0.362   6.835 -0.0880 -0.5904  1.5891
    7MOL    H94 4546   0.172   0.638   6.957  1.9150 -0.3851 -0.1595
    7MOL    H95 4547   0.050   0.615   6.840  2.1210  2.0090 -2.6638
    7MOL    H96 4548   0.293   0.691   6.753  0.6528 -0.4829 -0.7880
    7MOL    H97 4549   0.339   0.533   6.784 -1.3062 -2.0976  0.0353
    7MOL    H98 4550   0.178   0.426   6.641 -1.1286 -0.5601  1.0493
    7MOL    H99 4551   0.298   0.503   6.571 -1.4448 -1.3215 -0.5779
    7MOL   H100 4552   0.148   0.713   6.543 -0.4697 -0.3238  0.8191
    7MOL   H101 4553   0.012   0.597   6.553 -0.8251  0.5429 -0.1725
    7MOL   H102 4554   0.106   0.451   6.381 -3.9174  0.6471  2.1473
    7MOL   H103 4555   0.233   0.564   6.349  0.7913 -2.9093 -0.7689
    7MOL   H104 4556   0.099   0.733   6.269  0.0543  0.8826 -0.8092
    7MOL   H105 4557   7.644   0.670   6.317  0.5645 -0.6184  1.2137
    7MOL   H106 4558   7.682   0.673   6.083 -1.1989 -1.9047 -2.2100
    7MOL   H107 4559   7.614   0.531   6.139  0.5845 -0.0392 -1.3415
    7MOL   H108 4560   0.174   0.447   6.114  1.4773  0.8463  0.3197
    7MOL   H109 4561   0.217   0.599   6.048  0.6288 -1.2225 -0.0628
    7MOL   H110 4562   0.039   0.572   5.867 -0.7728 -2.4020 -1.1960
    7MOL   H111 4563   0.025   0.405   5.913  3.1965 -2.7820  1.0306
    7MOL   H112 4564   0.281   0.449   5.909 -0.1117 -2.0275 -0.7425
    7MOL   C113 4565   0.205   0.417   5.714 -0.0236 -0.1791  0.3543
    7MOL   O114 4566   0.103   0.389   5.654 -0.0850  0.5433  0.0646
    7MOL   C115 4567   0.339   0.402   5.652 -0.0651  0.3015  0.5872
    7MOL   C116 4568   0.377   0.522   5.555 -0.0124 -0.0220 -0.3190
    7MOL   C117 4569   0.533   0.514   5.529 -0.0778  0.4708 -0.0389
    7MOL   C118 4570   0.576   0.621   5.430  0.2230 -0.6533 -0.4431
    7MOL   C119 4571   0.727   0.637   5.407  0.2091 -0.3130  0.5459
    7MOL   C120 4572   0.751   0.723   5.283 -0.3344 -0.3618 -0.1349
    7MOL   C121 4573   0.900   0.744   5.257 -0.2724 -0.0208  0.0915
    7MOL   C122 4574   0.932   0.756   5.110  0.4140 -0.2448  0.4270
    7MOL   C123 4575   1.085   0.770   5.076 -0.4417  0.0251 -0.3922
    7MOL   C124 4576   1.124   0.798   4.933 -0.5497 -0.1629 -0.4294
    7MOL   C125 4577   1.277   0.807   4.908 -0.7467  0.2815  0.3209
    7MOL   N126 4578   1.342   0.687   4.955  0.0973  0.0615  0.1001
    7MOL   H127 4579   0.350   0.308   5.598 -2.5484  1.5588 -2.2284
    7MOL   H128 4580   0.416   0.401   5.730 -0.6483 -2.3961  1.2044
    7MOL   H129 4581   0.317   0.520   5.464 -0.4099  0.5406 -0.0701
    7MOL   H130 4582   0.340   0.603   5.618  1.4122  1.4119 -1.2775
    7MOL   H131 4583   0.579   0.420   5.500 -0.1034  0.8068 -1.2018
    7MOL   H132 4584   0.597   0.526   5.617  2.4440 -0.9132 -1.6305
    7MOL   H133 4585   0.512   0.607   5.343  0.6809  0.0016 -0.8921
    7MOL   H134 4586   0.535   0.719   5.455  1.1412 -0.5856  0.8107
    7MOL   H135 4587   0.773   0.542   5.381  1.4546  0.5379 -0.4231
    7MOL   H136 4588   0.767   0.688   5.494 -1.0142 -0.1171  1.0035
    7MOL   H137 4589   0.707   0.823   5.291 -0.9178 -0.6812  0.6469
    7MOL   H138 4590   0.703   0.670   5.201  0.7940 -2.3248  0.4447
    7MOL   H139 4591   0.950   0.658   5.302 -1.3859 -1.8967 -2.1597
    7MOL   H140 4592   0.925   0.829   5.319  1.1395 -0.7100  0.4962
    7MOL   H141 4593   0.866   0.834   5.071  1.4365  0.5782  0.3154
    7MOL   H142 4594   0.884   0.670   5.065 -1.1079  0.5616  0.4828
    7MOL   H143 4595   1.135   0.683   5.118 -1.2318 -0.2391  0.0176
    7MOL   H144 4596   1.125   0.855   5.131 -0.6984  0.0313 -0.2118
    7MOL   H145 4597   1.087   0.895   4.898 -0.1140  0.2730  0.3066
    7MOL   H146 4598   1.074   0.720   4.875 -1.2939  1.4747 -2.0761
    7MOL   H147 4599   1.320   0.896   4.954  0.8711  0.4967 -1.5553
    7MOL   H148 4600   1.296   0.824   4.802 -0.9668  3.3795  0.7288
    7MOL   H149 4601   1.284   0.606   4.967 -0.1560  0.0624 -1.0953
    7MOL   C150 4602   1.451   0.691   5.027 -0.3755  0.2454 -0.6450
    7MOL   O151 4603   1.517   0.795   5.034 -0.2465 -0.2101 -0.4410
    7MOL   C152 4604   1.487   0.562   5.106  0.6572  0.1973  0.2273
    7MOL   C153 4605   1.500   0.591   5.257  0.2451  0.0239  0.0691
    7MOL   C154 4606   1.374   0.663   5.317 -0.4005  0.6342 -0.7699
    7MOL   C155 4607   1.375   0.673   5.471 -0.5088  0.6985  0.0530
    7MOL   C156 4608   1.500   0.750   5.525 -0.3192 -0.6964  0.9565
    7MOL   C157 4609   1.479   0.845   5.640 -0.5230  0.4052 -0.1709
    7MOL   C158 4610   1.400   0.968   5.597 -0.1499  0.4332  0.0303
    7MOL   C159 4611   1.374   1.065   5.719  0.0572 -0.4121 -0.6527
    7MOL   C160 4612   1.287   1.182   5.678 -0.2630  0.6240  0.5561
    7MOL   C161 4613   1.248   1.279   5.797  0.4715 -0.3698 -0.4268
    7MOL   C162 4614   1.133   1.372   5.760  0.1081  0.2550 -0.0760
    7MOL   N163 4615   1.106   1.475   5.859 -0.8627 -0.1223  0.3306
    7MOL   H164 4616   1.582   0.531   5.062 -0.5837 -2.0248 -0.9198
    7MOL   H165 4617   1.417   0.482   5.084 -0.4205  1.5699 -1.4828
    7MOL   H166 4618   1.524   0.505   5.319 -3.7422 -1.3980 -0.2144
    7MOL   H167 4619   1.590   0.650   5.274 -0.1136  0.3360  0.9649
    7MOL   H168 4620   1.284   0.609   5.289 -1.7369  1.0447  2.5943
    7MOL   H169 4621   1.359   0.760   5.269  0.2927  1.4761  0.6732
    7MOL   H170 4622   1.279   0.719   5.495 -1.0435 -0.4251  0.1510
    7MOL   H171 4623   1.364   0.576   5.521  1.8846  0.4485  0.1254
    7MOL   H172 4624   1.541   0.808   5.442 -1.2822 -2.3458 -0.7165
    7MOL   H173 4625   1.577   0.675   5.541  1.5321  1.4016  2.1242
    7MOL   H174 4626   1.572   0.877   5.687 -0.6243  0.2108  0.1643
    7MOL   H175 4627   1.429   0.791   5.721  3.1436 -3.5918 -0.4247
    7MOL   H176 4628   1.306   0.930   5.556  0.0877  0.9365 -0.9805
    7MOL   H177 4629   1.451   1.018   5.515 -1.1866  0.7569 -0.4283
    7MOL   H178 4630   1.461   1.109   5.768  0.3207 -1.6193 -0.0187
    7MOL   H179 4631   1.323   1.007   5.795  0.5159 -2.6607 -1.9964
    7MOL   H180 4632   1.201   1.149   5.620 -0.4813  1.2770  0.4970
    7MOL   H181 4633   1.346   1.236   5.604 -1.9845  0.5097 -0.9272
    7MOL   H182 4634   1.330   1.347   5.821  0.5741  0.5603 -3.2055
    7MOL   H183 4635   1.221   1.215   5.881  0.1285  1.9854  1.2979
    7MOL   H184 4636   1.042   1.314   5.746  1.4021 -1.9524  0.5032
    7MOL   H185 4637   1.166   1.420   5.668 -0.8236 -2.6579 -2.0077
    7MOL   H186 4638   1.141   1.469   5.954 -0.9622  3.1420  0.6348
    7MOL   C187 4639   1.023   1.578   5.839 -0.9465 -0.0617  0.2068
    7MOL   O188 4640   0.975   1.598   5.731  0.4604 -0.0462 -0.1016
    7MOL   C189 4641   0.991   1.672   5.958 -1.3395 -0.1980 -0.2610
    7MOL   C190 4642   0.916   1.798   5.930  0.8846 -0.0221 -0.1567
    7MOL   C191 4643   0.999   1.908   5.865  0.7005 -0.2330  0.6039
    7MOL   C192 4644   0.916   2.016   5.799 -0.4275 -0.4142 -0.4179
    7MOL   C193 4645   0.994   2.124   5.728  0.4454  0.1703 -0.3631
    7MOL   C194 4646   0.888   2.208   5.649 -0.0750 -0.1383  0.5339
    7MOL   C195 4647   0.955   2.319   5.558  0.0256 -0.1095 -0.1269
    7MOL   C196 4648   1.023   2.422   5.648 -0.1219 -0.2512  0.1897
    7MOL   C197 4649   0.925   2.492   5.750 -0.3826 -0.1120  0.5199
    7MOL   C198 4650   0.988   2.619   5.801 -0.1207 -0.1761  0.4808
    7MOL   C199 4651   0.902   2.718   5.885 -0.1433 -0.3277 -0.0212
    7MOL   N200 4652   0.979   2.833   5.939 -0.8536 -0.6846  0.3005
    7MOL   H201 4653   1.085   1.688   6.012 -2.0709 -2.1388  1.6771
    7MOL   H202 4654   0.934   1.611   6.027  0.7814 -0.2385  1.5101
    7MOL   H203 4655   0.822   1.781   5.878  0.1254  0.7655  0.9418
    7MOL   H204 4656   0.876   1.829   6.026 -1.1755 -2.3753 -0.1948
    7MOL   H205 4657   1.066   1.870   5.788  1.7154  0.4655  1.1386
    7MOL   H206 4658   1.055   1.955   5.945  0.5595 -1.0532  1.1939
    7MOL   H207 4659   0.846   1.969   5.730  0.0869  0.1418 -1.3167
    7MOL   H208 4660   0.859   2.054   5.884  0.8584 -3.6494  2.0184
    7MOL   H209 4661   1.072   2.097   5.657  2.4859  3.2135  0.6353
    7MOL   H210 4662   1.041   2.194   5.798 -1.1182  1.2872 -0.4026
    7MOL   H211 4663   0.821   2.256   5.720  0.4048  2.0555 -0.4471
    7MOL   H212 4664   0.827   2.147   5.582 -0.4306  1.1294 -0.3243
    7MOL   H213 4665   0.883   2.367   5.492  0.0363 -0.2636 -0.2512
    7MOL   H214 4666   1.030   2.273   5.495  1.6693  3.5729 -0.9555
    7MOL   H215 4667   1.056   2.494   5.573  1.3237  0.3850  1.4155
    7MOL   H216 4668   1.118   2.391   5.691  1.1054 -1.0340 -2.9337
    7MOL   H217 4669   0.903   2.432   5.838  0.6688 -1.6518 -0.2531
    7MOL   H218 4670   0.836   2.515   5.691  0.8101  2.2676 -0.4048
    7MOL   H219 4671   1.044   2.681   5.730  1.5249  0.4899  2.3014
    7MOL   H220 4672   1.067   2.584   5.867  0.0049  0.2193  0.5445
    7MOL   H221 4673   0.872   2.658   5.970 -0.4091 -2.5163 -1.6175
    7MOL   H222 4674   0.817   2.760   5.831  1.8190  1.9122 -1.5146
    7MOL   H223 4675   1.020   2.820   6.030 -1.6415  0.3151  0.8159
    7MOL   C224 4676   1.003   2.949   5.871 -0.9188  1.1462 -0.0739
    7MOL   O225 4677   0.964   2.964   5.754  0.2190 -0.2716 -0.2957
    7MOL   C226 4678   1.072   3.061   5.937  0.2192 -0.1370 -0.2670
    7MOL   C227 4679   0.970   3.176   5.960 -0.0478 -0.5172 -0.2663
    7MOL   C228 4680   0.852   3.140   6.059 -0.1201 -0.8533 -0.3628
    7MOL   C229 4681   0.893   3.125   6.208  0.0438  0.2031  0.3537
    7MOL   C230 4682   0.787   3.056   6.293  0.1291 -0.1452 -0.3304
    7MOL   C231 4683   0.769   2.907   6.269  0.1594  1.1421 -0.0170
    7MOL   C232 4684   0.661   2.854   6.365 -0.2056  0.0170  0.1922
    7MOL   C233 4685   0.639   2.702   6.348  0.4643  0.0575  0.7616
    7MOL   C234 4686   0.518   2.656   6.428 -0.7223  0.2417 -0.1568
    7MOL   C235 4687   0.494   2.503   6.439  0.3536 -0.1063  0.0646
    7MOL   C236 4688   0.412   2.437   6.320 -0.1811 -0.3655 -0.6505
    7MOL   N237 4689   0.468   2.485   6.194  1.4322 -0.4501 -0.0307
    7MOL   H238 4690   1.145   3.102   5.867  0.3652 -0.1995 -0.1499
    7MOL   H239 4691   1.124   3.019   6.022  3.3257 -0.7110 -2.3703
    7MOL   H240 4692   1.022   3.266   5.991  0.5962 -0.2927 -1.9557
    7MOL   H241 4693   0.918   3.206   5.868 -0.7924 -1.7313 -0.2498
    7MOL   H242 4694   0.799   3.050   6.029 -0.0457 -1.3057  0.8487
    7MOL   H243 4695   0.782   3.225   6.056  3.4407  2.2435  0.4136
    7MOL   H244 4696   0.992   3.080   6.215  0.2760  0.7682  0.6915
    7MOL   H245 4697   0.903   3.230   6.232  1.6686  0.1666 -0.1423
    7MOL   H246 4698   0.698   3.117   6.277 -0.6112 -1.4085 -1.0815
    7MOL   H247 4699   0.804   3.075   6.399 -1.6055 -1.4310  0.2084
    7MOL   H248 4700   0.863   2.857   6.293 -0.1110  1.5352  1.9624
    7MOL   H249 4701   0.737   2.884   6.168  1.0096 -0.2673  0.0185
    7MOL   H250 4702   0.568   2.904   6.340 -0.4291 -1.2265 -1.5738
    7MOL   H251 4703   0.697   2.877   6.465  1.9716  0.2933 -0.6167
    7MOL   H252 4704   0.729   2.652   6.385  1.6529  2.1103  0.7254
    7MOL   H253 4705   0.634   2.677   6.242 -0.0007 -2.8873  1.4374
    7MOL   H254 4706   0.428   2.709   6.397 -0.0890  0.4472 -1.7335
    7MOL   H255 4707   0.537   2.690   6.529 -1.0762  0.0195 -0.0135
    7MOL   H256 4708   0.445   2.493   6.536 -0.6750  1.8077 -0.2284
    7MOL   H257 4709   0.589   2.449   6.442  0.0510 -0.6874 -0.7010
    7MOL   H258 4710   0.308   2.470   6.327  0.7692  2.2857  1.8558
    7MOL   H259 4711   0.419   2.329   6.334  0.6809 -0.2919 -0.4935
    7MOL   H260 4712   0.543   2.552   6.200  1.0556 -0.0389  0.1541
    7MOL   C261 4713   0.406   2.485   6.076 -0.5245 -0.9269  0.1514
    7MOL   O262 4714   0.296   2.443   6.064  0.4591  0.5011  0.2181
    7MOL   C263 4715   0.486   2.531   5.949 -0.0219 -0.6569 -0.4292
    7MOL   C264 4716   0.403   2.563   5.814 -0.3343 -0.4610  0.2070
    7MOL   C265 4717   0.493   2.600   5.698  0.1280 -0.1154  0.2384
    7MOL   C266 4718   0.573   2.482   5.642 -0.6494 -0.4421 -0.1797
    7MOL   C267 4719   0.489   2.385   5.555 -0.5715  0.5510  0.4093
    7MOL   C268 4720   0.560   2.258   5.523 -0.5502 -0.6178  0.1118
    7MOL   C269 4721   0.479   2.171   5.427  0.2711 -0.3191  0.3057
    7MOL   C270 4722   0.544   2.034   5.389  0.6891  0.0950  0.6994
    7MOL   C271 4723   0.525   1.932   5.504 -0.2046  0.0595 -0.0388
    7MOL   C272 4724   0.628   1.820   5.495  0.5524 -0.1234 -0.2988
    7MOL   C273 4725   0.635   1.726   5.621  0.1103 -0.4686 -0.1001
    7MOL   N274 4726   0.737   1.625   5.601  0.4161 -0.7182 -0.3671
    7MOL   H275 4727   0.554   2.449   5.928  2.3666  0.6775  1.7820
    7MOL   H276 4728   0.544   2.618   5.981 -0.6168 -0.8286  1.1615
    7MOL   H277 4729   0.341   2.474   5.799  1.6316 -1.4897 -2.1861
    7MOL   H278 4730   0.325   2.636   5.835 -0.7664 -0.6431 -0.7192
    7MOL   H279 4731   0.567   2.675   5.727  0.6133 -0.1638 -0.8552
    7MOL   H280 4732   0.438   2.651   5.619 -1.2532 -0.2599  1.0974
    7MOL   H281 4733   0.647   2.523   5.573 -3.0247  0.9803 -1.9537
    7MOL   H282 4734   0.613   2.424   5.726  0.6915  0.0375 -0.4705
    7MOL   H283 4735   0.475   2.448   5.467 -2.7517 -0.4025  0.0299
    7MOL   H284 4736   0.388   2.372   5.595 -0.5809  1.3486  0.6694
    7MOL   H285 4737   0.560   2.220   5.625  1.8737  0.2159  0.4657
    7MOL   H286 4738   0.661   2.278   5.485 -1.0508  0.0099 -0.9097
    7MOL   H287 4739   0.479   2.232   5.337  1.5046  2.6399  2.2259
    7MOL   H288 4740   0.375   2.151   5.457 -0.5437  0.4693 -1.8992
    7MOL   H289 4741   0.652   2.043   5.371  0.5964 -0.2421 -0.0597
    7MOL   H290 4742   0.492   2.000   5.299 -1.4740 -0.7640  2.2548
    7MOL   H291 4743   0.427   1.888   5.518 -0.3167  0.6257  0.9748
    7MOL   H292 4744   0.534   1.985   5.599 -0.6418  2.4067 -1.2711
    7MOL   H293 4745   0.725   1.868   5.485 -1.1426  3.6370  0.2120
    7MOL   H294 4746   0.615   1.759   5.406 -0.7257 -2.4544  1.4435
    7MOL   H295 4747   0.539   1.679   5.639 -0.2710  1.0824  2.1195
    7MOL   H296 4748   0.659   1.777   5.714  2.2228 -0.8828 -0.4006
    7MOL   H297 4749   0.823   1.628   5.652  2.2193 -1.3041 -3.2675
    7MOL   C298 4750   0.726   1.520   5.520 -0.5897  0.2715 -0.2481
    7MOL   O299 4751   0.636   1.491   5.446  0.4069  0.2532 -0.2745
    7MOL   C300 4752   0.842   1.415   5.529 -0.4120  0.2660 -1.1367
    7MOL   C301 4753   0.829   1.298   5.428 -0.1476  0.0097 -0.4702
    7MOL   C302 4754   0.926   1.180   5.428 -0.0501 -0.1156  0.0762
    7MOL   C303 4755   1.068   1.209   5.383  0.0740 -0.3435  0.0250
    7MOL   C304 4756   1.141   1.082   5.350  0.0763  0.0634 -0.1334
    7MOL   C305 4757   1.283   1.114   5.291  0.1811  0.1585  0.0951
    7MOL   C306 4758   1.293   1.163   5.147  0.4171  0.2041  0.4058
    7MOL   C307 4759   1.440   1.177   5.107  0.0833 -0.2799 -0.3994
    7MOL   C308 4760   1.466   1.203   4.953  0.4197 -0.3781  0.4931
    7MOL   C309 4761   1.617   1.228   4.936  0.3677 -0.1189  0.0601
    7MOL   C310 4762   1.705   1.101   4.946  0.2409  0.8154  0.1633
    7MOL   N311 4763   1.667   0.986   4.869  0.4740 -0.2318 -0.5715
    7MOL   H312 4764   0.844   1.374   5.630  0.1226 -1.3159 -1.7794
    7MOL   H313 4765   0.933   1.469   5.500 -0.1091 -0.7678 -2.1414
    7MOL   H314 4766   0.729   1.255   5.438  0.7375 -1.8169  0.6761
    7MOL   H315 4767   0.831   1.337   5.326  0.9267  1.3095  0.0361
    7MOL   H316 4768   0.886   1.096   5.371 -2.9944  1.0728  0.2787
    7MOL   H317 4769   0.925   1.139   5.529  2.6707  0.3144  0.3023
    7MOL   H318 4770   1.057   1.270   5.293  0.8154 -1.6879 -0.9924
    7MOL   H319 4771   1.115   1.273   5.458 -0.9733 -0.9059  1.1623
    7MOL   H320 4772   1.090   1.009   5.286  0.5614  0.1012 -0.5671
    7MOL   H321 4773   1.165   1.031   5.443  1.7729  1.8804  0.4652
    7MOL   H322 4774   1.346   1.027   5.311 -0.3210 -0.6122 -1.5852
    7MOL   H323 4775   1.319   1.193   5.357 -0.3855  1.4132 -1.0588
    7MOL   H324 4776   1.241   1.259   5.139 -1.0382 -0.5973 -0.0067
    7MOL   H325 4777   1.257   1.092   5.073  0.4622  1.0098 -0.4007
    7MOL   H326 4778   1.501   1.091   5.133 -1.3892 -1.3000 -0.2416
    7MOL   H327 4779   1.485   1.255   5.168  0.3211 -0.5461 -0.2329
    7MOL   H328 4780   1.406   1.289   4.925 -1.7799 -2.0581 -0.0455
    7MOL   H329 4781   1.437   1.115   4.896  3.9314  0.4860 -2.8387
    7MOL   H330 4782   1.650   1.304   5.007  0.6437 -0.8600  0.7351
    7MOL   H331 4783   1.623   1.276   4.838 -0.8049 -2.7698 -1.3599
    7MOL   H332 4784   1.717   1.065   5.048  3.1038 -0.8256 -0.6974
    7MOL   H333 4785   1.803   1.127   4.908  1.2174 -1.3853  1.0877
    7MOL   H334 4786   1.590   0.936   4.912 -1.3451  1.0168 -2.2881
    7MOL   C335 4787   1.672   0.975   4.738  0.2907  0.0926 -0.0183
    7MOL   O336 4788   1.723   1.050   4.655  0.5947  0.3512 -0.0375
    7MOL   C337 4789   1.595   0.853   4.685 -0.4246  0.4570 -0.0384
    7MOL   C338 4790   1.677   0.728   4.639 -0.7021  0.2681 -0.0297
    7MOL   C339 4791   1.729   0.639   4.758  0.2409 -0.1053  0.6684
    7MOL   C340 4792   1.801   0.513   4.714 -1.0511  0.0273  0.0136
    7MOL   C341 4793   1.789   0.387   4.799  0.6903 -0.3362  0.1349
    7MOL   C342 4794   1.859   0.408   4.940 -0.3642 -0.1675  0.1861
    7MOL   C343 4795   1.903   0.267   5.004  0.1749  0.2346 -0.2433
    7MOL   C344 4796   1.942   0.277   5.147  0.4361  0.3438  0.0809
    7MOL   C345 4797   1.993   0.145   5.201  0.0240  0.1222 -0.6272
    7MOL   C346 4798   2.037   0.148   5.352 -0.3735 -0.4888  0.4295
    7MOL   C347 4799   2.078   0.007   5.397 -0.2385 -0.2679  1.1425
    7MOL   N348 4800   2.099   0.002   5.534  0.0988  0.3192  0.2522
    7MOL   H349 4801   1.535   0.877   4.597  1.8937 -2.4332 -2.5463
    7MOL   H350 4802   1.519   0.812   4.752  0.4816 -0.4988  0.4215
    7MOL   H351 4803   1.619   0.667   4.570  0.2933  0.8204 -1.3758
    7MOL   H352 4804   1.764   0.767   4.587 -1.0145 -0.1498 -0.8916
    7MOL   H353 4805   1.650   0.602   4.823  0.5764 -0.5619  0.8206
    7MOL   H354 4806   1.788   0.691   4.833 -3.2460  2.1220  1.9617
    7MOL   H355 4807   1.757   0.480   4.619 -1.9128  0.5419  0.2301
    7MOL   H356 4808   1.909   0.528   4.706 -0.6906 -1.7234  1.4456
    7MOL   H357 4809   1.833   0.302   4.747 -0.0154  1.2128 -3.0949
    7MOL   H358 4810   1.683   0.379   4.823  0.7642 -0.8953  0.2681
    7MOL   H359 4811   1.806   0.484   4.997 -1.1430 -0.4724 -0.1337
    7MOL   H360 4812   1.952   0.456   4.909  0.1594 -2.5534 -2.0870
    7MOL   H361 4813   1.987   0.220   4.953  2.4064  2.3515  1.3431
    7MOL   H362 4814   1.819   0.202   4.980  0.2308  0.8944 -2.4193
    7MOL   H363 4815   1.855   0.319   5.199  0.2434  0.7176 -0.5346
    7MOL   H364 4816   2.016   0.356   5.160  2.8059 -1.6092 -1.2913
    7MOL   H365 4817   2.081   0.108   5.148 -1.1670 -2.7747 -0.7174
    7MOL   H366 4818   1.917   0.067   5.194  0.5505 -0.4851  0.1930
    7MOL   H367 4819   1.956   0.186   5.415 -1.8798  0.3426 -1.9434
    7MOL   H368 4820   2.124   0.214   5.357 -0.7117  0.0141 -0.1765
    7MOL   H369 4821   2.158   7.671   5.328 -0.6940  0.4089  0.3129
    7MOL   H370 4822   1.987   7.646   5.372  0.0096 -0.1670 -0.0073
    7MOL   H371 4823   2.135   0.085   5.579  4.5798  0.1763 -2.8138
    7MOL   C372 4824   2.098   7.582   5.608 -0.8128 -0.2587  0.4649
    7MOL   O373 4825   2.078   7.469   5.563  0.2221  0.1681 -0.2500
    7MOL   C374 4826   2.133   7.586   5.758  0.6807  0.1892 -0.9803
    7MOL   C375 4827   2.225   7.473   5.815  0.1492  0.0638 -0.7474
    7MOL   C376 4828   2.304   7.506   5.942  0.1977 -0.1243 -0.0718
    7MOL   C377 4829   2.208   7.538   6.063  0.4952 -0.3576  0.1861
    7MOL   C378 4830   2.279   7.568   6.195 -0.0070  0.0796  0.6529
    7MOL   C379 4831   2.175   7.567   6.322  0.3256  0.2982  0.4140
    7MOL   C380 4832   2.245   7.598   6.451  0.0552  0.7739 -0.6197
    7MOL   C381 4833   2.366   7.507   6.495  0.8663  0.5450  0.3276
    7MOL   C382 4834   2.323   7.363   6.508 -0.5692 -0.7749 -0.0945
    7MOL   C383 4835   2.436   7.272   6.566 -0.7029 -0.2448 -0.5857
    7MOL   C384 4836   2.383   7.126   6.572  0.1112 -0.1961  0.1246
    7MOL   N385 4837   2.480   7.037   6.633  0.1266 -0.1076 -0.7337
    7MOL   H386 4838   2.043   7.592   5.819  1.6907 -2.0853  0.7870
    7MOL   H387 4839   2.183   7.682   5.773  2.0371 -0.8372  1.4990
    7MOL   H388 4840   2.168   7.384   5.840 -0.5842  0.5180 -0.7726
    7MOL   H389 4841   2.300   7.450   5.739  3.4944 -3.6663  3.4161
    7MOL   H390 4842   2.380   7.581   5.921  0.5171 -0.3920  0.1161
    7MOL   H391 4843   2.351   7.414   5.977 -0.4163 -0.5275 -0.3014
    7MOL   H392 4844   2.146   7.625   6.038  1.5740  0.4104  0.1359
    7MOL   H393 4845   2.125   7.469   6.076  1.1980 -1.6920 -2.1208
    7MOL   H394 4846   2.335   7.662   6.198 -2.0396  1.2745  2.5041
    7MOL   H395 4847   2.359   7.497   6.214 -0.7883 -1.0054 -0.0191
    7MOL   H396 4848   2.130   7.468   6.327 -0.4259  0.6433  0.6360
    7MOL   H397 4849   2.096   7.641   6.306  2.1425  1.8121 -1.9540
    7MOL   H398 4850   2.170   7.598   6.530 -0.6810  0.8363 -1.3218
    7MOL   H399 4851   2.281   0.007   6.452  0.1443  0.7378  0.2842
    7MOL   H400 4852   2.407   7.534   6.592 -2.6304 -1.5920  2.5169
    7MOL   H401 4853   2.447   7.523   6.424 -1.1270  1.6832 -1.7675
    7MOL   H402 4854   2.294   7.329   6.408  0.3222 -1.4447 -0.1398
    7MOL   H403 4855   2.234   7.362   6.571 -0.1351  0.0989  0.5469
    7MOL   H404 4856   2.475   7.306   6.662  0.0517  2.2925 -1.7449
    7MOL   H405 4857   2.521   7.268   6.497  1.2323  0.5434  1.6911
    7MOL   H406 4858   2.357   7.092   6.472 -2.4486  0.6529  0.4558
    7MOL   H407 4859   2.293   7.113   6.633 -0.0287  1.2120  0.2326
    7MOL   H408 4860   2.481   7.011   6.731 -0.5706 -1.8770 -1.1839
    7MOL   C409 4861   2.583   6.986   6.562  0.0404  0.1656 -0.7056
    7MOL   O410 4862   2.595   6.998   6.440  0.1652  0.3092  0.0784
    7MOL   C411 4863   2.688   6.904   6.642  0.5651 -0.5106  0.2878
    7MOL   C412 4864   2.804   6.986   6.698  0.4500 -0.3226 -0.3074
    7MOL   C413 4865   2.919   6.993   6.598  0.7779  0.4802  0.1089
    7MOL   C414 4866   3.017   7.095   6.652  0.3273  0.7076  0.2472
    7MOL   C415 4867   3.123   7.145   6.550 -0.5972  0.3331 -0.2593
    7MOL   C416 4868   3.216   7.231   6.636  0.3406 -0.2098 -0.4742
    7MOL   C417 4869   3.352   7.254   6.578  0.5487 -0.2074  0.5711
    7MOL   C418 4870   3.435   7.357   6.664 -0.1392 -0.4357  0.0249
    7MOL   C419 4871   3.576   7.371   6.600  0.0247  0.5640 -0.1209
    7MOL   C420 4872   3.655   7.485   6.663  0.0897  0.6186  0.5089
    7MOL   C421 4873   3.682   7.453   6.808 -0.9350 -0.8587 -0.2071
    7MOL   N422 4874   3.774   7.547   6.872  0.4154  0.0617 -0.2271
    7MOL   H423 4875   2.706   6.822   6.572 -1.0218 -1.3307  0.8263
    7MOL   H424 4876   2.629   6.856   6.720  1.9647 -1.2650  0.9024
    7MOL   H425 4877   2.758   7.083   6.718  1.5578 -0.1062  1.2674
    7MOL   H426 4878   2.841   6.952   6.795  0.7131  0.5151 -0.1036
    7MOL   H427 4879   2.880   7.021   6.500 -1.8513 -2.4824  0.2605
    7MOL   H428 4880   2.965   6.895   6.584 -1.7770 -0.7565  0.1037
    7MOL   H429 4881   2.961   7.182   6.685  1.7233  1.3593  0.9312
    7MOL   H430 4882   3.059   7.050   6.743 -1.7070  0.3919  1.0496
    7MOL   H431 4883   3.096   7.199   6.460  2.1983  0.2972 -1.1690
    7MOL   H432 4884   3.180   7.054   6.532  2.1160  2.0749 -0.7086
    7MOL   H433 4885   3.229   7.164   6.722 -4.4719  0.4272  0.9057
    7MOL   H434 4886   3.165   7.322   6.669 -0.9473 -2.0015  2.7882
    7MOL   H435 4887   3.337   7.303   6.482  2.2262 -0.6665  0.0550
    7MOL   H436 4888   3.418   7.168   6.574  4.4718  2.5979  2.3703
    7MOL   H437 4889   3.441   7.310   6.763  1.6157  0.8679  0.5590
    7MOL   H438 4890   3.391   7.456   6.674  0.1543 -0.5496  3.1464
    7MOL   H439 4891   3.554   7.392   6.495  0.1639 -4.6470 -1.3149
    7MOL   H440 4892   3.634   7.280   6.589 -1.0034  0.0256 -1.1908
    7MOL   H441 4893   3.608   7.582   6.661  1.2157  1.2148  1.6031
    7MOL   H442 4894   3.746   7.499   6.605  0.5107  1.0976  1.2756
    7MOL   H443 4895   3.718   7.350   6.818  1.5086 -0.2701 -2.4673
    7MOL   H444 4896   3.590   7.475   6.861  0.3824  2.1339  0.9546
    7MOL   H445 4897   3.800   7.628   6.818  0.6995 -0.4719 -0.8922
    7MOL   C446 4898   3.809   7.533   7.005  0.6479  1.1005 -0.2997
    7MOL   O447 4899   3.763   7.435   7.064 -0.3004  0.3142  0.3514
    7MOL   C448 4900   3.920   7.617   7.061  0.8776 -0.6822  0.0176
    7MOL   C449 4901   3.983   7.570   7.195  0.4841  0.1488  0.1749
    7MOL   C450 4902   4.106   7.470   7.184 -0.2182  0.0647  0.4592
    7MOL   C451 4903   4.046   7.325   7.161 -0.5784  0.1584  0.0855
    7MOL   C452 4904   4.140   7.213   7.180  0.0191  0.3517  0.2387
    7MOL   C453 4905   4.101   7.084   7.104  0.0140 -0.3366 -0.6252
    7MOL   C454 4906   4.223   6.992   7.108 -0.1688  0.6635 -0.4545
    7MOL   C455 4907   4.194   6.855   7.038 -0.2191  0.3057 -0.9176
    7MOL   C456 4908   4.090   6.761   7.094  0.4493  0.1085  0.5414
    7MOL   C457 4909   4.129   6.717   7.243  1.2876 -0.0733  0.5551
    7MOL   C458 4910   4.062   6.591   7.297 -0.0530  0.1965  0.4338
    7MOL   N459 4911   4.125   6.551   7.421 -0.4472  0.5922 -0.0679
    7MOL   H460 4912   3.867   0.016   7.080  0.4484 -1.3599  2.3238
    7MOL   H461 4913   3.996   7.639   6.987 -0.0545 -2.3081 -1.4516
    7MOL   H462 4914   4.006   7.660   7.252 -1.3657 -0.6907  2.3228
    7MOL   H463 4915   3.905   7.527   7.257  1.1318 -2.2303 -0.6201
    7MOL   H464 4916   4.183   7.473   7.261  1.0273 -0.4835 -0.7419
    7MOL   H465 4917   4.156   7.502   7.093 -0.7362 -0.3851  0.0143
    7MOL   H466 4918   3.951   7.306   7.209 -0.1528 -1.7438  0.2234
    7MOL   H467 4919   4.023   7.322   7.055 -1.9097  0.8493  0.3475
    7MOL   H468 4920   4.146   7.180   7.283 -0.3258 -0.2746  0.0613
    7MOL   H469 4921   4.234   7.255   7.143 -0.1040 -0.3918 -0.9437
    7MOL   H470 4922   4.091   7.103   6.997 -0.4449 -1.7993 -0.8535
    7MOL   H471 4923   4.015   7.031   7.145 -1.2467  1.1893 -1.2699
    7MOL   H472 4924   4.261   6.970   7.208  1.1134  0.7027 -0.9235
    7MOL   H473 4925   4.293   7.057   7.057 -0.8477  1.6103 -0.2082
    7MOL   H474 4926   4.285   6.796   7.044 -0.7530 -0.3973  0.5024
    7MOL   H475 4927   4.171   6.867   6.933  0.1546  0.8443 -0.9420
    7MOL   H476 4928   4.089   6.668   7.037 -0.7403  0.7800 -0.5441
    7MOL   H477 4929   3.992   6.807   7.105  0.9593  1.3296  0.0296
    7MOL   H478 4930   4.093   6.797   7.307  1.7279 -0.8076  1.7431
    7MOL   H479 4931   4.237   6.706   7.248  1.4678  0.3121 -1.8955
    7MOL   H480 4932   4.075   6.513   7.222  0.5018  0.7106 -0.0087
    7MOL   H481 4933   3.957   6.616   7.313 -0.0195 -0.0720  1.1136
    7MOL   H482 4934   4.213   6.598   7.436 -1.8147  3.0095  0.6535
    7MOL   C483 4935   4.074   6.488   7.526 -0.7822 -0.1032 -0.0942
    7MOL   O484 4936   3.957   6.455   7.520 -0.0941 -0.3166 -0.0813
    7MOL   C485 4937   4.174   6.457   7.639  0.5820 -0.5364 -1.6349
    7MOL   C486 4938   4.115   6.468   0.087 -0.6160  0.0322  0.0073
    7MOL   C487 4939   4.020   6.361   0.122 -0.9950 -0.4857  0.2204
    7MOL   C488 4940   4.004   6.339   0.279  0.1110 -0.1084 -0.0767
    7MOL   C489 4941   4.103   6.268   0.371  0.4481  0.9162 -0.8880
    7MOL   C490 4942   4.094   6.115   0.366  0.0997 -1.0125 -0.2440
    7MOL   C491 4943   4.232   6.046   0.398 -0.0355 -0.8533 -0.0699
    7MOL   C492 4944   4.344   6.070   0.303  0.3985 -0.3928 -0.4780
    7MOL   C493 4945   4.469   5.992   0.357 -0.1064 -0.2745  0.5057
    7MOL   C494 4946   4.592   5.994   0.265 -0.3284 -0.2347 -0.0858
    7MOL   C495 4947   4.714   5.935   0.336  0.2358 -0.4047  0.0135
    7MOL   N496 4948   4.840   5.962   0.270  0.0353  0.7955 -0.0371
    7MOL   H497 4949   4.255   6.530   7.637  0.2302  0.0012  1.4348
    7MOL   H498 4950   4.221   6.359   7.626 -0.5626 -1.1904 -0.9488
    7MOL   H499 4951   4.199   6.468   0.156  0.4079  0.4639 -1.2100
    7MOL   H500 4952   4.062   6.563   0.099  0.3225  0.3155  2.0888
    7MOL   H501 4953   4.044   6.263   0.083 -0.5414 -1.5759  3.0993
    7MOL   H502 4954   3.933   6.387   0.062 -1.1643 -0.4117  0.4960
    7MOL   H503 4955   4.002   6.440   0.321 -1.2413  0.4801 -1.4792
    7MOL   H504 4956   3.908   6.291   0.297 -0.0556  0.4225  0.4496
    7MOL   H505 4957   4.095   6.304   0.474 -0.5165 -0.6117 -0.4092
    7MOL   H506 4958   4.209   6.288   0.355 -0.1240  3.2521 -2.0170
    7MOL   H507 4959   4.071   6.089   0.263  1.5312  0.3058 -0.9273
    7MOL   H508 4960   4.012   6.080   0.429 -1.2030 -0.4966 -1.6351
    7MOL   H509 4961   4.208   5.942   0.375  0.3524 -0.8275 -0.6060
    7MOL   H510 4962   4.254   6.052   0.504 -2.5788 -1.6059  0.5416
    7MOL   H511 4963   4.378   6.173   0.311  0.1811 -0.3011 -0.7428
    7MOL   H512 4964   4.326   6.038   0.200  0.3906 -1.2538 -0.2171
    7MOL   H513 4965   4.433   5.889   0.359  1.8934 -1.0550 -1.5519
    7MOL   H514 4966   4.504   6.032   0.452  0.9116  0.3634 -0.1375
    7MOL   H515 4967   4.600   6.099   0.239 -0.5047  0.0935  1.2032
    7MOL   H516 4968   4.564   5.946   0.170  0.0304  0.6634 -0.6496
    7MOL   H517 4969   4.691   5.828   0.341 -1.9342 -0.0297 -1.2326
    7MOL   H518 4970   4.722   5.975   0.437  0.0005 -0.4029  0.0323
    7MOL   H519 4971   4.836   5.960   0.169 -1.3053  0.6326  0.0077
    7MOL   C520 4972   4.962   5.975   0.324  0.2175 -0.0019 -0.4769
    7MOL   O521 4973   4.988   5.999   0.441 -0.6025  0.0796 -0.2012
    7MOL   C522 4974   5.077   5.986   0.225  0.5834  0.3527  0.2949
    7MOL   C523 4975   5.199   5.901   0.267 -0.0802  0.1438 -0.7790
    7MOL   C524 4976   5.291   5.874   0.150 -0.4647 -0.4780 -0.2422
    7MOL   C525 4977   5.427   5.812   0.181  0.1040 -0.1313 -0.9122
    7MOL   C526 4978   5.530   5.807   0.066  0.3238  0.3231  0.3499
    7MOL   C527 4979   5.668   5.732   0.087  0.7311 -0.3005  0.4248
    7MOL   C528 4980   5.749   5.729   7.649 -0.0967 -1.1617  0.2423
    7MOL   C529 4981   5.896   5.701   7.675  0.0520  0.9849 -0.1975
    7MOL   C530 4982   5.975   5.686   7.543  0.0036 -0.7960  0.8109
    7MOL   C531 4983   6.112   5.621   7.545 -0.6157  0.3820  0.5821
    7MOL   C532 4984   6.200   5.657   7.428 -0.2788 -0.2388 -0.1745
    7MOL   N533 4985   6.332   5.614   7.446 -0.4587 -0.0867  0.4627
    7MOL   H534 4986   5.114   6.088   0.217  1.6814 -0.1361 -1.4600
    7MOL   H535 4987   5.050   5.953   0.124 -0.6713  0.3629  0.6193
    7MOL   H536 4988   5.251   5.956   0.346 -1.7660 -0.2726  0.6485
    7MOL   H537 4989   5.157   5.809   0.307  1.0505  0.1910  0.5662
    7MOL   H538 4990   5.293   5.966   0.092 -0.4697  0.1424  0.7247
    7MOL   H539 4991   5.240   5.816   0.073 -0.6140  0.7040 -1.0357
    7MOL   H540 4992   5.484   5.867   0.255 -0.7290 -0.4182 -0.0423
    7MOL   H541 4993   5.410   5.710   0.216 -1.1215  0.7384  1.0868
    7MOL   H542 4994   5.558   5.908   0.035  1.8075  0.3178  1.6380
    7MOL   H543 4995   5.497   5.756   7.669  0.5686  1.4045 -0.3606
    7MOL   H544 4996   5.653   5.632   0.130  0.0381 -0.5509 -0.3886
    7MOL   H545 4997   5.729   5.776   0.166  3.3451 -2.7754 -0.1022
    7MOL   H546 4998   5.737   5.830   7.609 -2.6227 -1.9353 -1.0519
    7MOL   H547 4999   5.700   5.670   7.571 -1.0571 -1.3992  1.0098
    7MOL   H548 5000   5.905   5.615   0.048 -1.9575 -0.9256 -2.2775
    7MOL   H549 5001   5.940   5.783   0.037 -0.0881  1.6003 -0.9817
    7MOL   H550 5002   5.987   5.783   7.494 -0.4506 -0.6643  0.9644
    7MOL   H551 5003   5.915   5.639   7.465  1.2718 -0.8066 -0.1786
    7MOL   H552 5004   6.113   5.512   7.539  3.6376  0.4155 -1.3472
    7MOL   H553 5005   6.157   5.640   7.643  1.4976 -0.5061 -0.1736
    7MOL   H554 5006   6.198   5.766   7.426 -0.2642 -0.2491 -1.6071
    7MOL   H555 5007   6.156   5.632   7.331  0.0073  0.6924 -0.5604
    7MOL   H556 5008   6.371   5.591   7.536 -0.8992 -0.3159  0.5947
    7MOL   C557 5009   6.425   5.628   7.348  0.9400 -0.0714 -0.2896
    7MOL   O558 5010   6.387   5.666   7.237 -0.6697 -0.7670  0.0333
    7MOL   C559 5011   6.575   5.617   7.391  0.7128 -0.3740  0.2132
    7MOL   C560 5012   6.659   5.739   7.344  0.0704 -0.4326  0.2593
    7MOL   C561 5013   6.647   5.851   7.454  0.0752  0.1384 -0.3184
    7MOL   C562 5014   6.509   5.931   7.456 -0.4522 -0.7144  0.0364
    7MOL   C563 5015   6.426   5.909   7.581 -0.0998 -0.6664 -1.0163
    7MOL   C564 5016   6.293   5.987   7.601 -0.2092 -0.0198  0.1065
    7MOL   C565 5017   6.236   5.964   0.051  0.2150 -0.0017  0.7671
    7MOL   C566 5018   6.101   6.027   0.089  0.0496  0.4638 -0.0350
    7MOL   C567 5019   6.057   5.984   0.231 -0.0202 -0.3277  0.1682
    7MOL   C568 5020   5.912   6.030   0.274 -0.4413 -0.2726 -0.1955
    7MOL   C569 5021   5.870   5.983   0.405 -0.2370  0.5936 -0.5794
    7MOL   N570 5022   5.726   5.991   0.429  0.3616  0.1267  0.2980
    7MOL   H571 5023   6.604   5.526   7.338 -2.1956 -2.0434  1.3986
    7MOL   H572 5024   6.599   5.590   7.493 -3.4666  0.4125  1.5234
    7MOL   H573 5025   6.764   5.708   7.341  0.4530  0.9456 -0.8758
    7MOL   H574 5026   6.624   5.776   7.248  0.1982  1.3657  0.8885
    7MOL   H575 5027   6.718   5.931   7.436  0.4555  0.3389  2.0130
    7MOL   H576 5028   6.670   5.813   7.553 -1.1934 -1.2314 -0.5167
    7MOL   H577 5029   6.529   6.038   7.455 -3.5494 -0.0692  1.1776
    7MOL   H578 5030   6.446   5.911   7.369 -1.5956  2.2465  0.1296
    7MOL   H579 5031   6.491   5.954   7.656 -1.3942  0.9445 -0.8280
    7MOL   H580 5032   6.395   5.807   7.606 -1.0700  0.0137  0.6322
    7MOL   H581 5033   6.213   5.945   7.540 -0.9759  0.2492  0.9098
    7MOL   H582 5034   6.307   6.090   7.567  2.6802 -0.9165 -1.5572
    7MOL   H583 5035   6.304   6.015   0.119  0.7911  0.4984 -0.1786
    7MOL   H584 5036   6.244   5.857   0.070 -0.1485 -0.2953 -0.6432
    7MOL   H585 5037   6.025   5.984   0.024 -0.5213  2.2103 -0.5598
    7MOL   H586 5038   6.099   6.136   0.082  2.0362  0.6573  1.7680
    7MOL   H587 5039   6.132   6.030   0.295  0.6014 -2.7403  1.2535
    7MOL   H588 5040   6.071   5.877   0.248 -2.1873 -0.5228  0.9152
    7MOL   H589 5041   5.848   5.972   0.207  0.4279  0.3877 -1.6060
    7MOL   H590 5042   5.890   6.135   0.255 -2.0756 -0.1011  2.2897
    7MOL   H591 5043   5.913   6.053   0.477  1.1330  2.3434 -2.9931
    7MOL   H592 5044   5.908   5.884   0.431 -0.8222  0.4607 -0.2421
    7MOL   H593 5045   5.689   6.084   0.436 -0.9867 -0.4193  0.7109
    7MOL   C594 5046   5.651   5.896   0.477 -0.6360 -0.3790  0.2399
    7MOL   O595 5047   5.681   5.777   0.468 -0.7714  0.7362  0.3367
    7MOL   C596 5048   5.532   5.944   0.558 -0.3673  0.0019  0.0687
    7MOL   C597 5049   5.411   5.849   0.562 -0.1227  0.4653  0.2544
    7MOL   C598 5050   5.294   5.923   0.639 -0.8381 -1.1108  0.0887
    7MOL   C599 5051   5.176   5.830   0.676  0.8344 -0.2584  0.4966
    7MOL   C600 5052   5.064   5.893   0.760 -0.6241  0.1609  0.7205
    7MOL   C601 5053   4.956   5.790   0.813 -0.0499 -0.3851  0.0384
    7MOL   C602 5054   4.851   5.754   0.698 -0.6481  0.0455 -0.1832
    7MOL   C603 5055   4.706   5.779   0.745  0.3256  0.8097 -0.4401
    7MOL   C604 5056   4.613   5.716   0.643  0.0283 -0.7226  0.1809
    7MOL   C605 5057   4.465   5.723   0.675  0.2976  0.1365  0.0558
    7MOL   C606 5058   4.374   5.648   0.576  0.2951 -0.1406  0.0217
    7MOL   N607 5059   4.233   5.669   0.627 -0.0440  0.2478  0.5532
    7MOL   H608 5060   5.504   6.046   0.533  1.7068  0.6135  0.1641
    7MOL   H609 5061   5.573   5.955   0.658 -2.2271  2.3437  0.6094
    7MOL   H610 5062   5.375   5.803   0.469  0.5430 -0.3881  0.4184
    7MOL   H611 5063   5.432   5.766   0.629  1.1741  0.1437 -0.5424
    7MOL   H612 5064   5.259   6.008   0.581  1.8002  1.3933  1.9862
    7MOL   H613 5065   5.343   5.953   0.732 -0.8527 -0.4055 -0.1220
    7MOL   H614 5066   5.139   5.784   0.585  0.3029  4.2655 -1.7279
    7MOL   H615 5067   5.224   5.757   0.742  2.0250 -0.9705 -1.1409
    7MOL   H616 5068   5.010   5.974   0.710  1.3292  1.3476  0.4823
    7MOL   H617 5069   5.120   5.936   0.843  0.3978 -0.3592  0.3122
    7MOL   H618 5070   4.908   5.827   0.903 -0.9488  0.5121 -0.8018
    7MOL   H619 5071   5.003   5.701   0.856  0.3426 -1.0272 -1.6860
    7MOL   H620 5072   4.861   5.646   0.692 -0.2931  0.0454  0.3238
    7MOL   H621 5073   4.880   5.778   0.596  2.5150 -0.1625  0.6120
    7MOL   H622 5074   4.679   5.883   0.769  1.4337  1.5193 -2.2152
    7MOL   H623 5075   4.691   5.728   0.840  0.5948  0.6543 -0.4827
    7MOL   H624 5076   4.639   5.611   0.637 -0.2557 -0.6663 -2.1664
    7MOL   H625 5077   4.638   5.745   0.541  1.3353 -1.8866  0.1649
    7MOL   H626 5078   4.439   5.828   0.679 -1.8798 -0.3223 -1.2126
    7MOL   H627 5079   4.435   5.678   0.770  0.6772 -0.0320  0.0996
    7MOL   H628 5080   4.390   5.540   0.575 -1.8247 -0.4784 -0.5323
    7MOL   H629 5081   4.384   5.696   0.479  0.1152 -1.4905 -0.6902
    7MOL   H630 5082   4.220   5.682   0.726 -2.9547  4.5637 -0.2404
    7MOL   C631 5083   4.123   5.662   0.550  0.6810 -0.2205 -0.2900
    7MOL   O632 5084   4.119   5.648   0.425  0.9192  0.3892  0.3826
    7MOL   C633 5085   3.991   5.673   0.627  0.0015 -0.5493 -0.2106
    7MOL   C634 5086   3.861   5.654   0.551  0.5550 -0.4224 -0.7757
    7MOL   C635 5087   3.838   5.783   0.460  0.1116  0.1540  0.7297
    7MOL   C636 5088   3.708   5.760   0.385 -0.6328 -0.4809  0.3109
    7MOL   C637 5089   3.640   5.879   0.309  0.2134 -0.5583  0.4987
    7MOL   C638 5090   3.713   5.931   0.183 -0.3987  0.8759  0.2875
    7MOL   C639 5091   3.652   6.056   0.124 -0.0847  0.6264  0.5147
    7MOL   C640 5092   3.692   6.090   7.669  0.4812  0.4386  0.2493
    7MOL   C641 5093   3.622   6.218   7.627 -0.3438  0.6410  1.2934
    7MOL   C642 5094   3.666   6.264   7.487 -0.5585 -0.6118  0.0520
    7MOL   C643 5095   3.617   6.403   7.431 -0.0978  0.7953 -1.0367
    7MOL   N644 5096   3.686   6.512   7.497  0.1629 -0.4356  0.7163
    7MOL   H645 5097   3.990   5.762   0.690  1.5884 -0.3402 -0.4787
    7MOL   H646 5098   3.992   5.590   0.698  2.5362 -0.5797 -0.2515
    7MOL   H647 5099   3.868   5.567   0.486 -0.4976  0.2899 -1.8446
    7MOL   H648 5100   3.783   5.623   0.621  0.8198 -1.1299 -0.7814
    7MOL   H649 5101   3.926   5.804   0.399 -1.3925  0.8174 -1.2441
    7MOL   H650 5102   3.824   5.867   0.528  1.2405  1.4650 -0.6155
    7MOL   H651 5103   3.717   5.686   0.306  0.9414  1.0645 -1.0141
    7MOL   H652 5104   3.627   5.736   0.453  0.2660 -1.8893  0.9080
    7MOL   H653 5105   3.637   5.961   0.380  0.1291 -0.1964  0.0819
    7MOL   H654 5106   3.534   5.859   0.298 -0.0399  0.9194  0.1496
    7MOL   H655 5107   3.699   5.853   0.108 -0.2129  0.8575  0.2689
    7MOL   H656 5108   3.822   5.934   0.192 -0.3422  1.1766 -0.4792
    7MOL   H657 5109   3.666   6.140   0.192  0.4396  0.3599  0.7418
    7MOL   H658 5110   3.545   6.041   0.122  0.2585 -1.9182 -1.3532
    7MOL   H659 5111   3.664   6.001   7.612 -1.7847  0.3440  1.4493
    7MOL   H660 5112   3.799   6.098   7.652  0.5177 -2.8910 -1.3796
    7MOL   H661 5113   3.641   6.300   0.003 -1.6256  2.8138 -0.8427
    7MOL   H662 5114   3.514   6.204   7.630 -0.7113  2.1887 -2.4526
    7MOL   H663 5115   3.638   6.185   7.419  0.0139 -0.6463 -0.1413
    7MOL   H664 5116   3.774   6.262   7.473 -0.3613  2.2155  0.7252
    7MOL   H665 5117   3.510   6.411   7.450 -0.2133 -0.0122 -1.3189
    7MOL   H666 5118   3.633   6.401   7.323  0.0436 -1.1327 -0.9918
    7MOL   H667 5119   3.784   6.501   7.514  0.2329 -1.6892 -0.4333
    7MOL   C668 5120   3.621   6.610   7.567  0.0456  0.8724 -0.3255
    7MOL   O669 5121   3.499   6.615   7.582  0.3874  0.1763 -0.4804
    7MOL   C670 5122   3.709   6.706   7.651 -0.2342 -0.1011  0.3889
    7MOL   C671 5123   3.688   6.689   0.107 -0.0888 -0.2844  0.7395
    7MOL   C672 5124   3.800   6.773   0.180  0.8037 -0.2967  0.1291
    7MOL   C673 5125   3.776   6.765   0.335 -0.3951 -0.3786  0.6756
    7MOL   C674 5126   3.879   6.839   0.426  0.0208  0.0897 -0.2708
    7MOL   C675 5127   4.019   6.809   0.391 -0.1167  0.6555 -0.2176
    7MOL   C676 5128   4.125   6.873   0.492  0.5439 -0.1216  0.1853
    7MOL   C677 5129   4.107   7.023   0.506  0.3507 -0.7171 -0.5354
    7MOL   C678 5130   4.114   7.092   0.370  0.1558 -0.6480  0.6063
    7MOL   C679 5131   4.095   7.245   0.390 -0.3457 -0.6621  0.2311
    7MOL   C680 5132   4.078   7.321   0.260  0.5070  0.0229 -0.0933
    7MOL   N681 5133   4.059   7.463   0.277  0.2517 -0.3955  0.6844
    7MOL   H682 5134   3.689   6.805   7.609  0.4197 -0.2162 -0.2185
    7MOL   H683 5135   3.815   6.699   7.625 -0.7994  2.3024 -2.9627
    7MOL   H684 5136   3.593   6.730   0.140 -0.0837  0.1462  0.2284
    7MOL   H685 5137   3.692   6.587   0.148 -2.0790 -0.6304  0.0769
    7MOL   H686 5138   3.795   6.879   0.156 -0.0807  0.0109  1.6813
    7MOL   H687 5139   3.900   6.733   0.159  0.2866 -0.3143 -2.4543
    7MOL   H688 5140   3.674   6.799   0.355  0.1128 -0.7485  4.2276
    7MOL   H689 5141   3.766   6.662   0.371  0.3366 -1.2518 -1.5244
    7MOL   H690 5142   3.858   6.828   0.533 -3.6423  0.9562 -0.8433
    7MOL   H691 5143   3.853   6.942   0.399 -2.1046 -0.4420 -0.3068
    7MOL   H692 5144   4.040   6.841   0.289 -2.1869 -0.4220 -1.0177
    7MOL   H693 5145   4.036   6.701   0.396 -0.6211  0.5769 -0.1454
    7MOL   H694 5146   4.223   6.858   0.446  1.1862  2.9073  0.4478
    7MOL   H695 5147   4.129   6.824   0.589 -0.2055 -0.5510  0.0046
    7MOL   H696 5148   4.202   7.056   0.548  0.6146 -0.8466 -1.0237
    7MOL   H697 5149   4.023   7.054   0.568  0.5560  0.2188 -0.7253
    7MOL   H698 5150   4.039   7.062   0.297 -1.6064  0.7824  1.7732
    7MOL   H699 5151   4.210   7.070   0.325  0.1706 -0.8042  0.7135
    7MOL   H700 5152   4.173   7.289   0.454 -0.0882 -0.1629 -0.4160
    7MOL   H701 5153   4.011   7.259   0.458  1.2608  2.6167  1.7153
    7MOL   H702 5154   3.986   7.287   0.213 -0.0561 -1.0712  1.7633
    7MOL   H703 5155   4.160   7.313   0.189  1.3743 -0.7391  0.9957
    7MOL   H704 5156   3.966   7.501   0.290  0.4320 -0.3082  1.7859
    7MOL   C705 5157   4.160   7.552   0.290 -0.5153 -0.2639 -1.0220
    7MOL   O706 5158   4.275   7.516   0.275  0.2501 -0.2954 -0.0397
    7MOL   C707 5159   4.128   0.006   0.316 -0.2576  0.4597  0.2545
    7MOL   C708 5160   4.208   0.064   0.426 -0.7027 -0.0394 -0.0793
    7MOL   C709 5161   4.148   0.191   0.478 -0.0791  0.5281 -0.5545
    7MOL   C710 5162   4.214   0.244   0.600 -0.1091 -0.2462 -0.0712
    7MOL   C711 5163   4.351   0.300   0.568  0.3727 -0.2097  0.3215
    7MOL   C712 5164   4.353   0.423   0.478 -0.5606 -0.3407  0.0338
    7MOL   C713 5165   4.499   0.479   0.462 -0.4394 -0.4274  0.3388
    7MOL   C714 5166   4.499   0.598   0.366  0.0975  0.0818  0.3888
    7MOL   C715 5167   4.642   0.637   0.335 -0.5295  0.0349 -0.2983
    7MOL   C716 5168   4.650   0.739   0.225 -0.9687  0.1075 -0.2105
    7MOL   C717 5169   4.796   0.760   0.189  0.4533 -0.7286 -0.0022
    7MOL   N718 5170   4.806   0.837   0.066 -0.4109 -0.2256  0.0037
    7MOL   H719 5171   4.020   0.007   0.332 -0.0798 -0.4489  1.5474
    7MOL   H720 5172   4.138   0.060   0.222 -0.6718 -0.5778 -0.4047
    7MOL   H721 5173   4.231   7.682   0.500  0.9466  0.4562 -0.0524
    7MOL   H722 5174   4.305   0.084   0.380 -1.3029  1.2518 -0.8270
    7MOL   H723 5175   4.044   0.162   0.494  0.1381 -0.3778 -0.7198
    7MOL   H724 5176   4.137   0.265   0.399  0.2537  0.4775 -0.6460
    7MOL   H725 5177   4.160   0.325   0.649 -1.4818 -1.9934  1.4174
    7MOL   H726 5178   4.219   0.173   0.683  0.5124  1.4870  1.3935
    7MOL   H727 5179   4.413   0.221   0.528  0.4935  0.4296 -0.7801
    7MOL   H728 5180   4.391   0.334   0.663 -0.1313 -1.9498  1.1756
    7MOL   H729 5181   4.300   0.503   0.529 -0.3994 -0.6725  0.7305
    7MOL   H730 5182   4.309   0.400   0.381  0.6215 -1.5082 -0.2345
    7MOL   H731 5183   4.555   0.393   0.427 -1.6826 -0.8126 -0.7235
    7MOL   H732 5184   4.533   0.522   0.557 -1.8938  0.5590  0.4394
    7MOL   H733 5185   4.437   0.681   0.401  0.6454  0.6386  0.0599
    7MOL   H734 5186   4.465   0.561   0.269 -0.0153  2.0422 -0.3435
    7MOL   H735 5187   4.703   0.551   0.311 -0.2543 -0.1550  1.0469
    7MOL   H736 5188   4.686   0.685   0.422 -0.9475 -0.1414  0.0138
    7MOL   H737 5189   4.605   0.834   0.253 -0.4042  0.6474 -1.0881
    7MOL   H738 5190   4.584   0.701   0.147 -0.8787 -0.9552  0.2194
    7MOL   H739 5191   4.840   0.662   0.168 -1.5346 -1.2157 -2.1078
    7MOL   H740 5192   4.848   0.813   0.269 -1.6187  1.2654  0.0772
    7MOL   H741 5193   4.764   0.928   0.082  1.0994  0.2496  1.5018
    7MOL   H742 5194   4.904   0.842   0.042  0.2886 -2.2509  2.2684
    8MOL     C1 5195   0.752   5.848   7.527 -0.2011  0.1388  0.1485
    8MOL     O2 5196   0.762   5.808   7.639  0.1614  0.1662  0.3715
    8MOL     C3 5197   0.626   5.921   7.478  0.1022 -0.5304 -0.4661
    8MOL     C4 5198   0.664   6.062   7.445  0.4365  0.2193  0.8399
    8MOL     C5 5199   0.544   6.142   7.384  0.3193 -0.1374 -0.1668
    8MOL     C6 5200   0.571   6.295   7.390 -0.0175  0.0778  0.4846
    8MOL     C7 5201   0.451   6.362   7.325 -0.2516 -0.1670 -0.5367
    8MOL     C8 5202   0.474   6.511   7.303  0.3999 -0.2761  0.4965
    8MOL     C9 5203   0.346   6.605   7.272  0.2204 -0.4290  0.1774
    8MOL    C10 5204   0.375   6.753   7.272 -0.3232  1.3934 -0.1966
    8MOL    C11 5205   0.489   6.798   7.185  0.0485 -0.0696  0.0498
    8MOL    C12 5206   0.467   6.756   7.040  0.0159  0.1587 -0.2976
    8MOL    C13 5207   0.558   6.833   6.946  0.2298 -0.3322  0.5589
    8MOL    N14 5208   0.542   6.792   6.813  0.6354  1.0495 -0.0079
    8MOL    H15 5209   0.549   5.906   7.553 -1.6104  0.0880 -2.0745
    8MOL    H16 5210   0.589   5.868   7.390 -0.6023 -2.7475  1.1295
    8MOL    H17 5211   0.711   6.120   7.524  0.6521  0.5358  0.4812
    8MOL    H18 5212   0.733   6.059   7.360 -2.7948  1.0196 -1.9288
    8MOL    H19 5213   0.455   6.108   7.436 -0.2609  0.4435 -0.7762
    8MOL    H20 5214   0.529   6.107   7.282 -0.4775 -1.3071  0.3542
    8MOL    H21 5215   0.593   6.331   7.490  1.8100  2.1007 -0.5927
    8MOL    H22 5216   0.665   6.315   7.338 -0.0418  0.3071  0.5296
    8MOL    H23 5217   0.358   6.345   7.380 -0.5324 -1.4106 -1.3898
    8MOL    H24 5218   0.429   6.317   7.228 -1.3194  0.2627 -0.5039
    8MOL    H25 5219   0.540   6.514   7.217  0.0749  1.1734  0.2933
    8MOL    H26 5220   0.529   6.554   7.387  0.0576  1.2746 -0.0666
    8MOL    H27 5221   0.270   6.577   7.345  1.6711 -0.2352  1.7969
    8MOL    H28 5222   0.302   6.582   7.175 -0.3905  1.2998  0.0206
    8MOL    H29 5223   0.398   6.787   7.373 -0.2334 -0.2346  0.3545
    8MOL    H30 5224   0.288   6.810   7.239 -1.4867 -1.6097 -2.5554
    8MOL    H31 5225   0.583   6.763   7.229  0.2348 -0.3567 -0.5747
    8MOL    H32 5226   0.490   6.907   7.194 -0.0926 -0.1754  1.4834
    8MOL    H33 5227   0.361   6.772   7.017 -0.4233  1.5634  2.5588
    8MOL    H34 5228   0.484   6.648   7.032 -0.0134  0.1918 -0.7801
    8MOL    H35 5229   0.665   6.830   6.966  0.7521  1.4586 -1.6875
    8MOL    H36 5230   0.526   6.937   6.952  0.7043  0.0031 -2.1825
    8MOL    H37 5231   0.463   6.732   6.794  1.1680  0.7070 -1.1464
    8MOL    H38 5232   0.827   5.825   7.451 -0.4557 -1.1210  0.2615
    8MOL    C39 5233   0.613   6.837   6.711  0.3766 -0.6464  0.3929
    8MOL    O40 5234   0.695   6.925   6.726  0.2646  0.6312  0.0309
    8MOL    C41 5235   0.575   6.781   6.580 -0.1499 -0.4515 -0.2398
    8MOL    C42 5236   0.671   6.688   6.509  0.3661  0.0596  0.4601
    8MOL    C43 5237   0.718   6.555   6.570 -0.2194 -0.5358 -0.1571
    8MOL    C44 5238   0.814   6.561   6.692 -0.6850  0.6355 -0.2912
    8MOL    C45 5239   0.862   6.416   6.733 -0.4888  0.0734  0.4275
    8MOL    C46 5240   0.967   6.427   6.839 -0.2896  0.3188 -0.3135
    8MOL    C47 5241   0.927   6.483   6.979 -0.5681  0.0735  0.1618
    8MOL    C48 5242   0.942   6.636   6.995  0.2302 -0.6892 -0.2977
    8MOL    C49 5243   0.937   6.687   7.139 -0.5383  0.7715  0.4800
    8MOL    C50 5244   0.940   6.836   7.166  0.0812 -0.5533  0.1123
    8MOL    C51 5245   0.930   6.881   7.317  0.0410  0.2315 -0.3624
    8MOL    N52 5246   0.937   7.025   7.333 -0.2533 -0.3500 -0.3539
    8MOL    H53 5247   0.564   6.868   6.515  0.3843 -1.0696 -1.1621
    8MOL    H54 5248   0.474   6.739   6.585 -0.2266 -0.1232  1.2984
    8MOL    H55 5249   0.641   6.677   6.405 -0.9227 -0.7774  0.9201
    8MOL    H56 5250   0.763   6.748   6.505  1.6539 -1.7504  2.0168
    8MOL    H57 5251   0.766   6.501   6.488  0.1425 -0.5419  0.0550
    8MOL    H58 5252   0.632   6.496   6.598 -0.3167  0.5192  1.8419
    8MOL    H59 5253   0.899   6.627   6.675 -0.8273 -0.0425 -4.0605
    8MOL    H60 5254   0.761   6.593   6.781 -1.4549  1.7037 -1.1171
    8MOL    H61 5255   0.912   6.368   6.649 -0.6511  0.0364  0.3499
    8MOL    H62 5256   0.777   6.351   6.756 -0.3304  0.0895  1.0641
    8MOL    H63 5257   1.060   6.469   6.799 -0.2928 -1.3154 -2.1042
    8MOL    H64 5258   0.992   6.322   6.855 -2.4105 -0.3480 -1.2399
    8MOL    H65 5259   0.989   6.429   7.051 -0.0828 -0.1289 -0.4010
    8MOL    H66 5260   0.826   6.454   7.006 -0.8407  0.8879  0.0491
    8MOL    H67 5261   0.855   6.680   6.947 -1.2499 -1.4055  1.6325
    8MOL    H68 5262   1.026   6.681   6.942 -0.3986  0.0502 -0.6704
    8MOL    H69 5263   1.013   6.636   7.199 -0.7270 -1.0407 -0.7838
    8MOL    H70 5264   0.847   6.645   7.184  0.3409  0.1749  1.7140
    8MOL    H71 5265   0.854   6.879   7.114 -0.1757 -2.8499 -1.4262
    8MOL    H72 5266   1.037   6.870   7.129 -1.3678  5.7091  1.5079
    8MOL    H73 5267   1.012   6.836   7.374 -0.3995 -2.2309 -1.6390
    8MOL    H74 5268   0.830   6.862   7.354 -0.5686  0.5998 -1.7893
    8MOL    H75 5269   0.869   7.074   7.277  0.8498  0.3727 -1.0825
    8MOL    C76 5270   1.033   7.096   7.396  0.1908  0.1328 -0.1307
    8MOL    O77 5271   1.133   7.045   7.456 -0.0708 -0.4210 -0.0438
    8MOL    C78 5272   1.010   7.250   7.411  0.5016  0.4055  0.1310
    8MOL    C79 5273   1.139   7.328   7.400 -0.0077 -0.0205 -0.1805
    8MOL    C80 5274   1.116   7.478   7.390 -0.1281  0.2364 -0.0100
    8MOL    C81 5275   1.238   7.570   7.365  1.0871 -0.4601  0.6011
    8MOL    C82 5276   1.349   7.519   7.278 -0.1738 -0.4006  0.0795
    8MOL    C83 5277   1.299   7.521   7.131 -0.1702  1.3134 -0.1368
    8MOL    C84 5278   1.412   7.536   7.027  1.0755  0.5789 -0.7753
    8MOL    C85 5279   1.374   7.569   6.883 -0.7211 -0.1582  0.3011
    8MOL    C86 5280   1.336   7.448   6.810  0.6162  0.3785 -0.6785
    8MOL    C87 5281   1.461   7.385   6.750  0.0793  1.0748  0.3996
    8MOL    C88 5282   1.440   7.280   6.639 -0.4466 -0.0443 -0.0507
    8MOL    N89 5283   1.566   7.231   6.581  0.3426 -0.1593 -0.0726
    8MOL    H90 5284   0.969   7.263   7.511 -0.8663  3.1667 -0.7431
    8MOL    H91 5285   0.922   7.282   7.356 -0.0795  1.1549  1.4823
    8MOL    H92 5286   1.200   7.300   7.486  0.0412  0.7439  0.0351
    8MOL    H93 5287   1.192   7.294   7.311  0.6430  0.1404  0.1459
    8MOL    H94 5288   1.078   7.510   7.487 -2.2338 -1.4421 -0.2248
    8MOL    H95 5289   1.040   7.496   7.313 -1.5460 -1.8548  0.8530
    8MOL    H96 5290   1.211   7.665   7.321  2.8140 -0.6162 -0.8506
    8MOL    H97 5291   1.286   7.606   7.456  1.4787 -0.3370  0.3469
    8MOL    H98 5292   1.391   7.425   7.314  1.1229 -0.3378 -1.2322
    8MOL    H99 5293   1.427   7.595   7.286  0.2185 -0.8877  1.0260
    8MOL   H100 5294   1.241   7.609   7.105 -1.3475  0.3354 -0.8169
    8MOL   H101 5295   1.230   7.438   7.119  0.9735  0.3002  0.1502
    8MOL   H102 5296   1.465   7.441   7.023 -0.9358 -0.5816 -0.4095
    8MOL   H103 5297   1.484   7.609   7.066 -0.7323  1.1785  1.6157
    8MOL   H104 5298   1.458   7.615   6.832 -0.4505 -0.9418  0.0346
    8MOL   H105 5299   1.296   7.644   6.872  0.3963  0.8112 -1.3273
    8MOL   H106 5300   1.265   7.459   6.728  1.7845  3.0064 -1.4069
    8MOL   H107 5301   1.296   7.379   6.884  1.0575 -0.3140 -1.0806
    8MOL   H108 5302   1.530   7.349   6.825  0.0461  2.2430  1.0057
    8MOL   H109 5303   1.519   7.465   6.704 -0.8441 -0.3308 -3.4570
    8MOL   H110 5304   1.379   7.315   6.555  0.6251  0.1644 -0.7568
    8MOL   H111 5305   1.380   7.198   6.679  0.1311 -0.7510 -0.6232
    8MOL   H112 5306   1.600   7.140   6.610  1.5114  0.1737 -0.3726
    8MOL   C113 5307   1.623   7.288   6.478 -0.9342  0.2056 -0.3071
    8MOL   O114 5308   1.582   7.391   6.422 -0.3054 -0.2240  0.1220
    8MOL   C115 5309   1.757   7.225   6.427  0.3422 -0.4092 -1.3534
    8MOL   C116 5310   1.885   7.312   6.443  0.3168 -0.0307 -0.6955
    8MOL   C117 5311   1.918   7.343   6.587  0.3441  0.0777  0.1292
    8MOL   C118 5312   1.990   7.221   6.639  0.1957  0.3662  0.1791
    8MOL   C119 5313   2.045   7.243   6.782  0.4626 -0.0111 -0.8666
    8MOL   C120 5314   1.946   7.285   6.883 -0.1066  0.3554  0.2466
    8MOL   C121 5315   1.822   7.189   6.900  0.2426  0.2847  0.5569
    8MOL   C122 5316   1.732   7.232   7.019  0.5198 -0.3529 -0.1630
    8MOL   C123 5317   1.614   7.136   7.028 -0.9813 -0.0428  0.9887
    8MOL   C124 5318   1.519   7.161   7.146 -0.2449 -0.0460 -0.6989
    8MOL   C125 5319   1.374   7.108   7.138 -0.1684 -0.4118 -0.4237
    8MOL   N126 5320   1.347   6.971   7.107  0.3846 -0.2408 -0.1394
    8MOL   H127 5321   1.746   7.208   6.320  3.4424 -0.7698 -1.6638
    8MOL   H128 5322   1.764   7.123   6.466 -2.2442 -1.2999 -3.1111
    8MOL   H129 5323   1.968   7.263   6.391  1.2451  1.9121 -1.0687
    8MOL   H130 5324   1.865   7.399   6.380  0.2406 -0.6924 -1.6061
    8MOL   H131 5325   1.829   7.374   6.643  0.5172 -0.8558  0.9304
    8MOL   H132 5326   1.984   7.430   6.591  0.9093 -0.3545  0.1943
    8MOL   H133 5327   1.924   7.135   6.651  0.6587 -0.8815 -4.8255
    8MOL   H134 5328   2.074   7.194   6.575  0.9022  0.6047  1.0060
    8MOL   H135 5329   2.125   7.316   6.768  0.6611 -0.1074 -0.2777
    8MOL   H136 5330   2.094   7.150   6.810 -3.4989 -1.9876 -0.1708
    8MOL   H137 5331   1.906   7.377   6.842  0.8472  0.1766 -1.1117
    8MOL   H138 5332   1.996   7.299   6.978 -1.6091  1.1782  0.9271
    8MOL   H139 5333   1.855   7.088   6.922 -2.1648 -0.8475 -0.8899
    8MOL   H140 5334   1.759   7.186   6.811 -0.2909  0.7736  0.9174
    8MOL   H141 5335   1.690   7.331   7.003  2.2388  0.5144  0.5098
    8MOL   H142 5336   1.791   7.232   7.111 -1.4564 -1.7275  1.1257
    8MOL   H143 5337   1.646   7.032   7.034 -0.0234  0.0834 -1.2680
    8MOL   H144 5338   1.554   7.155   6.939 -0.3814  0.5781  0.7131
    8MOL   H145 5339   1.520   7.265   7.178 -0.9616 -0.2284 -0.0671
    8MOL   H146 5340   1.559   7.116   7.236 -0.0664  0.3800 -0.5658
    8MOL   H147 5341   1.321   7.175   7.070  3.7591  2.7818 -0.5060
    8MOL   H148 5342   1.312   7.127   7.226 -4.6026 -1.0903 -3.2578
    8MOL   H149 5343   1.292   6.950   7.024  1.2150  0.2366 -0.8213
    8MOL   C150 5344   1.368   6.870   7.192 -0.0777  0.0211  0.2619
    8MOL   O151 5345   1.439   6.881   7.294  0.1418  0.1648 -0.3755
    8MOL   C152 5346   1.315   6.731   7.158  0.3301 -0.4658  0.1038
    8MOL   C153 5347   1.415   6.613   7.175 -0.5721  0.6708  0.1942
    8MOL   C154 5348   1.354   6.473   7.192  0.6491  0.7739 -0.6109
    8MOL   C155 5349   1.459   6.369   7.214 -1.0118 -0.2727  0.6106
    8MOL   C156 5350   1.409   6.222   7.204  0.4074 -0.4197 -0.0861
    8MOL   C157 5351   1.513   6.118   7.243  0.3246  0.0255 -0.1931
    8MOL   C158 5352   1.560   6.121   7.394  0.2977 -0.9769 -0.7899
    8MOL   C159 5353   1.441   6.092   7.490  0.0175  0.3724  0.2298
    8MOL   C160 5354   1.493   6.069   7.633  0.2699  0.0974  0.6707
    8MOL   C161 5355   1.536   6.201   7.686  0.1205  0.0014 -0.3750
    8MOL   C162 5356   1.542   6.208   0.142 -0.5292  0.5116  0.2954
    8MOL   N163 5357   1.640   6.308   0.186 -0.2691  0.2369 -0.2370
    8MOL   H164 5358   1.280   6.733   7.055  1.0695  1.2011 -0.1256
    8MOL   H165 5359   1.238   6.707   7.231 -0.8650  4.1637  0.5233
    8MOL   H166 5360   1.479   6.613   7.086  0.1313  0.8109  0.6949
    8MOL   H167 5361   1.493   6.637   7.248 -1.1667  0.3864  0.9239
    8MOL   H168 5362   1.284   6.438   7.116 -1.6216  2.5631  0.6248
    8MOL   H169 5363   1.311   6.474   7.292 -0.6605  1.3936 -1.1758
    8MOL   H170 5364   1.539   6.376   7.140  0.0208  0.4387  1.7718
    8MOL   H171 5365   1.501   6.393   7.311 -2.1006  3.3254  0.2365
    8MOL   H172 5366   1.364   6.209   7.105 -0.7778  0.8086  0.2655
    8MOL   H173 5367   1.320   6.195   7.261 -1.0900  1.3167 -1.5660
    8MOL   H174 5368   1.607   6.139   7.192  0.6719  0.7029  0.7207
    8MOL   H175 5369   1.492   6.015   7.214 -1.2148 -0.6981  3.2339
    8MOL   H176 5370   1.606   6.215   7.422 -0.4319 -1.0562  0.7022
    8MOL   H177 5371   1.631   6.041   7.415 -0.4440 -1.2198  0.8339
    8MOL   H178 5372   1.394   5.999   7.460 -1.2971  1.0681  0.0949
    8MOL   H179 5373   1.363   6.168   7.493 -0.5602 -0.2380  0.6885
    8MOL   H180 5374   1.575   5.997   7.627 -1.7870 -2.1502 -1.8418
    8MOL   H181 5375   1.409   6.037   0.001  0.6510  1.4022  1.8759
    8MOL   H182 5376   1.466   6.276   7.650  1.4097 -0.3329 -3.6840
    8MOL   H183 5377   1.632   6.227   7.643  0.6436  0.7823  1.2085
    8MOL   H184 5378   1.573   6.112   0.183 -0.0611  1.5473  2.4545
    8MOL   H185 5379   1.445   6.239   0.181  0.1592  2.6313  0.4246
    8MOL   H186 5380   1.646   6.393   0.132  0.2739  0.8265  0.7240
    8MOL   C187 5381   1.687   6.304   0.313 -0.2184  0.5095  0.3923
    8MOL   O188 5382   1.652   6.219   0.393  0.0660  0.7671 -0.3401
    8MOL   C189 5383   1.771   6.420   0.354  0.1049 -0.8026  0.8283
    8MOL   C190 5384   1.887   6.372   0.429 -0.0017  0.7917 -0.0845
    8MOL   C191 5385   1.983   6.479   0.467 -0.2914 -0.8484  0.1061
    8MOL   C192 5386   2.123   6.424   0.509 -0.7133 -0.7380  0.2888
    8MOL   C193 5387   2.114   6.315   0.620 -0.9411 -0.0608 -0.2887
    8MOL   C194 5388   2.257   6.285   0.670  0.3642  0.0836  0.2844
    8MOL   C195 5389   2.265   6.153   0.749 -0.1069 -0.0399  0.1805
    8MOL   C196 5390   2.404   6.149   0.817 -0.3116  0.6555  0.2258
    8MOL   C197 5391   2.431   6.020   0.903 -0.3550  0.0705 -0.2629
    8MOL   C198 5392   2.581   6.014   0.938 -0.1414  0.1390 -0.2036
    8MOL   C199 5393   2.628   5.889   1.004 -0.5693  0.1702 -0.0475
    8MOL   N200 5394   2.773   5.897   1.035 -0.4713  0.7160  0.1671
    8MOL   H201 5395   1.697   6.486   0.399 -0.1460  0.5683 -1.4718
    8MOL   H202 5396   1.808   6.489   0.278 -0.2583 -0.2788  1.1310
    8MOL   H203 5397   1.857   6.305   0.509  1.7354  0.5004  0.3602
    8MOL   H204 5398   1.942   6.308   0.361  1.4667  1.2549  0.6302
    8MOL   H205 5399   1.934   6.544   0.541  1.7162  1.6823 -0.6990
    8MOL   H206 5400   2.003   6.544   0.382  0.3822 -1.1354  0.0443
    8MOL   H207 5401   2.182   6.389   0.424  0.9703  1.1228  0.6528
    8MOL   H208 5402   2.183   6.502   0.556 -1.0035 -0.1751 -0.2657
    8MOL   H209 5403   2.068   6.226   0.576 -1.7930  0.2233  0.0306
    8MOL   H210 5404   2.061   6.346   0.710 -2.3682 -2.4422 -0.2669
    8MOL   H211 5405   2.281   6.367   0.738  0.5921  2.0196 -2.0431
    8MOL   H212 5406   2.327   6.286   0.585  0.5650  1.2494  0.4569
    8MOL   H213 5407   2.246   6.068   0.684 -1.3098 -0.3283  0.8998
    8MOL   H214 5408   2.183   6.157   0.821  0.5963 -3.9418  1.2598
    8MOL   H215 5409   2.416   6.243   0.872  1.6493  1.5951 -1.7258
    8MOL   H216 5410   2.480   6.155   0.739 -0.1127 -0.1940  0.3454
    8MOL   H217 5411   2.412   5.926   0.853 -0.5107 -1.3241  2.3561
    8MOL   H218 5412   2.366   6.021   0.990 -0.7664  1.5298 -0.5776
    8MOL   H219 5413   2.617   6.103   0.990 -2.5286  0.5409  0.8651
    8MOL   H220 5414   2.641   6.013   0.848  0.8117 -0.4214  0.4343
    8MOL   H221 5415   2.597   5.804   0.943 -2.9469  0.8782  0.1622
    8MOL   H222 5416   2.579   5.868   1.099 -1.6413 -2.9598 -1.2298
    8MOL   H223 5417   2.814   5.984   1.067 -0.2098  0.3123  0.9374
    8MOL   C224 5418   2.855   5.807   0.984  0.9481 -0.2218 -0.2932
    8MOL   O225 5419   2.823   5.702   0.927 -0.1207  0.0022  0.1207
    8MOL   C226 5420   3.002   5.838   0.994 -0.3938  0.4725 -0.2125
    8MOL   C227 5421   3.080   5.738   1.077  0.3472 -0.1277  0.0857
    8MOL   C228 5422   3.229   5.771   1.093  0.1179 -0.5168 -0.0251
    8MOL   C229 5423   3.268   5.902   1.158 -1.0958  0.5969 -0.1402
    8MOL   C230 5424   3.431   5.906   1.154 -0.7277  0.0873 -0.0567
    8MOL   C231 5425   3.492   6.018   1.234 -0.1880  0.6777  0.2840
    8MOL   C232 5426   3.641   6.026   1.208  0.1570 -0.1306  0.6430
    8MOL   C233 5427   3.712   6.159   1.261  0.2660 -0.2270  0.4620
    8MOL   C234 5428   3.862   6.148   1.273  0.4407  0.2576 -0.0459
    8MOL   C235 5429   3.939   6.132   1.140 -1.4717 -0.7252 -0.4606
    8MOL   C236 5430   4.081   6.069   1.156  0.2268  0.6336  0.2561
    8MOL   N237 5431   4.129   6.053   1.022 -0.4891  0.1978  0.0369
    8MOL   H238 5432   3.001   5.937   1.040 -2.4565  0.3929 -0.0587
    8MOL   H239 5433   3.029   5.857   0.890 -1.6867  1.5078 -0.3686
    8MOL   H240 5434   3.029   5.715   1.171 -0.3259  1.0390  0.0110
    8MOL   H241 5435   3.076   5.641   1.027 -1.4044  0.3835 -0.7879
    8MOL   H242 5436   3.282   5.778   0.999 -0.1740 -1.0404 -0.2312
    8MOL   H243 5437   3.265   5.693   1.160 -0.0183 -0.1014  0.5400
    8MOL   H244 5438   3.224   5.994   1.119  0.1766  1.7634  1.1212
    8MOL   H245 5439   3.249   5.901   1.265  1.3476 -0.7389  0.3444
    8MOL   H246 5440   3.468   5.923   1.053 -0.4507  2.4270  0.4096
    8MOL   H247 5441   3.467   5.807   1.179  1.1363  0.7621  0.0034
    8MOL   H248 5442   3.465   6.001   1.338 -1.5882 -0.1607 -0.2190
    8MOL   H249 5443   3.447   6.113   1.203 -2.7046 -0.3219  0.8101
    8MOL   H250 5444   3.667   6.015   1.103  0.8399  0.9876  0.6838
    8MOL   H251 5445   3.694   5.940   1.248  0.4969 -0.1281  0.2022
    8MOL   H252 5446   3.664   6.179   1.357 -3.7171 -1.2879 -1.2046
    8MOL   H253 5447   3.686   6.245   1.200 -0.0165  0.5801  1.6833
    8MOL   H254 5448   3.896   6.065   1.335 -2.5597 -0.1616  1.1391
    8MOL   H255 5449   3.909   6.236   1.317 -1.1279  1.5946 -0.9946
    8MOL   H256 5450   3.956   6.231   1.098  2.3970 -1.2745 -0.3459
    8MOL   H257 5451   3.876   6.075   1.073 -2.1839  0.2015 -0.6002
    8MOL   H258 5452   4.078   5.965   1.187 -1.0348  0.6757  0.3015
    8MOL   H259 5453   4.141   6.128   1.226 -0.8893  0.2840  1.5102
    8MOL   H260 5454   4.127   5.959   0.985  0.7405 -0.4056  1.4616
    8MOL   C261 5455   4.213   6.138   0.959  0.1376 -0.2401 -0.4048
    8MOL   O262 5456   4.240   6.253   0.998 -0.6695 -0.5977 -0.1220
    8MOL   C263 5457   4.273   6.083   0.831  0.0071 -0.3971  0.4127
    8MOL   C264 5458   4.426   6.098   0.825 -0.5636 -0.4893 -0.1699
    8MOL   C265 5459   4.506   6.054   0.950  0.3000 -0.7503 -0.1620
    8MOL   C266 5460   4.485   5.908   0.998 -0.6909 -1.4278  0.2628
    8MOL   C267 5461   4.584   5.857   1.106  0.1589  0.4847  0.2683
    8MOL   C268 5462   4.550   5.916   1.243 -0.0980 -0.4379  0.1822
    8MOL   C269 5463   4.424   5.852   1.318 -0.2355  0.0520 -0.8303
    8MOL   C270 5464   4.393   5.939   1.438  0.9353 -0.2383 -0.0244
    8MOL   C271 5465   4.283   5.876   1.528 -0.0643 -0.2074  1.0619
    8MOL   C272 5466   4.142   5.885   1.468 -0.6162  0.1800  0.1400
    8MOL   C273 5467   4.038   5.805   1.548  0.2085  0.8627 -0.3415
    8MOL   N274 5468   4.057   5.657   1.571 -0.4745 -0.3452 -0.1736
    8MOL   H275 5469   4.221   6.133   0.749  2.7035  0.8272 -0.5821
    8MOL   H276 5470   4.252   5.976   0.831 -1.5398 -0.1104  0.5931
    8MOL   H277 5471   4.462   6.058   0.730 -2.3308  1.1502 -1.5652
    8MOL   H278 5472   4.447   6.204   0.816  0.7520 -0.8518 -1.4625
    8MOL   H279 5473   4.485   6.125   1.030  0.8699  0.8491 -1.4013
    8MOL   H280 5474   4.612   6.075   0.932  0.2253  0.4889  0.7160
    8MOL   H281 5475   4.381   5.900   1.030 -1.0680  3.0414  0.3953
    8MOL   H282 5476   4.491   5.833   0.919 -2.4529 -1.1422 -0.1553
    8MOL   H283 5477   4.687   5.872   1.075  0.2612  1.9456  1.2569
    8MOL   H284 5478   4.565   5.749   1.108  0.5867  0.3892 -0.6793
    8MOL   H285 5479   4.543   6.024   1.232  2.5564 -0.5758 -3.5411
    8MOL   H286 5480   4.642   5.895   1.297  1.3307  1.7648 -1.3109
    8MOL   H287 5481   4.459   5.750   1.334  0.4983  0.5067  0.6123
    8MOL   H288 5482   4.347   5.845   1.241 -0.7955 -0.0975 -0.2596
    8MOL   H289 5483   4.359   6.035   1.399 -0.4409 -0.6025  0.2548
    8MOL   H290 5484   4.482   5.967   1.495  1.1071  0.5719 -0.6823
    8MOL   H291 5485   4.291   5.922   1.627  3.5163 -1.5207  1.4580
    8MOL   H292 5486   4.303   5.771   1.545  0.4236 -0.2933 -0.0025
    8MOL   H293 5487   4.149   5.850   1.365  1.9004 -2.7327  1.2121
    8MOL   H294 5488   4.107   5.987   1.457  0.5265  0.6948  1.2185
    8MOL   H295 5489   3.942   5.824   1.499  0.4548  0.7931 -0.8566
    8MOL   H296 5490   4.036   5.854   1.645  2.9378 -0.5024  0.4532
    8MOL   H297 5491   4.078   5.631   1.666  0.1847  1.4605  0.2119
    8MOL   C298 5492   4.044   5.571   1.470 -0.1127 -0.5799  0.0081
    8MOL   O299 5493   4.012   5.604   1.357  0.2091 -0.2673 -0.3406
    8MOL   C300 5494   4.063   5.428   1.506  0.2608  0.7831  0.3748
    8MOL   C301 5495   4.051   5.332   1.387 -0.1306  0.0140  0.2999
    8MOL   C302 5496   3.909   5.302   1.327  0.4808 -0.7705 -0.9594
    8MOL   C303 5497   3.931   5.208   1.209 -0.8105 -0.0433 -0.1841
    8MOL   C304 5498   3.803   5.148   1.154  0.5499  0.4087  0.7173
    8MOL   C305 5499   3.830   5.029   1.062 -0.3370  0.1182  0.2016
    8MOL   C306 5500   3.706   4.934   1.041  0.2292 -0.4776  0.4506
    8MOL   C307 5501   3.584   5.000   0.985  0.4991 -0.2894  0.0068
    8MOL   C308 5502   3.460   4.906   0.993 -0.0127 -0.2744 -0.3412
    8MOL   C309 5503   3.329   4.974   0.946  0.2434 -0.0686  0.4369
    8MOL   C310 5504   3.216   4.890   0.968 -0.0959  0.0923 -0.2634
    8MOL   N311 5505   3.095   4.937   0.892  0.4096 -0.6740 -0.3632
    8MOL   H312 5506   4.003   5.406   1.594  0.7718  3.0391  1.3406
    8MOL   H313 5507   4.162   5.426   1.551  0.3153  1.1294  0.2744
    8MOL   H314 5508   4.119   5.362   1.307  0.9768 -0.4826  1.0513
    8MOL   H315 5509   4.080   5.233   1.420  1.1602 -0.3314 -1.7840
    8MOL   H316 5510   3.867   5.392   1.283  0.0561 -1.4361 -1.9206
    8MOL   H317 5511   3.841   5.269   1.406 -1.0518  0.7029 -1.6305
    8MOL   H318 5512   3.989   5.262   1.135  0.2983  0.3224  0.9254
    8MOL   H319 5513   3.997   5.130   1.247  0.5605  1.1225 -0.1298
    8MOL   H320 5514   3.750   5.228   1.101 -0.2576 -0.5793  0.0252
    8MOL   H321 5515   3.742   5.123   1.240  0.2902 -1.5366 -0.0127
    8MOL   H322 5516   3.909   4.958   1.088 -1.2964 -0.4557  1.6395
    8MOL   H323 5517   3.841   5.077   0.966  1.9470  1.9252  1.3176
    8MOL   H324 5518   3.684   4.870   1.127 -0.8308  1.3365  1.5640
    8MOL   H325 5519   3.753   4.869   0.967  0.4584  0.4576 -0.2347
    8MOL   H326 5520   3.601   5.024   0.880 -0.1155  0.0950 -0.0082
    8MOL   H327 5521   3.559   5.089   1.042 -1.9544  0.4654 -2.1096
    8MOL   H328 5522   3.456   4.883   1.099  2.3082 -2.7045 -0.7289
    8MOL   H329 5523   3.481   4.818   0.933 -1.2371 -0.7538 -0.0697
    8MOL   H330 5524   3.324   4.999   0.840 -0.8215 -2.4723 -0.1257
    8MOL   H331 5525   3.320   5.074   0.986  2.0292  1.0677 -1.8861
    8MOL   H332 5526   3.186   4.895   1.073  0.4076 -0.5952 -0.0840
    8MOL   H333 5527   3.244   4.787   0.946 -0.5505 -0.1267  0.1521
    8MOL   H334 5528   3.024   4.972   0.955 -0.2431 -2.1021 -0.2665
    8MOL   C335 5529   3.063   4.920   0.766  0.5161 -0.2484  0.6848
    8MOL   O336 5530   3.140   4.868   0.685  0.1783 -0.5894 -0.0894
    8MOL   C337 5531   2.928   4.972   0.712 -0.2433 -0.2211  0.2639
    8MOL   C338 5532   2.863   4.870   0.625  0.1597  0.6191 -0.1446
    8MOL   C339 5533   2.830   4.737   0.696 -0.1896  0.2780  0.1612
    8MOL   C340 5534   2.763   4.643   0.592  0.9984  0.5360 -0.0424
    8MOL   C341 5535   2.718   4.519   0.670  0.7350 -0.2203 -0.2970
    8MOL   C342 5536   2.644   4.420   0.583 -0.4848  0.6462  0.4570
    8MOL   C343 5537   2.545   4.327   0.661 -0.7286 -0.0612 -0.0469
    8MOL   C344 5538   2.409   4.383   0.690  0.0797  0.6662  0.2346
    8MOL   C345 5539   2.333   4.313   0.797  0.2626  0.5409 -0.9017
    8MOL   C346 5540   2.191   4.378   0.827  0.2717  0.3760 -0.1873
    8MOL   C347 5541   2.099   4.305   0.927 -0.5856  0.5735  0.1652
    8MOL   N348 5542   2.149   4.289   1.060  0.0621  0.8043 -0.5956
    8MOL   H349 5543   2.956   5.059   0.653  0.0270 -1.2961 -1.2046
    8MOL   H350 5544   2.859   5.002   0.791  0.2444  1.4614  0.0757
    8MOL   H351 5545   2.767   4.912   0.595 -0.3160  0.4053  1.0697
    8MOL   H352 5546   2.910   4.853   0.528 -1.8731  0.5595 -1.1489
    8MOL   H353 5547   2.755   4.746   0.775  1.1217 -0.5642  1.5317
    8MOL   H354 5548   2.917   4.688   0.740 -1.1089 -2.9986 -1.4785
    8MOL   H355 5549   2.685   4.683   0.527 -0.1216  0.1901  1.0590
    8MOL   H356 5550   2.844   4.612   0.526 -0.0282  1.6402 -1.8556
    8MOL   H357 5551   2.658   4.544   0.757 -0.7218  1.4510 -1.7248
    8MOL   H358 5552   2.806   4.468   0.710  0.8774  0.0103 -0.3144
    8MOL   H359 5553   2.726   4.361   0.542 -1.4719 -0.1962 -0.3606
    8MOL   H360 5554   2.599   4.480   0.504  0.5298 -2.7554 -2.8663
    8MOL   H361 5555   2.595   4.302   0.754 -0.6665 -0.8864 -0.2985
    8MOL   H362 5556   2.523   4.235   0.606 -0.7290 -1.0504  1.5739
    8MOL   H363 5557   2.343   4.383   0.604  0.0672  0.8408  0.2435
    8MOL   H364 5558   2.422   4.487   0.718  0.3332  0.8610 -0.5828
    8MOL   H365 5559   2.382   4.322   0.894 -1.1392  2.2518 -0.3295
    8MOL   H366 5560   2.329   4.206   0.776  0.4152  0.3008  0.2127
    8MOL   H367 5561   2.131   4.380   0.737  0.3410  1.0502 -0.2226
    8MOL   H368 5562   2.202   4.484   0.851 -0.1683  0.1725  0.9695
    8MOL   H369 5563   2.083   4.207   0.883  2.6998  0.2017 -0.2999
    8MOL   H370 5564   1.996   4.342   0.924 -0.6688  0.4897  1.7609
    8MOL   H371 5565   2.175   4.197   1.090 -3.8327 -0.3460 -0.4781
    8MOL   C372 5566   2.130   4.379   1.157 -1.0402 -0.3285  0.2460
    8MOL   O373 5567   2.075   4.481   1.132 -0.4210 -0.0105  0.0941
    8MOL   C374 5568   2.171   4.343   1.300 -0.4902  0.0105 -0.1691
    8MOL   C375 5569   2.148   4.455   1.400 -0.1160 -0.2097  0.1110
    8MOL   C376 5570   2.204   4.431   1.543 -0.3812 -0.0644 -0.5567
    8MOL   C377 5571   2.156   4.538   1.644  0.4229  0.3736 -0.2205
    8MOL   C378 5572   2.187   4.498   1.784  0.3066  0.5138 -0.0193
    8MOL   C379 5573   2.153   4.613   1.882 -0.1064  0.6246  0.4862
    8MOL   C380 5574   2.156   4.587   2.033 -0.0771 -0.1921  0.3983
    8MOL   C381 5575   2.303   4.587   2.087 -0.4417 -0.2711  0.9649
    8MOL   C382 5576   2.300   4.555   2.236  0.7084 -0.4429  0.5700
    8MOL   C383 5577   2.428   4.603   2.305 -1.0590 -0.3801  0.0060
    8MOL   C384 5578   2.415   4.631   2.458  0.3695  0.5944 -0.4439
    8MOL   N385 5579   2.548   4.675   2.503 -0.1350  0.7055 -0.4340
    8MOL   H386 5580   2.275   4.309   1.305 -0.8700 -1.0148  0.7816
    8MOL   H387 5581   2.113   4.255   1.326  0.9668 -0.6796  0.8420
    8MOL   H388 5582   2.202   4.543   1.365  0.2944  0.4203  2.2315
    8MOL   H389 5583   2.043   4.484   1.401 -0.5959 -1.7936  4.5202
    8MOL   H390 5584   2.313   4.427   1.552 -0.4353 -1.6481 -0.4445
    8MOL   H391 5585   2.166   4.331   1.568  1.6705 -1.2962 -2.1926
    8MOL   H392 5586   2.203   4.636   1.632  1.4092 -0.0670 -0.0403
    8MOL   H393 5587   2.048   4.548   1.636  0.5508  0.4169 -2.0562
    8MOL   H394 5588   2.295   4.494   1.798  0.3647 -1.9506 -0.7595
    8MOL   H395 5589   2.147   4.400   1.811 -0.6716  1.2558  1.2897
    8MOL   H396 5590   2.050   4.640   1.861 -1.1494 -3.2211  0.4052
    8MOL   H397 5591   2.209   4.705   1.864 -0.8826  1.1649  0.7878
    8MOL   H398 5592   2.111   4.493   2.065  0.5662 -0.3895  0.7267
    8MOL   H399 5593   2.087   4.655   2.085 -1.2814 -0.9136 -0.2251
    8MOL   H400 5594   2.353   4.679   2.060 -0.7715 -0.7956 -1.5431
    8MOL   H401 5595   2.353   4.510   2.029 -1.9426 -1.0335  0.6599
    8MOL   H402 5596   2.279   4.451   2.260  1.2055 -0.6613  0.0663
    8MOL   H403 5597   2.220   4.613   2.282  1.0043 -0.5935  1.2883
    8MOL   H404 5598   2.484   4.684   2.257  0.3048 -0.6445  1.1281
    8MOL   H405 5599   2.487   4.512   2.293 -1.4654 -0.3494 -2.4532
    8MOL   H406 5600   2.383   4.545   2.516  0.3458  1.1113  0.3194
    8MOL   H407 5601   2.342   4.712   2.469 -0.2866  0.1077 -1.1615
    8MOL   H408 5602   2.629   4.621   2.476 -1.3624 -0.5303 -1.6855
    8MOL   C409 5603   2.574   4.797   2.558  0.7151 -0.2627 -1.0908
    8MOL   O410 5604   2.488   4.885   2.589  0.2210 -0.3092 -0.4997
    8MOL   C411 5605   2.724   4.828   2.576 -0.4454  0.3146 -0.1080
    8MOL   C412 5606   2.780   4.932   2.487  0.2392 -0.1557  0.4555
    8MOL   C413 5607   2.798   4.878   2.344 -0.2657  0.1033 -0.1053
    8MOL   C414 5608   2.876   4.978   2.252 -0.1477  0.0286 -0.1666
    8MOL   C415 5609   3.028   4.958   2.259  0.4174  0.0537 -0.0617
    8MOL   C416 5610   3.100   5.073   2.186 -0.1093 -0.2003  0.7257
    8MOL   C417 5611   3.242   5.026   2.133  0.4776  0.0758 -0.1079
    8MOL   C418 5612   3.260   4.974   1.988 -0.0804 -0.2406  0.5658
    8MOL   C419 5613   3.184   4.846   1.963  0.3027  0.0456  0.3998
    8MOL   C420 5614   3.193   4.808   1.818 -0.1257 -0.0725  0.6395
    8MOL   C421 5615   3.137   4.665   1.798 -0.1095 -0.1566  0.6743
    8MOL   N422 5616   3.167   4.624   1.659 -0.4252 -0.2766  0.5631
    8MOL   H423 5617   2.785   4.739   2.567  0.0737  0.5568  0.9383
    8MOL   H424 5618   2.740   4.857   2.680  0.8323  1.9966 -0.7439
    8MOL   H425 5619   2.714   5.018   2.477 -1.8410 -1.8056 -0.1814
    8MOL   H426 5620   2.874   4.967   2.531 -0.3952  1.9477  0.1594
    8MOL   H427 5621   2.697   4.862   2.307 -0.1382  0.4401 -0.5881
    8MOL   H428 5622   2.847   4.780   2.340 -0.3103  0.1224 -1.1321
    8MOL   H429 5623   2.851   4.931   2.157  1.2051 -2.9455  0.9095
    8MOL   H430 5624   2.828   5.076   2.255 -0.7625 -0.2972  0.8941
    8MOL   H431 5625   3.063   4.858   2.235  0.2167 -0.4199  1.5898
    8MOL   H432 5626   3.050   4.965   2.365 -0.3410  1.3078  0.0271
    8MOL   H433 5627   3.112   5.151   2.260  0.1401  0.5995 -0.1430
    8MOL   H434 5628   3.051   5.111   2.096 -0.0665  1.3035  1.3284
    8MOL   H435 5629   3.293   4.962   2.205 -1.0879  0.4644  1.3709
    8MOL   H436 5630   3.309   5.110   2.148  1.9367 -1.1614  0.4817
    8MOL   H437 5631   3.363   4.943   1.970 -0.0830  0.0081  0.1060
    8MOL   H438 5632   3.227   5.053   1.920 -1.4320  1.7984  3.4898
    8MOL   H439 5633   3.079   4.875   1.975  0.1747 -0.8205  1.4132
    8MOL   H440 5634   3.212   4.763   2.027 -0.7384  1.1217  2.3215
    8MOL   H441 5635   3.300   4.805   1.798 -0.2690 -1.0361 -0.0348
    8MOL   H442 5636   3.161   4.887   1.750 -0.5295 -1.8943 -1.3456
    8MOL   H443 5637   3.029   4.650   1.797  0.0397 -1.3298  0.4471
    8MOL   H444 5638   3.179   4.593   1.869  4.0528  0.4769 -1.0047
    8MOL   H445 5639   3.244   4.559   1.651  1.5989  2.1552 -0.1877
    8MOL   C446 5640   3.112   4.671   1.544  0.5174 -0.2288 -1.1501
    8MOL   O447 5641   3.023   4.752   1.549  0.0678  0.0725  0.0175
    8MOL   C448 5642   3.185   4.638   1.413  0.6748 -0.2222 -0.1576
    8MOL   C449 5643   3.282   4.752   1.369 -0.4160  0.2361 -0.7474
    8MOL   C450 5644   3.407   4.764   1.463  0.1728  0.6381  0.5488
    8MOL   C451 5645   3.498   4.639   1.474  0.3674  0.5221 -0.9232
    8MOL   C452 5646   3.540   4.620   1.617 -0.2237 -1.1142 -0.1302
    8MOL   C453 5647   3.656   4.520   1.625  0.0503 -0.3329  0.0964
    8MOL   C454 5648   3.704   4.490   1.762  0.2876  0.4151 -0.4118
    8MOL   C455 5649   3.819   4.396   1.773 -0.8514  0.8769  0.0757
    8MOL   C456 5650   3.801   4.265   1.684 -0.1656  0.1306  0.2802
    8MOL   C457 5651   3.911   4.167   1.728  0.2055 -0.2616 -0.2653
    8MOL   C458 5652   4.061   4.200   1.687 -0.2987  0.3145 -0.0976
    8MOL   N459 5653   4.140   4.081   1.685 -0.0488 -0.0294 -0.3617
    8MOL   H460 5654   3.117   4.636   1.328  1.2056 -2.1490 -0.5719
    8MOL   H461 5655   3.236   4.541   1.414  1.2687  0.0944  0.6312
    8MOL   H462 5656   3.312   4.730   1.267 -1.4120 -4.0336 -0.1941
    8MOL   H463 5657   3.226   4.846   1.375 -1.3036 -0.1478 -2.8163
    8MOL   H464 5658   3.376   4.796   1.562  0.5809  1.6594  0.3512
    8MOL   H465 5659   3.478   4.844   1.440  3.1553 -2.1437 -0.3006
    8MOL   H466 5660   3.464   4.543   1.435  3.1077 -1.4509  1.3085
    8MOL   H467 5661   3.582   4.660   1.407  1.6724 -2.5866 -0.3463
    8MOL   H468 5662   3.453   4.598   1.679 -1.3631  2.3003 -0.4021
    8MOL   H469 5663   3.570   4.711   1.669 -4.7319  0.2242  0.2792
    8MOL   H470 5664   3.739   4.568   1.573 -0.6909  0.9492  0.0922
    8MOL   H471 5665   3.631   4.433   1.564 -0.8421 -0.8867  1.2352
    8MOL   H472 5666   3.623   4.447   1.821  0.7497 -0.8269 -0.6704
    8MOL   H473 5667   3.746   4.580   1.807 -1.5906  1.1634 -0.1122
    8MOL   H474 5668   3.840   4.360   1.874  1.1730  3.0449  0.4609
    8MOL   H475 5669   3.907   4.449   1.736 -0.4774  0.4284  0.3200
    8MOL   H476 5670   3.802   4.282   1.577 -0.9070 -0.6436  0.1491
    8MOL   H477 5671   3.710   4.212   1.711  0.3982 -1.1470 -0.3267
    8MOL   H478 5672   3.887   4.065   1.697 -1.4077  1.1197 -3.7385
    8MOL   H479 5673   3.895   4.158   1.836 -1.7312 -5.4626 -0.8455
    8MOL   H480 5674   4.096   4.276   1.757 -1.2433  2.1248 -1.5386
    8MOL   H481 5675   4.055   4.249   1.590 -0.5201 -0.4057 -0.4507
    8MOL   H482 5676   4.120   4.020   1.608 -1.8920  1.0800 -0.7988
    8MOL   C483 5677   4.219   4.032   1.783  0.3242 -0.5000 -0.8794
    8MOL   O484 5678   4.263   4.103   1.876 -0.3012 -0.1698 -0.4656
    8MOL   C485 5679   4.256   3.888   1.786  0.1249 -0.1867  0.2946
    8MOL   C486 5680   4.204   3.815   1.908 -0.6352 -1.2331 -0.8195
    8MOL   C487 5681   4.048   3.833   1.931 -0.0151 -0.3588 -0.0162
    8MOL   C488 5682   3.959   3.784   1.815 -0.5286 -0.8338  0.2772
    8MOL   C489 5683   3.804   3.815   1.838 -0.6895 -0.5386 -0.4215
    8MOL   C490 5684   3.709   3.776   1.728 -0.1879 -0.2587  0.4001
    8MOL   C491 5685   3.737   3.837   1.597  0.1359 -0.5312  0.2483
    8MOL   C492 5686   3.647   3.783   1.487 -0.2982 -0.0218 -0.1343
    8MOL   C493 5687   3.688   3.838   1.355  0.3164  0.5422  0.8807
    8MOL   C494 5688   3.570   3.841   1.261  0.5392 -0.4965 -0.3561
    8MOL   C495 5689   3.618   3.863   1.116  0.0992  0.2583  0.2050
    8MOL   N496 5690   3.511   3.850   1.016  0.8866 -0.3579 -0.0168
    8MOL   H497 5691   4.364   3.876   1.797  0.6738  3.9929  0.2301
    8MOL   H498 5692   4.220   3.834   1.698 -0.3832 -1.5781  1.3392
    8MOL   H499 5693   4.233   3.710   1.900  2.9101 -0.3703 -0.1993
    8MOL   H500 5694   4.250   3.863   1.994  0.8807  1.1630 -2.9225
    8MOL   H501 5695   4.024   3.938   1.944  0.6641 -0.4255  2.0055
    8MOL   H502 5696   4.025   3.783   2.025  0.2973  2.1623  1.4404
    8MOL   H503 5697   3.988   3.841   1.727  0.7261 -0.4111  0.9526
    8MOL   H504 5698   3.971   3.677   1.799  0.2218 -0.8558  0.9559
    8MOL   H505 5699   3.782   3.921   1.844  0.9668 -0.1733 -0.3662
    8MOL   H506 5700   3.762   3.770   1.928 -2.0191 -0.3584 -0.9433
    8MOL   H507 5701   3.608   3.808   1.756  0.4726  0.3183  2.2301
    8MOL   H508 5702   3.700   3.668   1.716 -0.7912 -0.2019  0.3068
    8MOL   H509 5703   3.839   3.822   1.562  0.4763  0.7398  0.6901
    8MOL   H510 5704   3.718   3.944   1.600 -0.5925 -0.6092 -1.0958
    8MOL   H511 5705   3.546   3.815   1.513 -0.3025  0.1133 -0.3107
    8MOL   H512 5706   3.643   3.675   1.479 -0.3514  0.0199 -0.6985
    8MOL   H513 5707   3.781   3.793   1.321  1.6046  1.2466  3.3749
    8MOL   H514 5708   3.715   3.944   1.360 -0.3698  0.7952 -0.4113
    8MOL   H515 5709   3.498   3.913   1.299 -2.1872 -1.9578 -2.5816
    8MOL   H516 5710   3.520   3.744   1.265 -1.9117  0.7892  1.3832
    8MOL   H517 5711   3.699   3.794   1.095 -0.4359 -0.0692 -0.8108
    8MOL   H518 5712   3.653   3.966   1.111  2.2131 -0.4091  0.8992
    8MOL   H519 5713   3.515   3.770   0.955  1.0608 -0.1292 -0.3121
    8MOL   C520 5714   3.425   3.950   0.989  0.2955 -0.3908  0.0749
    8MOL   O521 5715   3.435   4.057   1.049 -0.3898 -0.4726  0.2383
    8MOL   C522 5716   3.323   3.926   0.880  0.1528  0.1740  0.1251
    8MOL   C523 5717   3.282   4.035   0.784 -0.0945  0.5856  0.2137
    8MOL   C524 5718   3.192   3.988   0.664 -0.3258 -0.2118  0.0837
    8MOL   C525 5719   3.276   3.931   0.547 -0.0284  0.4172  0.0014
    8MOL   C526 5720   3.196   3.877   0.421 -0.4386  0.1278  0.2882
    8MOL   C527 5721   3.288   3.855   0.299 -0.1260 -0.1741 -0.1394
    8MOL   C528 5722   3.382   3.725   0.312 -0.1892  0.2727 -0.2787
    8MOL   C529 5723   3.465   3.694   0.185 -0.0526  0.3995 -0.1488
    8MOL   C530 5724   3.502   3.546   0.170  0.5643  0.1971  0.3892
    8MOL   C531 5725   3.600   3.529   0.055  0.4476  0.0628  0.1414
    8MOL   C532 5726   3.751   3.551   0.096  0.3539 -0.7184 -0.6119
    8MOL   N533 5727   3.838   3.454   0.020  1.0014 -0.0322 -0.1042
    8MOL   H534 5728   3.238   3.899   0.944 -0.0621  0.3495 -0.0853
    8MOL   H535 5729   3.348   3.834   0.828 -1.4696 -0.9909  1.3176
    8MOL   H536 5730   3.216   4.104   0.836 -1.8181 -0.1153 -0.9971
    8MOL   H537 5731   3.377   4.079   0.751  0.0185  0.5552  0.5038
    8MOL   H538 5732   3.126   4.070   0.635 -1.4585 -0.3905  2.0364
    8MOL   H539 5733   3.127   3.916   0.714 -1.7023 -1.2802 -3.0938
    8MOL   H540 5734   3.353   4.001   0.515  1.0352 -1.4384 -1.5759
    8MOL   H541 5735   3.332   3.849   0.592  1.4307  0.0890 -2.3738
    8MOL   H542 5736   3.132   3.960   0.394 -2.2352 -0.7054  1.8077
    8MOL   H543 5737   3.119   3.803   0.446  0.9402 -0.8559  1.7872
    8MOL   H544 5738   3.339   3.949   0.275 -0.2625 -0.5506 -1.9974
    8MOL   H545 5739   3.223   3.836   0.213  1.0573 -0.1881 -1.0510
    8MOL   H546 5740   3.322   3.639   0.343  1.0393 -0.2040  0.8095
    8MOL   H547 5741   3.446   3.744   0.398  0.6040  0.2798 -0.8740
    8MOL   H548 5742   3.551   3.760   0.170  1.1877 -0.5912  2.4001
    8MOL   H549 5743   3.401   3.714   0.098 -0.0710  3.4895  0.5152
    8MOL   H550 5744   3.412   3.495   0.137  0.4323 -1.3480  2.9997
    8MOL   H551 5745   3.548   3.500   0.258 -1.3905 -0.9420  0.8321
    8MOL   H552 5746   3.572   3.588   7.661  2.6892 -0.7864 -1.1860
    8MOL   H553 5747   3.583   3.428   0.018 -1.1242  0.9669 -1.6765
    8MOL   H554 5748   3.762   3.520   0.200  0.4203 -0.4637 -0.5436
    8MOL   H555 5749   3.781   3.651   0.066 -1.0683 -0.4287 -1.1046
    8MOL   H556 5750   3.843   3.480   7.617 -0.1038  1.2627  0.1673
    8MOL   C557 5751   3.879   3.335   0.047  0.2606 -0.2834  0.1086
    8MOL   O558 5752   3.939   3.266   7.661  0.3586 -0.0231 -0.2859
    8MOL   C559 5753   3.837   3.280   0.188 -0.2894  0.5071  0.2212
    8MOL   C560 5754   3.842   3.123   0.194 -0.3368  0.2297 -0.0395
    8MOL   C561 5755   3.790   3.064   0.323  0.7794 -0.3964 -0.2496
    8MOL   C562 5756   3.762   2.915   0.321 -0.3814 -0.0995  0.8331
    8MOL   C563 5757   3.885   2.820   0.310  0.1800  0.8459  0.2936
    8MOL   C564 5758   3.973   2.816   0.184  0.1494 -0.5315  0.0361
    8MOL   C565 5759   4.060   2.687   0.189  0.1023  0.2146  0.1675
    8MOL   C566 5760   4.155   2.676   0.065 -0.4263  0.0939  0.9043
    8MOL   C567 5761   4.237   2.544   0.066  0.1234 -0.1640 -0.7785
    8MOL   C568 5762   4.314   2.521   7.627  0.2780 -0.2158  0.6555
    8MOL   C569 5763   4.382   2.382   7.626 -0.9919  0.9458 -0.1977
    8MOL   N570 5764   4.487   2.370   7.528 -0.2969  0.0695  0.7378
    8MOL   H571 5765   3.739   3.316   0.219  0.3926 -0.4921  3.7019
    8MOL   H572 5766   3.902   3.318   0.266  0.5739  1.3052 -0.8612
    8MOL   H573 5767   3.773   3.088   0.117 -1.8203  0.5153  1.1410
    8MOL   H574 5768   3.945   3.091   0.176  0.5142  1.9756  1.5037
    8MOL   H575 5769   3.692   3.105   0.347  0.1599 -1.3564 -1.1366
    8MOL   H576 5770   3.848   3.092   0.411  2.0592  0.3876 -1.3195
    8MOL   H577 5771   3.706   2.888   0.410  0.2143  1.8756  1.8292
    8MOL   H578 5772   3.688   2.901   0.242  0.3525  1.4650 -0.1498
    8MOL   H579 5773   3.836   2.723   0.321 -1.2647  1.1383 -3.0110
    8MOL   H580 5774   3.944   2.829   0.401  0.1434  2.2674  0.1903
    8MOL   H581 5775   4.033   2.906   0.183  1.1981 -1.2226 -2.5427
    8MOL   H582 5776   3.913   2.827   0.094 -0.6014 -0.7404  0.5007
    8MOL   H583 5777   3.997   2.599   0.181  0.7676 -0.2077 -0.4781
    8MOL   H584 5778   4.120   2.694   0.280 -0.5507  2.4004  0.4635
    8MOL   H585 5779   4.222   2.762   0.063 -0.6134  0.2378  0.6860
    8MOL   H586 5780   4.093   2.679   7.669 -0.4355 -0.7039  0.8780
    8MOL   H587 5781   4.166   2.462   0.081  2.7710 -2.0085  2.0575
    8MOL   H588 5782   4.304   2.547   0.151 -2.1640 -1.7680  1.1445
    8MOL   H589 5783   4.390   2.599   7.629  0.8319 -0.7578  1.2591
    8MOL   H590 5784   4.247   2.533   7.542  0.5703 -1.3811  0.2489
    8MOL   H591 5785   4.300   2.318   7.594  1.4301 -1.5550 -1.5734
    8MOL   H592 5786   4.420   2.351   0.029 -1.3169  0.7645 -0.1264
    8MOL   H593 5787   4.539   2.451   7.497 -0.1796 -0.9441 -1.8666
    8MOL   C594 5788   4.548   2.258   7.490  0.0787 -0.1262  0.3770
    8MOL   O595 5789   4.529   2.146   7.538 -0.0774 -0.1066  0.3419
    8MOL   C596 5790   4.638   2.268   7.364  0.4716  0.4803  0.7262
    8MOL   C597 5791   4.730   2.148   7.341  0.5682  0.1575  0.4026
    8MOL   C598 5792   4.845   2.142   7.441 -0.3149  0.0496  0.2651
    8MOL   C599 5793   4.941   2.021   7.430  0.1691 -0.9133  0.1972
    8MOL   C600 5794   5.056   2.039   7.527 -0.2290  0.7504  0.4180
    8MOL   C601 5795   5.158   1.924   7.520  0.5704 -1.0054 -0.6831
    8MOL   C602 5796   5.227   1.942   7.388 -0.1962  1.0363  0.2684
    8MOL   C603 5797   5.335   1.833   7.371  0.0232 -0.7075 -0.7882
    8MOL   C604 5798   5.419   1.857   7.240  0.4549  0.1319 -0.8062
    8MOL   C605 5799   5.530   1.751   7.215  0.2442  0.1015 -0.1843
    8MOL   C606 5800   5.627   1.746   7.322  0.8855 -0.5224 -0.4171
    8MOL   N607 5801   5.745   1.670   7.283  0.1234  0.1337 -0.4102
    8MOL   H608 5802   4.690   2.362   7.381 -0.4932  0.7970  2.0116
    8MOL   H609 5803   4.573   2.283   7.278  0.3491  0.4001  0.8044
    8MOL   H610 5804   4.664   2.061   7.339 -1.2945  1.5148  0.6627
    8MOL   H611 5805   4.774   2.141   7.242  3.6547 -0.9461  1.8130
    8MOL   H612 5806   4.801   2.142   7.541  0.5035  1.4194  0.6420
    8MOL   H613 5807   4.903   2.235   7.439 -1.5298  0.7837 -1.0930
    8MOL   H614 5808   4.908   1.921   7.460  0.8481 -1.0936  0.3437
    8MOL   H615 5809   4.975   2.017   7.327 -0.7181 -0.7746 -0.1013
    8MOL   H616 5810   5.030   2.059   7.631 -0.0782 -0.6062  0.7300
    8MOL   H617 5811   5.108   2.131   7.500 -0.1805  0.3360 -0.9464
    8MOL   H618 5812   5.092   1.838   7.530 -0.9949  0.3095  0.3885
    8MOL   H619 5813   5.229   1.941   7.601  0.9065 -2.2340 -0.7029
    8MOL   H620 5814   5.272   2.039   7.368  0.8200  0.1294 -1.9985
    8MOL   H621 5815   5.151   1.932   7.311 -0.5951 -1.6493  0.9598
    8MOL   H622 5816   5.297   1.731   7.379 -1.8861 -0.0132 -0.6499
    8MOL   H623 5817   5.394   1.846   7.461 -1.2089 -0.7628  0.0365
    8MOL   H624 5818   5.465   1.955   7.233  2.2200 -0.7276 -1.7329
    8MOL   H625 5819   5.342   1.854   7.162 -0.5560  0.0071  0.1853
    8MOL   H626 5820   5.581   1.790   7.127 -0.0745  1.5732  0.2665
    8MOL   H627 5821   5.481   1.654   7.201  0.8105  0.0967 -2.4058
    8MOL   H628 5822   5.587   1.700   7.412 -1.4595 -1.5203 -1.9362
    8MOL   H629 5823   5.656   1.849   7.341  1.9943 -0.6393 -1.3982
    8MOL   H630 5824   5.820   1.728   7.249 -1.1389  1.1072 -1.6462
    8MOL   C631 5825   5.747   1.536   7.268  0.4191  0.4786  0.3416
    8MOL   O632 5826   5.646   1.465   7.293 -0.4677  0.6183  0.5863
    8MOL   C633 5827   5.876   1.473   7.227 -0.0034 -0.3332  0.5517
    8MOL   C634 5828   5.871   1.370   7.109  0.1247 -0.1516 -0.3375
    8MOL   C635 5829   5.841   1.433   6.977 -0.1829 -0.0012  0.2278
    8MOL   C636 5830   5.973   1.453   6.894  0.1564 -0.1555  0.2382
    8MOL   C637 5831   6.078   1.548   6.966 -0.1499  0.6220  0.0471
    8MOL   C638 5832   6.205   1.556   6.872 -0.6002  0.7633  0.1283
    8MOL   C639 5833   6.262   1.410   6.839 -0.2579  0.5853 -0.1595
    8MOL   C640 5834   6.389   1.427   6.753 -0.2120  1.0269  0.0137
    8MOL   C641 5835   6.455   1.300   6.702 -0.0767  0.4024  0.3102
    8MOL   C642 5836   6.587   1.331   6.620 -0.1351 -0.7095  0.4229
    8MOL   C643 5837   6.663   1.199   6.581  0.3327 -0.7097  0.3144
    8MOL   N644 5838   6.592   1.119   6.480  0.1280  0.4675  0.0896
    8MOL   H645 5839   5.931   1.428   7.309  0.5277 -1.9033 -0.6407
    8MOL   H646 5840   5.943   1.551   7.192 -1.6391  0.7102 -0.3256
    8MOL   H647 5841   5.959   1.306   7.103  0.4783  0.1442  1.3060
    8MOL   H648 5842   5.790   1.301   7.133 -1.8951  2.4735  0.5379
    8MOL   H649 5843   5.801   1.535   6.985 -2.2238 -0.9163  2.1134
    8MOL   H650 5844   5.769   1.376   6.917 -1.3614  1.3084  0.3666
    8MOL   H651 5845   6.008   1.349   6.896 -0.1554 -0.2694 -0.3118
    8MOL   H652 5846   5.950   1.467   6.789  1.2876  0.4924  0.0717
    8MOL   H653 5847   6.105   1.499   7.060 -1.8156 -0.2284  0.1101
    8MOL   H654 5848   6.044   1.647   6.995 -1.3119  0.8373 -1.9904
    8MOL   H655 5849   6.286   1.626   6.893 -0.4848  1.7869 -3.3278
    8MOL   H656 5850   6.182   1.590   6.771 -0.7915 -1.0353 -0.4584
    8MOL   H657 5851   6.185   1.350   6.789 -0.2318 -1.0548  1.7069
    8MOL   H658 5852   6.284   1.358   6.932 -2.0323  1.6007  0.8665
    8MOL   H659 5853   6.466   1.481   6.810  1.3038  1.0332 -2.0018
    8MOL   H660 5854   6.368   1.488   6.665 -0.0418 -0.5799 -1.1561
    8MOL   H661 5855   6.383   1.253   6.635  2.1743 -1.7578 -0.6904
    8MOL   H662 5856   6.461   1.230   6.785 -2.2988  0.3998  0.5027
    8MOL   H663 5857   6.659   1.384   6.682 -0.2707  2.4258 -1.9498
    8MOL   H664 5858   6.573   1.390   6.529  2.2059 -0.3811  0.2502
    8MOL   H665 5859   6.678   1.135   6.668 -2.1605 -0.4994  0.9208
    8MOL   H666 5860   6.763   1.228   6.548  0.5070  0.0009  1.4426
    8MOL   H667 5861   6.523   1.051   6.508  0.8561 -1.2189 -2.0808
    8MOL   C668 5862   6.603   1.125   6.349  0.1788  0.6118 -0.8417
    8MOL   O669 5863   6.688   1.192   6.294  0.1120  0.1770  0.4984
    8MOL   C670 5864   6.510   1.049   6.263 -0.2114  0.7057  0.1106
    8MOL   C671 5865   6.383   1.130   6.213 -0.3360 -0.7339 -0.5588
    8MOL   C672 5866   6.288   1.165   6.324 -0.2059 -0.2999  1.1011
    8MOL   C673 5867   6.180   1.264   6.276 -0.0969 -0.0745  0.5422
    8MOL   C674 5868   6.070   1.281   6.371  0.6368 -0.3226 -0.1216
    8MOL   C675 5869   6.096   1.379   6.485 -0.0638  0.1024 -0.9081
    8MOL   C676 5870   6.091   1.525   6.450 -0.6631  0.6109 -0.2728
    8MOL   C677 5871   5.951   1.580   6.423 -0.9845  0.4808 -0.1489
    8MOL   C678 5872   5.953   1.732   6.394  1.0892 -0.3084  0.1713
    8MOL   C679 5873   5.810   1.790   6.397 -0.6401  0.4067  0.3068
    8MOL   C680 5874   5.807   1.937   6.352  0.4300  0.3286  0.0347
    8MOL   N681 5875   5.658   1.961   6.344 -0.1579  0.0733 -0.3725
    8MOL   H682 5876   6.491   0.953   6.312  0.9385 -0.0318 -0.8446
    8MOL   H683 5877   6.557   1.024   6.168  0.3230  0.6422  0.3869
    8MOL   H684 5878   6.413   1.227   6.173  1.0489 -1.3254 -0.9878
    8MOL   H685 5879   6.343   1.084   6.123 -0.3885 -0.5190 -0.6479
    8MOL   H686 5880   6.338   1.204   6.413 -0.6706  0.8049  0.8833
    8MOL   H687 5881   6.247   1.066   6.345  1.5651 -1.4540 -0.6472
    8MOL   H688 5882   6.227   1.361   6.260  1.6830 -1.3342 -2.3899
    8MOL   H689 5883   6.134   1.221   6.187  0.0557  0.0308  0.4117
    8MOL   H690 5884   6.055   1.185   6.419  2.4398  0.1550  1.4375
    8MOL   H691 5885   5.982   1.315   6.317  0.6698  0.3669  0.2500
    8MOL   H692 5886   6.193   1.361   6.531 -0.4763 -1.7856 -0.7275
    8MOL   H693 5887   6.037   1.352   6.573 -1.1158  0.5244 -1.4781
    8MOL   H694 5888   6.161   1.553   6.371 -2.3405  2.3096 -1.1916
    8MOL   H695 5889   6.126   1.579   6.537  3.7248  0.8504 -2.0391
    8MOL   H696 5890   5.899   1.556   6.515  0.2185  1.2454  0.7380
    8MOL   H697 5891   5.912   1.521   6.340 -0.7880 -2.7351  1.9552
    8MOL   H698 5892   5.993   1.725   6.293  0.8336 -0.8721  0.1070
    8MOL   H699 5893   6.013   1.805   6.449 -0.3570 -0.5194  2.0879
    8MOL   H700 5894   5.770   1.791   6.498  3.5323 -0.7785  2.0960
    8MOL   H701 5895   5.746   1.718   6.345  1.4182 -1.4265  0.2044
    8MOL   H702 5896   5.859   1.950   6.257  1.1192 -0.9067  0.2252
    8MOL   H703 5897   5.855   2.005   6.422  0.3372 -1.0916  1.5001
    8MOL   H704 5898   5.593   1.897   6.387  0.9754 -1.9517 -1.6423
    8MOL   C705 5899   5.623   2.078   6.296  0.1786  0.4943  0.1065
    8MOL   O706 5900   5.695   2.155   6.229 -0.7321  0.3918 -0.4502
    8MOL   C707 5901   5.479   2.120   6.319  0.0617 -0.2680 -0.4441
    8MOL   C708 5902   5.413   2.180   6.190 -0.3716 -0.1350 -0.9370
    8MOL   C709 5903   5.272   2.226   6.236 -0.1154  0.6503 -0.0773
    8MOL   C710 5904   5.174   2.103   6.251  0.9661 -0.8587 -0.0485
    8MOL   C711 5905   5.109   2.042   6.116  0.9260  0.2152  0.5922
    8MOL   C712 5906   5.001   1.931   6.132 -0.1216 -0.2282 -0.7132
    8MOL   C713 5907   4.956   1.894   5.993  0.5769 -0.0177  0.2841
    8MOL   C714 5908   4.838   1.800   5.988  0.2305 -0.4766  0.2198
    8MOL   C715 5909   4.800   1.732   5.853 -0.3095  0.0841 -0.3319
    8MOL   C716 5910   4.661   1.666   5.857 -0.5719  0.3463 -0.0537
    8MOL   C717 5911   4.616   1.594   5.730 -0.6046  0.4055  0.4180
    8MOL   N718 5912   4.469   1.573   5.729  0.6227 -0.2270 -1.1686
    8MOL   H719 5913   5.487   2.200   6.393 -2.6546 -1.3512  1.1018
    8MOL   H720 5914   5.412   2.047   6.363 -0.4928 -0.9703 -2.4158
    8MOL   H721 5915   5.470   2.261   6.147 -1.2700  1.1895  0.3075
    8MOL   H722 5916   5.407   2.108   6.109  0.7293  0.3509 -1.4568
    8MOL   H723 5917   5.225   2.281   6.154 -0.7420 -0.3590 -0.4081
    8MOL   H724 5918   5.287   2.303   6.311 -0.1488 -0.6596  1.3027
    8MOL   H725 5919   5.225   2.020   6.301 -1.5968 -1.7363  1.2076
    8MOL   H726 5920   5.094   2.133   6.318  0.6765 -1.5078 -0.0995
    8MOL   H727 5921   5.191   1.982   6.076 -0.0167 -0.8802  0.2529
    8MOL   H728 5922   5.077   2.122   6.050  3.6699 -0.3967 -1.5960
    8MOL   H729 5923   4.924   1.974   6.196  1.1860  0.5590  0.3770
    8MOL   H730 5924   5.030   1.852   6.201  1.6585  0.7311 -0.3074
    8MOL   H731 5925   5.038   1.850   5.936  0.4506  1.2275 -0.8945
    8MOL   H732 5926   4.934   1.981   5.931 -3.4155 -0.3688  1.0848
    8MOL   H733 5927   4.750   1.853   6.025 -1.1954 -0.0817 -3.5418
    8MOL   H734 5928   4.848   1.728   6.069  3.0917  0.6850  0.9599
    8MOL   H735 5929   4.876   1.657   5.829  1.2243  0.7034  2.3356
    8MOL   H736 5930   4.800   1.810   5.777 -1.7042 -1.3973 -1.8867
    8MOL   H737 5931   4.597   1.750   5.886  1.4270  2.7022 -2.2198
    8MOL   H738 5932   4.659   1.590   5.935  0.6412  0.2880 -0.0808
    8MOL   H739 5933   4.672   1.501   5.724 -0.5794  0.2445  2.8729
    8MOL   H740 5934   4.634   1.655   5.641 -1.1008  1.4168  1.0000
    8MOL   H741 5935   4.451   1.516   5.648 -1.0522  0.0234 -0.9863
    8MOL   H742 5936   4.419   1.661   5.721 -0.5715 -0.6844  1.0163
    9MOL     C1 5937   2.153   2.339   6.950 -0.6391  0.0888 -0.1780
    9MOL     O2 5938   2.248   2.414   6.977 -0.4199  0.5575  0.2684
    9MOL     C3 5939   2.011   2.388   6.948 -0.2967  0.5869 -0.1167
    9MOL     C4 5940   1.995   2.545   6.954 -0.2931 -0.3034 -0.1788
    9MOL     C5 5941   1.872   2.592   6.875 -0.3705 -0.1362  0.0181
    9MOL     C6 5942   1.902   2.674   6.745  0.1235  0.4007 -0.3215
    9MOL     C7 5943   1.764   2.728   6.683 -0.3192 -0.7814 -0.3586
    9MOL     C8 5944   1.779   2.806   6.553  0.0479  0.3098  0.2432
    9MOL     C9 5945   1.646   2.835   6.481 -0.4486 -0.0653  0.0183
    9MOL    C10 5946   1.648   2.917   6.345  0.2363 -0.1385  0.5616
    9MOL    C11 5947   1.700   3.058   6.369 -0.0870  0.5572 -0.3063
    9MOL    C12 5948   1.599   3.148   6.437  0.9814 -0.0372 -0.3715
    9MOL    C13 5949   1.651   3.293   6.463  0.8824  0.6366  0.0358
    9MOL    N14 5950   1.560   3.381   6.526 -0.2468 -0.2166  0.1161
    9MOL    H15 5951   1.940   2.353   7.024 -0.6159  0.5441 -0.4323
    9MOL    H16 5952   1.976   2.357   6.850  1.5816 -1.5540 -0.1471
    9MOL    H17 5953   1.974   2.569   7.058  1.4756  0.1178  0.0887
    9MOL    H18 5954   2.082   2.605   6.929  0.2049 -0.5906  0.8548
    9MOL    H19 5955   1.815   2.648   6.949 -0.2072 -0.5957  0.5014
    9MOL    H20 5956   1.811   2.507   6.844  1.2586 -1.2309 -0.2293
    9MOL    H21 5957   1.982   2.746   6.765  0.1810  0.0953  0.5736
    9MOL    H22 5958   1.955   2.623   6.665 -1.9907 -1.0849 -0.8128
    9MOL    H23 5959   1.704   2.781   6.756 -0.2785 -1.4511  0.1721
    9MOL    H24 5960   1.714   2.637   6.648  1.1994 -1.5060 -0.7353
    9MOL    H25 5961   1.844   2.755   6.482  2.1145  1.9160  0.9397
    9MOL    H26 5962   1.839   2.888   6.591  0.0634 -0.8236  2.7213
    9MOL    H27 5963   1.583   2.887   6.554 -0.3107  1.0628 -0.6508
    9MOL    H28 5964   1.603   2.738   6.457  1.3643 -0.8625 -0.0783
    9MOL    H29 5965   1.553   2.906   6.293  0.7257  0.2128 -0.4120
    9MOL    H30 5966   1.721   2.874   6.276 -0.4605 -1.2060  0.4700
    9MOL    H31 5967   1.740   3.111   6.282 -0.4330  1.9406  0.3634
    9MOL    H32 5968   1.782   3.055   6.440 -1.0265  1.7785  0.8483
    9MOL    H33 5969   1.559   3.114   6.532 -0.5879  0.5052 -0.8254
    9MOL    H34 5970   1.510   3.151   6.374  0.1059  1.3313  0.9048
    9MOL    H35 5971   1.687   3.326   6.366  0.6850  1.6878  0.3160
    9MOL    H36 5972   1.737   3.288   6.530  0.7737  1.0809  0.2082
    9MOL    H37 5973   1.480   3.411   6.473  1.6645  3.5007 -0.8257
    9MOL    H38 5974   2.158   2.230   6.941  1.3937 -0.0657  2.1226
    9MOL    C39 5975   1.568   3.438   6.651 -0.3335  0.3534 -0.6408
    9MOL    O40 5976   1.657   3.407   6.733  0.0962 -0.0383  0.3594
    9MOL    C41 5977   1.454   3.523   6.698 -0.1749 -0.3266 -0.1772
    9MOL    C42 5978   1.362   3.457   6.814  0.3313  0.2775  0.1855
    9MOL    C43 5979   1.436   3.435   6.953  0.0365  0.4314  0.4410
    9MOL    C44 5980   1.486   3.566   7.018  1.0578  0.4968  0.2077
    9MOL    C45 5981   1.576   3.544   7.140 -0.7630  0.1712 -0.5972
    9MOL    C46 5982   1.501   3.505   7.270 -0.2476  0.8545 -0.2778
    9MOL    C47 5983   1.590   3.462   7.387 -0.5715  0.3705  0.2771
    9MOL    C48 5984   1.503   3.439   7.513 -0.9969  0.1617  0.4012
    9MOL    C49 5985   1.586   3.440   7.641  0.8059  0.4728  0.1956
    9MOL    C50 5986   1.500   3.380   0.064  0.1096 -0.3509  0.3273
    9MOL    C51 5987   1.580   3.358   0.192  0.7806  0.3903  0.1944
    9MOL    N52 5988   1.507   3.265   0.279 -0.0014 -0.4564  0.1030
    9MOL    H53 5989   1.393   3.528   6.608 -1.0988 -0.1367  0.4519
    9MOL    H54 5990   1.480   3.629   6.707 -1.6747  0.1357 -1.0590
    9MOL    H55 5991   1.274   3.517   6.838 -0.8013 -0.7877 -1.1816
    9MOL    H56 5992   1.326   3.362   6.774  0.8201  1.3031 -2.8134
    9MOL    H57 5993   1.527   3.380   6.928  0.5392  1.1944  0.5604
    9MOL    H58 5994   1.364   3.382   7.015 -1.0035 -0.1800 -1.2556
    9MOL    H59 5995   1.542   3.618   6.940  1.8801 -0.4844  0.1278
    9MOL    H60 5996   1.398   3.619   7.054 -0.7802 -1.7382 -0.8338
    9MOL    H61 5997   1.644   3.627   7.155  1.6390 -1.7019 -0.8057
    9MOL    H62 5998   1.645   3.462   7.120 -0.1122  0.1248  1.6742
    9MOL    H63 5999   1.424   3.432   7.247  0.3160 -0.8024  2.8698
    9MOL    H64 6000   1.445   3.593   7.302  0.4620  0.6506  1.5410
    9MOL    H65 6001   1.658   3.545   7.405 -0.3133  0.2158  0.0229
    9MOL    H66 6002   1.645   3.373   7.357 -2.0943 -0.0617 -1.3735
    9MOL    H67 6003   1.450   3.345   7.497 -1.4983 -0.0951  3.3345
    9MOL    H68 6004   1.429   3.518   7.525 -1.0664 -0.0359  1.2573
    9MOL    H69 6005   1.626   3.536   7.675 -1.3438  1.0752  1.0714
    9MOL    H70 6006   1.674   3.376   7.633  0.8030  0.4507  0.3350
    9MOL    H71 6007   1.454   3.288   0.028  2.1344 -0.4909 -2.0530
    9MOL    H72 6008   1.424   3.452   0.095  0.3177  0.1128 -0.2372
    9MOL    H73 6009   1.583   3.455   0.242  0.0201  0.8234 -0.6020
    9MOL    H74 6010   1.681   3.320   0.177  0.5452 -1.7001  3.3029
    9MOL    H75 6011   1.448   3.286   0.359 -0.7476  2.2247 -1.0806
    9MOL    C76 6012   1.507   3.131   0.261 -0.6565 -0.1402 -0.4400
    9MOL    O77 6013   1.598   3.082   0.192  0.0485  0.2593 -0.3134
    9MOL    C78 6014   1.408   3.039   0.339  0.2879  0.4945  0.0526
    9MOL    C79 6015   1.324   2.949   0.243  0.0063 -0.1410  0.0099
    9MOL    C80 6016   1.225   3.037   0.166  0.0788 -0.4329 -0.2213
    9MOL    C81 6017   1.133   2.954   0.072 -0.7587 -0.3107  0.2203
    9MOL    C82 6018   1.054   3.052   7.675 -0.5714 -0.2297 -0.2062
    9MOL    C83 6019   0.972   2.984   7.567  0.4403  0.4205  0.1894
    9MOL    C84 6020   1.059   2.909   7.459  0.7265 -1.0453  0.0359
    9MOL    C85 6021   0.977   2.869   7.332  0.3111  0.3412  0.4537
    9MOL    C86 6022   1.048   2.781   7.228  0.4724  0.5635  0.1367
    9MOL    C87 6023   0.954   2.753   7.107  0.3256  0.8201  0.7114
    9MOL    C88 6024   1.013   2.659   7.001 -0.3459  0.1086 -0.1410
    9MOL    N89 6025   0.914   2.632   6.902  0.8537 -0.2695  0.4952
    9MOL    H90 6026   1.348   3.099   0.408  0.4470  0.7504 -0.0285
    9MOL    H91 6027   1.465   2.975   0.405 -0.7388 -0.3878  0.0962
    9MOL    H92 6028   1.381   2.889   0.172  2.8238 -0.1237  2.1829
    9MOL    H93 6029   1.268   2.872   0.298 -0.3656 -1.1014 -1.6867
    9MOL    H94 6030   1.282   3.112   0.112  0.6958  0.3403  1.4789
    9MOL    H95 6031   1.166   3.101   0.232 -0.2412 -0.4442 -0.4962
    9MOL    H96 6032   1.203   2.888   0.021 -0.7169 -0.5870  0.6336
    9MOL    H97 6033   1.069   2.888   0.130  1.0344 -2.8911 -0.6826
    9MOL    H98 6034   1.121   3.129   7.635  1.3499  0.7474  4.5544
    9MOL    H99 6035   0.986   3.115   0.038 -2.4117 -1.3053 -1.1808
    9MOL   H100 6036   0.902   3.055   7.523 -0.1253  1.1358  2.1564
    9MOL   H101 6037   0.911   2.913   7.624 -1.5059  2.0795  0.2490
    9MOL   H102 6038   1.116   2.824   7.496 -1.9904 -2.3352  1.4008
    9MOL   H103 6039   1.140   2.979   7.436 -0.1760  1.1996  3.2996
    9MOL   H104 6040   0.939   2.959   7.283 -1.5962 -0.7326 -0.0903
    9MOL   H105 6041   0.883   2.816   7.352  0.1674  0.3747 -0.1257
    9MOL   H106 6042   1.077   2.690   7.280 -2.6651  0.1468  1.3067
    9MOL   H107 6043   1.130   2.837   7.183 -1.8520  3.4592 -0.6620
    9MOL   H108 6044   0.932   2.848   7.058 -1.6797 -0.6307 -1.3350
    9MOL   H109 6045   0.859   2.710   7.140 -1.0355  2.3640 -1.0201
    9MOL   H110 6046   1.025   2.569   7.061  2.5655  1.7441  1.8636
    9MOL   H111 6047   1.111   2.680   6.960 -0.8585  0.6080 -1.1177
    9MOL   H112 6048   0.828   2.591   6.935  1.5086  0.2287  2.8712
    9MOL   C113 6049   0.920   2.671   6.776 -0.0573  0.6016 -0.2561
    9MOL   O114 6050   1.011   2.721   6.718 -0.3918  0.0148  0.0924
    9MOL   C115 6051   0.792   2.628   6.695 -0.3572 -0.0403  0.0636
    9MOL   C116 6052   0.816   2.488   6.635  0.8083  0.4471  0.9975
    9MOL   C117 6053   0.739   2.389   6.710  0.0125 -0.2024  0.7083
    9MOL   C118 6054   0.761   2.242   6.650  0.7549 -0.3432 -0.1272
    9MOL   C119 6055   0.671   2.133   6.716  0.3541  0.8671 -0.1513
    9MOL   C120 6056   0.519   2.136   6.667 -0.4137  0.1541 -0.1664
    9MOL   C121 6057   0.504   2.087   6.527 -0.2559 -0.5584  0.2064
    9MOL   C122 6058   0.354   2.107   6.486  0.2485 -0.5175  0.0177
    9MOL   C123 6059   0.336   2.070   6.335  0.2376  0.0919 -0.3385
    9MOL   C124 6060   0.194   2.097   6.277  1.0121 -0.6250  0.3291
    9MOL   C125 6061   0.163   2.048   6.134  0.8274  0.6610 -0.5283
    9MOL   N126 6062   0.258   2.113   6.043 -0.2663  0.0847 -0.6075
    9MOL   H127 6063   0.760   2.705   6.625  1.3405 -0.4896 -1.2523
    9MOL   H128 6064   0.704   2.620   6.758 -0.8420  0.3361 -0.5570
    9MOL   H129 6065   0.780   2.495   6.533 -1.0443 -1.5778  1.4951
    9MOL   H130 6066   0.918   2.449   6.636  1.0632  1.0852  0.4496
    9MOL   H131 6067   0.635   2.412   6.686  0.0425  1.1186  1.7856
    9MOL   H132 6068   0.758   2.393   6.817  0.9558 -1.3372  0.5837
    9MOL   H133 6069   0.760   2.243   6.541 -0.1775 -0.9461 -0.1274
    9MOL   H134 6070   0.864   2.210   6.668  0.6350 -1.1755 -0.9077
    9MOL   H135 6071   0.672   2.142   6.825  0.7735  0.6004 -0.1344
    9MOL   H136 6072   0.716   2.038   6.691  0.6933  0.3972  2.1146
    9MOL   H137 6073   0.485   2.239   6.681  1.7753  1.0418 -1.1553
    9MOL   H138 6074   0.466   2.072   6.737  1.7777 -1.5493  0.0022
    9MOL   H139 6075   0.537   1.985   6.508 -0.5504 -0.5113 -0.6139
    9MOL   H140 6076   0.572   2.148   6.467  1.2733 -1.9412  0.4858
    9MOL   H141 6077   0.306   2.201   6.513 -0.6322 -1.0471  0.3488
    9MOL   H142 6078   0.300   2.027   6.537  0.7199 -0.5967  0.3963
    9MOL   H143 6079   0.354   1.964   6.319 -0.4762 -0.0135 -0.4821
    9MOL   H144 6080   0.412   2.114   6.270 -2.0213  1.1377 -2.3815
    9MOL   H145 6081   0.172   2.204   6.275  0.9993 -0.6447 -1.7574
    9MOL   H146 6082   0.124   2.050   6.347  0.8975 -1.7491 -0.5225
    9MOL   H147 6083   0.061   2.059   6.096  0.6494 -0.8217 -0.5272
    9MOL   H148 6084   0.187   1.941   6.132 -1.0494  0.1990  0.4170
    9MOL   H149 6085   0.253   2.214   6.039  1.5200  0.1809 -0.6320
    9MOL   C150 6086   0.359   2.055   5.980 -0.5696  0.9262  0.1273
    9MOL   O151 6087   0.390   1.935   5.984 -0.1392 -0.1792 -1.0906
    9MOL   C152 6088   0.440   2.143   5.877  1.2158 -0.2441 -0.1417
    9MOL   C153 6089   0.587   2.151   5.917 -0.4479  1.0704 -0.2771
    9MOL   C154 6090   0.627   2.195   6.066 -0.3910 -0.0960 -0.3951
    9MOL   C155 6091   0.769   2.255   6.081  0.1343  0.4017 -0.1675
    9MOL   C156 6092   0.811   2.265   6.228 -0.0294 -0.2218  0.2600
    9MOL   C157 6093   0.934   2.356   6.263  0.1067  0.2608 -0.1202
    9MOL   C158 6094   1.064   2.311   6.195  0.2643  0.0691  0.6188
    9MOL   C159 6095   1.186   2.396   6.226 -0.1711 -0.3706  1.1161
    9MOL   C160 6096   1.296   2.356   6.127 -0.0565  0.8710 -0.0712
    9MOL   C161 6097   1.420   2.442   6.153 -0.2493  0.2978 -0.4098
    9MOL   C162 6098   1.543   2.402   6.068 -0.0216  0.1367  0.3472
    9MOL   N163 6099   1.651   2.493   6.095 -0.0254 -0.4853  0.8991
    9MOL   H164 6100   0.409   2.246   5.892 -4.2505 -1.6858 -0.6022
    9MOL   H165 6101   0.423   2.110   5.775 -1.5335 -0.5572  0.3866
    9MOL   H166 6102   0.635   2.054   5.902 -1.7528  0.4083 -0.2636
    9MOL   H167 6103   0.634   2.229   5.857 -0.1271  0.8094 -0.3695
    9MOL   H168 6104   0.600   2.122   6.143  1.1912 -0.1709  0.0997
    9MOL   H169 6105   0.547   2.268   6.076 -3.1723 -3.0530 -0.2557
    9MOL   H170 6106   0.844   2.200   6.025  0.5850 -1.8593  2.5674
    9MOL   H171 6107   0.760   2.358   6.045  3.9530  0.4958 -1.0273
    9MOL   H172 6108   0.823   2.165   6.270  0.4944  0.5342  1.9761
    9MOL   H173 6109   0.728   2.315   6.278  0.2042  3.0821 -2.5077
    9MOL   H174 6110   0.947   2.337   6.370 -1.4590 -2.0260 -0.2899
    9MOL   H175 6111   0.914   2.462   6.250  0.4099  0.1893 -1.1928
    9MOL   H176 6112   1.056   2.309   6.086 -0.8602 -0.4767  0.7064
    9MOL   H177 6113   1.094   2.209   6.217 -0.7721 -0.1764  0.8749
    9MOL   H178 6114   1.211   2.385   6.332 -0.4677  0.2954  1.2531
    9MOL   H179 6115   1.148   2.498   6.223 -0.0497 -0.3713 -1.3998
    9MOL   H180 6116   1.263   2.380   6.026  0.1500 -1.8468 -0.8308
    9MOL   H181 6117   1.325   2.251   6.136 -2.4123  0.1323 -0.7095
    9MOL   H182 6118   1.439   2.426   6.260  0.6171 -2.4247 -0.9220
    9MOL   H183 6119   1.391   2.546   6.141  2.0557  0.9007 -0.9476
    9MOL   H184 6120   1.524   2.396   5.961 -0.2883 -1.1469  0.4580
    9MOL   H185 6121   1.572   2.303   6.103 -0.6207  0.0565  0.6242
    9MOL   H186 6122   1.664   2.569   6.029  0.2603 -0.2577  1.2168
    9MOL   C187 6123   1.755   2.475   6.177  0.3410  0.3398  0.4588
    9MOL   O188 6124   1.750   2.387   6.261  0.5618  0.4596  0.1988
    9MOL   C189 6125   1.870   2.574   6.167  0.1977 -0.1061 -0.1529
    9MOL   C190 6126   1.964   2.588   6.285  0.9670 -0.5722  0.6143
    9MOL   C191 6127   2.063   2.706   6.284  0.0441 -0.3226 -0.5497
    9MOL   C192 6128   2.176   2.694   6.183  0.3451 -0.0846  0.3740
    9MOL   C193 6129   2.266   2.814   6.165 -0.4484 -0.5389  0.4973
    9MOL   C194 6130   2.385   2.765   6.083  0.0281 -0.0681  0.2301
    9MOL   C195 6131   2.488   2.877   6.064  0.1962  0.1712  0.0526
    9MOL   C196 6132   2.584   2.857   5.946  0.4091 -0.6628 -0.2217
    9MOL   C197 6133   2.709   2.939   5.941 -0.5695 -0.9774  0.2510
    9MOL   C198 6134   2.688   3.085   5.892  0.1116 -0.2446 -0.3217
    9MOL   C199 6135   2.822   3.154   5.867  0.3417 -0.0144  0.5063
    9MOL   N200 6136   2.791   3.286   5.813 -0.2981  0.0993 -0.0748
    9MOL   H201 6137   1.828   2.674   6.153 -1.3336 -0.7706 -0.4059
    9MOL   H202 6138   1.923   2.547   6.075  0.6438  1.4462 -0.3665
    9MOL   H203 6139   1.911   2.587   6.380 -0.8737  0.4643 -0.3864
    9MOL   H204 6140   2.010   2.489   6.290 -1.0269 -1.4450  2.4911
    9MOL   H205 6141   2.114   2.705   6.380 -2.6011 -0.9902  0.8701
    9MOL   H206 6142   2.022   2.807   6.288  1.1418  0.0978  0.4050
    9MOL   H207 6143   2.232   2.605   6.211  1.2740 -0.5868 -2.8694
    9MOL   H208 6144   2.136   2.679   6.083 -0.8564  1.0517  0.6583
    9MOL   H209 6145   2.304   2.834   6.265 -1.8217 -0.9388  1.1092
    9MOL   H210 6146   2.213   2.901   6.125  0.6179 -0.5136 -0.9064
    9MOL   H211 6147   2.356   2.706   5.996 -1.2673 -0.5211  0.9564
    9MOL   H212 6148   2.432   2.692   6.148 -0.7624  0.7120  1.6961
    9MOL   H213 6149   2.542   2.903   6.156 -0.9360 -3.3763  1.8034
    9MOL   H214 6150   2.443   2.974   6.043  0.9788  0.1753 -1.6694
    9MOL   H215 6151   2.537   2.874   5.850 -0.9406  4.9542  1.2430
    9MOL   H216 6152   2.607   2.751   5.936  1.5527 -0.6557  2.0411
    9MOL   H217 6153   2.789   2.893   5.884  1.2157  0.2598  1.7099
    9MOL   H218 6154   2.744   2.941   6.044 -0.8178  1.6456  0.3157
    9MOL   H219 6155   2.623   3.150   5.951  0.5983 -0.0886  0.0488
    9MOL   H220 6156   2.630   3.086   5.799 -0.9060 -0.8084  0.2881
    9MOL   H221 6157   2.880   3.093   5.797  0.3301 -0.1383  0.6052
    9MOL   H222 6158   2.875   3.160   5.962  2.4483  0.1899 -0.6444
    9MOL   H223 6159   2.825   3.366   5.864  1.0867 -0.9113  0.6381
    9MOL   C224 6160   2.763   3.319   5.686 -0.7780  0.0700  0.1274
    9MOL   O225 6161   2.739   3.235   5.601 -0.3985  0.5600  0.1968
    9MOL   C226 6162   2.766   3.467   5.646 -0.7247  0.3773 -0.6274
    9MOL   C227 6163   2.716   3.499   5.504 -0.3882  0.0022  0.2034
    9MOL   C228 6164   2.674   3.644   5.494 -0.5327 -0.5564 -0.0108
    9MOL   C229 6165   2.646   3.691   5.345 -0.2698  0.1188  0.0489
    9MOL   C230 6166   2.607   3.836   5.340 -0.0372 -0.3940  0.0821
    9MOL   C231 6167   2.458   3.845   5.378  0.6366  0.2011  0.1813
    9MOL   C232 6168   2.416   3.985   5.391  0.6511 -0.3433  0.4690
    9MOL   C233 6169   2.420   4.068   5.261  0.3778  0.2791  0.2986
    9MOL   C234 6170   2.422   4.219   5.286 -0.1290 -0.0428  0.1741
    9MOL   C235 6171   2.557   4.279   5.334 -0.7158  0.2778 -0.1888
    9MOL   C236 6172   2.543   4.434   5.347 -0.2592 -0.3918 -0.2465
    9MOL   N237 6173   2.646   4.485   5.434  0.1711 -0.3420 -1.1866
    9MOL   H238 6174   2.869   3.496   5.665 -0.2775 -0.9553 -0.9623
    9MOL   H239 6175   2.700   3.516   5.716 -3.1624 -2.3537 -0.8912
    9MOL   H240 6176   2.789   3.467   5.430 -0.8362  0.6674 -0.5285
    9MOL   H241 6177   2.628   3.442   5.477  1.3524 -1.7803 -1.8896
    9MOL   H242 6178   2.754   3.706   5.535 -1.7871  1.4203 -0.4777
    9MOL   H243 6179   2.590   3.666   5.559  2.8453 -0.7249  4.6848
    9MOL   H244 6180   2.737   3.677   5.286  1.0625 -1.5151  2.4443
    9MOL   H245 6181   2.569   3.633   5.294  0.1805 -0.7110  0.3176
    9MOL   H246 6182   2.615   3.867   5.236  1.4755  0.1007  0.3458
    9MOL   H247 6183   2.680   3.889   5.401 -1.0926  2.2376 -0.8707
    9MOL   H248 6184   2.435   3.804   5.476 -2.7305  3.1078  0.7143
    9MOL   H249 6185   2.395   3.792   5.306  2.0379 -0.7554 -0.3679
    9MOL   H250 6186   2.461   4.046   5.470 -1.2977  0.5650  0.9295
    9MOL   H251 6187   2.314   3.993   5.431  0.4602  0.8102 -0.2072
    9MOL   H252 6188   2.325   4.049   5.210  1.4739 -3.9170 -0.3758
    9MOL   H253 6189   2.488   4.035   5.182  0.6953  1.2586  0.1552
    9MOL   H254 6190   2.337   4.252   5.346 -0.4217 -1.6510  0.6602
    9MOL   H255 6191   2.397   4.253   5.185 -1.2233  1.9098  1.0723
    9MOL   H256 6192   2.638   4.268   5.262 -0.6701  1.1766 -0.2710
    9MOL   H257 6193   2.585   4.238   5.431 -0.8268 -0.4481 -0.4543
    9MOL   H258 6194   2.444   4.467   5.380 -0.8321 -1.6882 -0.6043
    9MOL   H259 6195   2.572   4.476   5.250 -0.0962  0.2006  0.0586
    9MOL   H260 6196   2.671   4.429   5.514  1.7714  0.2474 -1.2536
    9MOL   C261 6197   2.731   4.593   5.425 -0.2405  0.5329  0.0295
    9MOL   O262 6198   2.724   4.672   5.334  0.3912  0.0970  0.0441
    9MOL   C263 6199   2.843   4.591   5.531  0.7280 -0.1816  0.4139
    9MOL   C264 6200   2.828   4.686   5.657 -0.3561  0.4943  0.0328
    9MOL   C265 6201   2.833   4.831   5.617  0.1424 -0.1280  0.2264
    9MOL   C266 6202   2.832   4.913   5.740 -0.5756 -1.3798 -0.9729
    9MOL   C267 6203   2.838   5.062   5.708  0.8055 -0.0354 -0.8595
    9MOL   C268 6204   2.798   5.141   5.839  0.0286 -1.0245 -0.1669
    9MOL   C269 6205   2.802   5.288   5.803 -0.5607  0.0346 -0.0866
    9MOL   C270 6206   2.793   5.385   5.926  0.3803  0.2524  0.1027
    9MOL   C271 6207   2.765   5.526   5.875  0.3243  0.0460  0.0428
    9MOL   C272 6208   2.616   5.554   5.848  0.3105 -0.0505 -0.4560
    9MOL   C273 6209   2.548   5.632   5.959  0.6845  0.1233  0.2114
    9MOL   N274 6210   2.408   5.641   5.928  0.3816 -0.1655  0.6154
    9MOL   H275 6211   2.937   4.618   5.484  1.0685 -1.3082  0.4340
    9MOL   H276 6212   2.854   4.489   5.569  0.3029 -0.2042  0.4837
    9MOL   H277 6213   2.733   4.655   5.700 -0.5954  1.9999  0.5904
    9MOL   H278 6214   2.907   4.660   5.728  0.0247  1.5205 -0.0122
    9MOL   H279 6215   2.748   4.854   5.553  1.5816 -1.1187 -2.1243
    9MOL   H280 6216   2.929   4.837   5.564  0.2816 -0.8652  0.3783
    9MOL   H281 6217   2.736   4.893   5.786  0.2865 -0.1946  1.3917
    9MOL   H282 6218   2.901   4.877   5.816 -2.0051 -2.6198 -0.2522
    9MOL   H283 6219   2.773   5.092   5.625 -1.8006  0.7523  1.3863
    9MOL   H284 6220   2.938   5.091   5.675  0.7918  1.1067  0.0578
    9MOL   H285 6221   2.865   5.123   5.923 -1.8346 -0.7922  1.3895
    9MOL   H286 6222   2.697   5.120   5.874 -0.7717  2.0390 -0.4942
    9MOL   H287 6223   2.717   5.307   5.738 -0.6511 -0.9772 -0.2747
    9MOL   H288 6224   2.898   5.302   5.752 -0.7240 -2.1348 -1.0428
    9MOL   H289 6225   2.894   5.386   5.968  1.1334 -0.9327 -1.6448
    9MOL   H290 6226   2.723   5.344   5.998 -1.5959  1.6460 -0.9661
    9MOL   H291 6227   2.827   5.547   5.788 -1.9848  0.6490 -1.5220
    9MOL   H292 6228   2.806   5.597   5.947 -0.2867  1.6212 -1.1315
    9MOL   H293 6229   2.572   5.455   5.837 -0.1366  0.0546  0.3366
    9MOL   H294 6230   2.606   5.608   5.754  1.5577  1.5393  0.3110
    9MOL   H295 6231   2.578   5.736   5.947 -1.0850  0.6742  0.3266
    9MOL   H296 6232   2.565   5.589   6.057 -0.6827  1.2889  0.9911
    9MOL   H297 6233   2.381   5.692   5.845  2.0227  1.2325  0.9107
    9MOL   C298 6234   2.306   5.592   5.997  0.3574 -0.0389  0.1562
    9MOL   O299 6235   2.326   5.544   6.110  0.0480  0.3453 -0.3362
    9MOL   C300 6236   2.158   5.603   5.948  0.0483 -0.1589 -0.1248
    9MOL   C301 6237   2.055   5.553   6.043 -0.5223  0.0010 -0.0567
    9MOL   C302 6238   2.054   5.402   6.061 -0.2112  0.0907 -0.3124
    9MOL   C303 6239   1.956   5.364   6.166  0.2415  0.0782  0.4060
    9MOL   C304 6240   1.908   5.220   6.160  0.1934 -0.1115  0.2496
    9MOL   C305 6241   1.853   5.167   6.289  0.1980  0.3928  0.2779
    9MOL   C306 6242   1.824   5.016   6.291  0.0072  0.1665 -0.1580
    9MOL   C307 6243   1.724   4.984   6.403  0.5426  0.1020 -0.4973
    9MOL   C308 6244   1.718   4.843   6.457  0.5417 -0.1849  0.0256
    9MOL   C309 6245   1.701   4.732   6.360 -0.0401  0.6576 -0.5333
    9MOL   C310 6246   1.666   4.604   6.439  0.0195  0.3816  0.3607
    9MOL   N311 6247   1.657   4.493   6.358 -0.2612  0.5485  0.1565
    9MOL   H312 6248   2.147   5.536   5.862 -1.6657 -1.2312  0.9061
    9MOL   H313 6249   2.142   5.707   5.920  2.3066  0.9035  2.3534
    9MOL   H314 6250   2.066   5.603   6.139 -0.7788 -1.0989  0.5573
    9MOL   H315 6251   1.953   5.568   6.006 -0.5095  1.5206  0.4856
    9MOL   H316 6252   2.150   5.362   6.094 -0.3365  0.6645  0.7544
    9MOL   H317 6253   2.029   5.352   5.967 -2.3543 -1.0750  0.8591
    9MOL   H318 6254   2.019   5.373   6.255  1.2894 -2.4202 -0.0382
    9MOL   H319 6255   1.875   5.436   6.173 -2.4702 -2.5402 -2.4137
    9MOL   H320 6256   1.999   5.161   6.151  0.3828  0.2023  0.1096
    9MOL   H321 6257   1.844   5.188   6.078 -0.8748 -0.5053  1.2160
    9MOL   H322 6258   1.754   5.208   6.307 -0.5092 -1.0278 -0.3036
    9MOL   H323 6259   1.912   5.202   6.374 -1.0725 -0.1351  1.4045
    9MOL   H324 6260   1.915   4.957   6.300 -1.0377 -1.3109  0.8653
    9MOL   H325 6261   1.780   5.000   6.192  2.5437  1.0151 -1.4658
    9MOL   H326 6262   1.623   5.010   6.372 -0.3070 -0.2503  1.8773
    9MOL   H327 6263   1.752   5.055   6.480  0.5456  0.6389 -0.9937
    9MOL   H328 6264   1.638   4.847   6.531  2.0412  1.1080  1.6237
    9MOL   H329 6265   1.808   4.823   6.515  0.0598  0.5258  1.0497
    9MOL   H330 6266   1.792   4.730   6.299  1.4351 -1.5007  1.6695
    9MOL   H331 6267   1.619   4.764   6.295  0.2648  2.5091 -0.0354
    9MOL   H332 6268   1.578   4.616   6.502  0.4579 -2.1633  1.5242
    9MOL   H333 6269   1.745   4.583   6.511  2.2324  1.6475 -1.5894
    9MOL   H334 6270   1.748   4.464   6.325 -1.2283  0.5204 -2.5969
    9MOL   C335 6271   1.549   4.438   6.294 -0.4048  0.4076 -0.0558
    9MOL   O336 6272   1.437   4.478   6.312  0.2072  0.0358 -0.3642
    9MOL   C337 6273   1.584   4.315   6.214 -0.1017  0.5111 -0.5536
    9MOL   C338 6274   1.600   4.192   6.304  0.0129 -0.1934  0.0612
    9MOL   C339 6275   1.469   4.162   6.375 -0.0243 -0.2226 -0.9959
    9MOL   C340 6276   1.469   4.025   6.445 -0.5782 -0.3226 -0.5031
    9MOL   C341 6277   1.330   4.007   6.504 -0.5659  0.5524 -0.2406
    9MOL   C342 6278   1.315   3.869   6.575 -0.4218 -0.2034  0.1732
    9MOL   C343 6279   1.191   3.879   6.661 -0.1341  0.7996 -0.3850
    9MOL   C344 6280   1.181   3.766   6.759 -0.3847  0.0833  0.4735
    9MOL   C345 6281   1.073   3.794   6.859 -0.1756 -0.3025  0.0615
    9MOL   C346 6282   1.046   3.685   6.966 -0.3582  0.1010 -0.3350
    9MOL   C347 6283   1.001   3.740   7.101  0.4398 -0.4195 -0.2917
    9MOL   N348 6284   0.963   3.637   7.199 -0.1676 -0.2192 -0.2306
    9MOL   H349 6285   1.670   4.329   6.148  0.3470  0.9790  0.1174
    9MOL   H350 6286   1.507   4.298   6.139 -0.1669  2.4395 -0.9678
    9MOL   H351 6287   1.627   4.114   6.232 -1.2706  1.0130 -1.7664
    9MOL   H352 6288   1.688   4.198   6.368 -0.8640 -1.1574  1.3842
    9MOL   H353 6289   1.383   4.172   6.309 -1.0910 -0.4213  0.3374
    9MOL   H354 6290   1.462   4.238   6.453  0.5194 -1.6798  0.4940
    9MOL   H355 6291   1.491   3.949   6.370  0.5614  0.5363 -1.0467
    9MOL   H356 6292   1.545   4.020   6.523 -1.8294  0.2943  0.7919
    9MOL   H357 6293   1.257   4.017   6.424 -0.8883  0.0170 -0.0158
    9MOL   H358 6294   1.308   4.089   6.573  0.2504 -1.5951  2.6994
    9MOL   H359 6295   1.404   3.845   6.633 -1.5931 -0.5741  1.8847
    9MOL   H360 6296   1.325   3.788   6.503 -0.7380  0.0200 -0.1249
    9MOL   H361 6297   1.108   3.872   6.591  0.6990  0.1275 -1.3076
    9MOL   H362 6298   1.180   3.974   6.713  1.1440  1.1407 -0.7263
    9MOL   H363 6299   1.273   3.747   6.814 -1.1587  0.2748  1.8558
    9MOL   H364 6300   1.168   3.672   6.704  0.9425  0.4184 -0.4406
    9MOL   H365 6301   0.980   3.818   6.808  0.9527  1.1290 -1.3771
    9MOL   H366 6302   1.099   3.888   6.908  1.1990 -1.0286  0.7479
    9MOL   H367 6303   1.136   3.624   6.968  1.3459  2.5741 -0.0285
    9MOL   H368 6304   0.965   3.619   6.933 -1.2116 -0.1697  2.2320
    9MOL   H369 6305   0.925   3.817   7.090 -0.5643 -1.4139 -0.3339
    9MOL   H370 6306   1.081   3.795   7.151 -1.7073  0.4376  2.2466
    9MOL   H371 6307   0.866   3.608   7.201 -0.1784 -0.5762 -3.7413
    9MOL   C372 6308   1.044   3.587   7.302  0.6916  0.4545 -1.2892
    9MOL   O373 6309   1.163   3.626   7.313 -0.2115  0.0169  0.1289
    9MOL   C374 6310   0.977   3.484   7.388 -0.2126  0.0302 -0.1654
    9MOL   C375 6311   1.053   3.446   7.512 -0.1392 -0.9769  0.1287
    9MOL   C376 6312   1.043   3.552   7.629  0.4259 -0.6189  0.3036
    9MOL   C377 6313   1.078   3.493   0.070 -0.0755 -0.2313 -0.4055
    9MOL   C378 6314   1.037   3.588   0.186  0.1156  0.7441  0.0877
    9MOL   C379 6315   1.079   3.548   0.331  0.5361 -0.2878  0.4606
    9MOL   C380 6316   0.973   3.451   0.386 -0.8750 -0.1476  0.4607
    9MOL   C381 6317   1.009   3.406   0.532 -0.9014  0.0225  0.1901
    9MOL   C382 6318   0.901   3.318   0.604 -0.1547 -0.1131  0.0218
    9MOL   C383 6319   0.778   3.388   0.653  0.2084 -0.5833 -0.6418
    9MOL   C384 6320   0.661   3.291   0.658 -0.1763  0.1685  0.0161
    9MOL   N385 6321   0.553   3.353   0.731  0.3084 -0.0889 -0.2279
    9MOL   H386 6322   0.965   3.401   7.319 -0.4354  0.7457 -0.9986
    9MOL   H387 6323   0.880   3.518   7.425  0.2060  2.5129 -1.2868
    9MOL   H388 6324   1.013   3.352   7.550 -0.2279 -1.0482 -0.1460
    9MOL   H389 6325   1.158   3.436   7.487 -0.3061  0.8175 -1.3635
    9MOL   H390 6326   0.941   3.591   7.621  0.8284  0.3229 -0.3289
    9MOL   H391 6327   1.090   3.649   7.610 -2.2532  0.7075  0.1552
    9MOL   H392 6328   1.029   3.397   0.084 -1.7112  0.6161 -0.1722
    9MOL   H393 6329   1.185   3.471   0.078 -0.3038 -1.8125 -1.5341
    9MOL   H394 6330   0.931   3.613   0.179 -0.3734 -1.6002 -1.4247
    9MOL   H395 6331   1.089   3.682   0.169 -0.8683  1.1584 -0.6983
    9MOL   H396 6332   1.077   3.640   0.389 -1.2581 -0.5091  0.7859
    9MOL   H397 6333   1.179   3.505   0.326  0.2092 -0.9380 -0.9654
    9MOL   H398 6334   0.963   3.357   0.331  0.0053 -0.6691  1.1684
    9MOL   H399 6335   0.880   3.507   0.377 -0.6090  0.1595 -0.4553
    9MOL   H400 6336   1.034   3.483   0.604  1.8333  1.0436 -1.7444
    9MOL   H401 6337   1.103   3.350   0.524  0.2984  2.0652 -0.4488
    9MOL   H402 6338   0.948   3.252   0.677  0.5582 -1.7654 -1.8879
    9MOL   H403 6339   0.866   3.247   0.529 -1.1688 -1.0119  1.3433
    9MOL   H404 6340   0.748   3.456   0.573  0.2383 -0.6845 -0.7394
    9MOL   H405 6341   0.817   3.439   0.741 -1.8882 -0.3968  0.2075
    9MOL   H406 6342   0.679   3.187   0.686 -1.4426 -0.4546 -1.3896
    9MOL   H407 6343   0.620   3.280   0.557 -2.8436  1.5872  0.9144
    9MOL   H408 6344   0.527   3.314   0.820  0.6924  0.6699  0.2261
    9MOL   C409 6345   0.471   3.454   0.692 -0.9853 -0.5123  0.2994
    9MOL   O410 6346   0.488   3.502   0.581 -0.4522 -0.1544  0.4862
    9MOL   C411 6347   0.368   3.519   0.788  0.1356 -0.4278  0.2775
    9MOL   C412 6348   0.335   3.672   0.765 -0.3091 -0.1322  0.1841
    9MOL   C413 6349   0.445   3.782   0.777 -0.0284  0.1617  0.3848
    9MOL   C414 6350   0.488   3.811   0.926  0.4983  0.3016  0.0997
    9MOL   C415 6351   0.590   3.711   0.971 -0.2885  0.1344 -0.4729
    9MOL   C416 6352   0.577   3.679   1.118  0.1109 -0.0908 -0.1824
    9MOL   C417 6353   0.448   3.603   1.147  0.1864 -0.6322 -0.7581
    9MOL   C418 6354   0.433   3.571   1.300 -0.1457  0.4254 -0.1475
    9MOL   C419 6355   0.311   3.493   1.350  0.3442  0.5399  0.4942
    9MOL   C420 6356   0.272   3.363   1.279  0.5061 -0.5294 -0.4225
    9MOL   C421 6357   0.386   3.256   1.288  0.4328 -0.0076  0.3303
    9MOL   N422 6358   0.356   3.139   1.205  0.5713 -0.3869 -0.0775
    9MOL   H423 6359   0.390   3.505   0.894 -2.2904 -3.1309  0.5035
    9MOL   H424 6360   0.278   3.463   0.762  0.1816 -0.4078  0.0767
    9MOL   H425 6361   0.303   3.676   0.661  1.8909 -0.6940 -0.5397
    9MOL   H426 6362   0.240   3.690   0.815  0.2129 -2.7077  2.1957
    9MOL   H427 6363   0.412   3.867   0.718  0.0624 -0.0651  0.0044
    9MOL   H428 6364   0.528   3.743   0.717  0.2805  2.8240 -1.0037
    9MOL   H429 6365   0.539   3.906   0.944 -1.2378  1.3320 -0.2468
    9MOL   H430 6366   0.399   3.827   0.986  0.1467 -1.5858  0.1027
    9MOL   H431 6367   0.693   3.742   0.954  0.1741 -0.2999  1.4706
    9MOL   H432 6368   0.579   3.619   0.912 -1.8170  1.6515 -2.6339
    9MOL   H433 6369   0.572   3.765   1.185 -0.7686  0.3287 -0.7850
    9MOL   H434 6370   0.669   3.636   1.157 -0.3626 -1.6499 -0.7439
    9MOL   H435 6371   0.453   3.515   1.082 -1.0128  0.2044 -1.9938
    9MOL   H436 6372   0.358   3.663   1.131 -0.7624 -1.9840 -0.5651
    9MOL   H437 6373   0.463   3.659   1.357 -0.5901 -0.0185  0.7852
    9MOL   H438 6374   0.518   3.503   1.310 -0.3934  0.4327  2.5553
    9MOL   H439 6375   0.224   3.557   1.335 -1.3925 -1.9756 -0.5102
    9MOL   H440 6376   0.326   3.471   1.456 -0.8607 -1.3582  0.2922
    9MOL   H441 6377   0.245   3.381   1.175 -0.6267 -0.7950 -0.1764
    9MOL   H442 6378   0.188   3.312   1.327 -0.0686  1.3440  0.6681
    9MOL   H443 6379   0.403   3.215   1.387 -2.0619  0.5166  1.0217
    9MOL   H444 6380   0.480   3.297   1.252 -0.0865  1.0653  0.1821
    9MOL   H445 6381   0.295   3.066   1.238  0.1151 -0.1692 -0.4395
    9MOL   C446 6382   0.383   3.123   1.076  0.0191 -0.4371 -0.7953
    9MOL   O447 6383   0.463   3.193   1.013 -0.3585 -0.4206  0.9065
    9MOL   C448 6384   0.312   3.007   1.012 -0.5354  0.8323 -0.2491
    9MOL   C449 6385   0.325   2.983   0.861 -0.1826 -0.0228  0.3890
    9MOL   C450 6386   0.464   2.939   0.819 -0.7606  0.0183 -0.3434
    9MOL   C451 6387   0.475   2.895   0.677  0.2564 -1.0828 -0.1859
    9MOL   C452 6388   0.442   3.014   0.567 -0.0174 -0.5017 -0.6440
    9MOL   C453 6389   0.376   2.970   0.437  0.0871  0.0823 -1.5369
    9MOL   C454 6390   0.342   3.098   0.359  0.7214  0.1774  0.7537
    9MOL   C455 6391   0.285   3.067   0.223  0.2089 -0.4539 -0.2010
    9MOL   C456 6392   0.138   3.025   0.227  0.1175  0.3074  0.0092
    9MOL   C457 6393   0.095   2.923   0.117  0.3661 -0.1679  0.6287
    9MOL   C458 6394   0.086   2.995   7.668 -0.1508 -0.3517 -0.5542
    9MOL   N459 6395   0.068   2.905   7.558 -0.1803 -0.5977  0.0679
    9MOL   H460 6396   0.205   3.015   1.028 -0.8134 -0.2359 -1.4713
    9MOL   H461 6397   0.352   2.921   1.065  1.9331  2.2452  0.2599
    9MOL   H462 6398   0.243   2.916   0.838 -0.8705  0.9217  0.0661
    9MOL   H463 6399   0.306   3.080   0.815  0.8550  1.4253  2.8808
    9MOL   H464 6400   0.477   2.843   0.869  0.3945  1.2962  1.8872
    9MOL   H465 6401   0.540   3.014   0.842  1.8714 -2.6123 -0.2229
    9MOL   H466 6402   0.581   2.873   0.668  0.8045  0.5592  1.7881
    9MOL   H467 6403   0.413   2.807   0.661  0.1959 -1.3610  1.4888
    9MOL   H468 6404   0.535   3.069   0.551  1.3643 -2.7922 -0.6410
    9MOL   H469 6405   0.377   3.085   0.618  1.3000 -0.8736  1.6237
    9MOL   H470 6406   0.284   2.921   0.466  0.9605 -0.9123 -0.3813
    9MOL   H471 6407   0.444   2.906   0.381  0.8755 -2.2636  1.9493
    9MOL   H472 6408   0.435   3.153   0.344 -0.0084  1.6554  1.5266
    9MOL   H473 6409   0.270   3.159   0.412 -0.2000 -0.5584  0.3653
    9MOL   H474 6410   0.349   2.997   0.169  1.4517  0.3563  0.2020
    9MOL   H475 6411   0.294   3.153   0.156 -2.6960  1.6817  1.9791
    9MOL   H476 6412   0.075   3.114   0.224  1.1007  0.9688 -1.2855
    9MOL   H477 6413   0.115   2.977   0.322 -1.0288 -1.3475 -1.0893
    9MOL   H478 6414   7.693   2.885   0.152  0.5427 -1.8210 -0.6471
    9MOL   H479 6415   0.159   2.834   0.119  0.1635 -0.3191  0.2841
    9MOL   H480 6416   0.169   3.063   7.650  0.8772 -0.6331  2.8609
    9MOL   H481 6417   7.690   3.057   7.679 -2.1829 -3.2316 -0.3347
    9MOL   H482 6418   0.151   2.855   7.530 -0.3931 -0.3638 -0.9761
    9MOL   C483 6419   7.655   2.878   7.485 -0.6715 -0.2249 -0.4872
    9MOL   O484 6420   7.559   2.955   7.477  0.0545 -0.3992 -0.0403
    9MOL   C485 6421   7.647   2.738   7.426 -0.0890 -0.2588  0.5110
    9MOL   C486 6422   7.508   2.684   7.426  0.1580  0.0922  0.1729
    9MOL   C487 6423   7.429   2.714   7.295  0.6043  0.6238 -0.6029
    9MOL   C488 6424   7.286   2.652   7.303 -0.7882 -0.0867  0.0997
    9MOL   C489 6425   7.198   2.655   7.174 -0.0500  0.1826 -0.2586
    9MOL   C490 6426   7.070   2.588   7.198  0.3990 -0.0841  0.7840
    9MOL   C491 6427   6.986   2.592   7.072  0.8956  0.0248  0.4136
    9MOL   C492 6428   6.872   2.482   7.067  0.1516 -0.0977  0.3127
    9MOL   C493 6429   6.821   2.458   6.929 -0.0981  0.3806 -0.7976
    9MOL   C494 6430   6.727   2.338   6.912  0.2492  0.0938 -0.2580
    9MOL   C495 6431   6.691   2.319   6.763 -0.2145 -0.1276  0.2650
    9MOL   N496 6432   6.617   2.434   6.713 -0.3034 -0.4587 -0.2037
    9MOL   H497 6433   0.015   2.667   7.480  0.5176  0.8816  1.3231
    9MOL   H498 6434   7.683   2.753   7.324 -0.7991 -0.8176  0.1716
    9MOL   H499 6435   7.523   2.576   7.433  0.4232 -0.2196 -3.8490
    9MOL   H500 6436   7.454   2.711   7.516 -0.6416  1.0309 -0.5712
    9MOL   H501 6437   7.480   2.684   7.203  0.6725 -0.8955 -0.0953
    9MOL   H502 6438   7.401   2.819   7.296  0.7354  0.6544 -0.3715
    9MOL   H503 6439   7.303   2.545   7.317 -1.4470 -0.1608  0.3792
    9MOL   H504 6440   7.226   2.685   7.388  1.0841  3.1832  0.2120
    9MOL   H505 6441   7.260   2.615   7.094  0.8056 -0.4269  0.7012
    9MOL   H506 6442   7.189   2.761   7.149  0.8270  0.0245 -1.2722
    9MOL   H507 6443   7.011   2.639   7.275  0.0747 -0.8457  1.0369
    9MOL   H508 6444   7.082   2.486   7.234  2.1981 -0.9298 -2.0724
    9MOL   H509 6445   7.048   2.585   6.983 -0.9539 -2.7952 -0.6998
    9MOL   H510 6446   6.942   2.691   7.058  2.3610  0.2659 -2.7865
    9MOL   H511 6447   6.789   2.495   7.136 -0.1291 -1.6718  0.2883
    9MOL   H512 6448   6.920   2.388   7.093 -2.8767 -2.2460 -1.5099
    9MOL   H513 6449   6.901   2.446   6.857 -0.6176  0.1444 -1.3393
    9MOL   H514 6450   6.777   2.550   6.889 -1.1358  0.1355 -0.2575
    9MOL   H515 6451   6.644   2.365   6.977  0.8551 -1.9905  1.4680
    9MOL   H516 6452   6.782   2.253   6.954  0.3584  1.5678  2.7038
    9MOL   H517 6453   6.625   2.233   6.748 -0.7923  0.3396  0.1422
    9MOL   H518 6454   6.780   2.302   6.702  1.0729 -0.5711  2.1755
    9MOL   H519 6455   6.673   2.511   6.679 -1.4480  0.2379 -0.5429
    9MOL   C520 6456   6.484   2.448   6.728  0.3345  0.3459  0.4888
    9MOL   O521 6457   6.405   2.365   6.775  0.8286  0.2396 -0.3580
    9MOL   C522 6458   6.434   2.586   6.702  0.1105  0.4666 -0.8529
    9MOL   C523 6459   6.320   2.637   6.808 -0.3748  0.6232  0.8702
    9MOL   C524 6460   6.370   2.658   6.957  0.0377 -0.2281 -0.1353
    9MOL   C525 6461   6.495   2.742   6.961 -0.3930  0.0988 -0.2943
    9MOL   C526 6462   6.529   2.773   7.107  0.1099  0.0092  0.4150
    9MOL   C527 6463   6.658   2.868   7.109 -0.1683  0.1348 -0.2622
    9MOL   C528 6464   6.738   2.871   7.241  1.5882  0.2668 -0.4509
    9MOL   C529 6465   6.856   2.961   7.230  0.1900 -0.4329 -0.6598
    9MOL   C530 6466   6.948   2.962   7.352 -0.0093 -0.1303  0.1498
    9MOL   C531 6467   7.067   3.053   7.325  0.0987  0.1583  0.1308
    9MOL   C532 6468   7.157   3.031   7.442 -0.2091 -0.3605  0.3262
    9MOL   N533 6469   7.280   3.114   7.424  0.2432  0.0747  0.3291
    9MOL   H534 6470   6.385   2.582   6.605 -1.9263 -1.7517  0.1888
    9MOL   H535 6471   6.516   2.655   6.687  0.7167  0.1411  0.8064
    9MOL   H536 6472   6.295   2.737   6.772 -2.8654 -0.5428 -0.8745
    9MOL   H537 6473   6.231   2.574   6.812 -1.8689  2.7085  1.3311
    9MOL   H538 6474   6.381   2.563   7.009  0.4104 -0.2032 -0.1605
    9MOL   H539 6475   6.291   2.716   7.005  0.0331  1.2904 -1.9125
    9MOL   H540 6476   6.571   2.672   6.926  1.6156  0.8556  2.3879
    9MOL   H541 6477   6.496   2.818   6.883 -0.6885 -0.2815 -0.6668
    9MOL   H542 6478   6.556   2.680   7.158  0.5625  0.6113  1.2904
    9MOL   H543 6479   6.446   2.823   7.157 -1.0138 -0.0424 -1.3449
    9MOL   H544 6480   6.620   2.967   7.088  1.3908  0.7054 -0.4293
    9MOL   H545 6481   6.721   2.833   7.027 -1.9871 -1.5946 -0.9635
    9MOL   H546 6482   6.785   2.775   7.265  3.9600  1.1331 -1.4340
    9MOL   H547 6483   6.676   2.895   7.328  2.3638 -0.6111  0.3566
    9MOL   H548 6484   6.832   3.065   7.209 -1.1754 -0.3539  1.1601
    9MOL   H549 6485   6.909   2.946   7.136  0.7183 -1.0768 -0.2719
    9MOL   H550 6486   6.994   2.864   7.363 -2.1466 -1.2109 -0.2700
    9MOL   H551 6487   6.904   2.992   7.447 -0.0838  2.7634 -0.7520
    9MOL   H552 6488   7.035   3.155   7.304  0.0178 -0.0607 -0.8204
    9MOL   H553 6489   7.108   3.021   7.230 -1.5810 -0.0158 -0.5479
    9MOL   H554 6490   7.204   2.933   7.439 -0.8311 -0.6529  0.1113
    9MOL   H555 6491   7.121   3.049   7.544 -4.3435 -1.8767 -0.7764
    9MOL   H556 6492   7.364   3.078   7.381 -0.2659  0.7115 -1.2293
    9MOL   C557 6493   7.282   3.247   7.427  0.0589 -0.0441  0.0805
    9MOL   O558 6494   7.184   3.318   7.446  0.1083 -0.2534 -0.3739
    9MOL   C559 6495   7.418   3.318   7.401  0.7438 -0.2317 -0.7194
    9MOL   C560 6496   7.404   3.458   7.344 -0.6411 -0.1561  0.4871
    9MOL   C561 6497   7.383   3.466   7.195 -0.3576  0.9897  0.0636
    9MOL   C562 6498   7.383   3.610   7.140  0.2264 -0.2300  0.1480
    9MOL   C563 6499   7.404   3.623   6.985  0.6905  0.0389 -0.4578
    9MOL   C564 6500   7.511   3.534   6.914  0.5745  0.3452 -0.1478
    9MOL   C565 6501   7.646   3.561   6.978  0.0069 -0.2761  0.3381
    9MOL   C566 6502   0.063   3.468   6.923 -0.0360  0.4723 -0.3598
    9MOL   C567 6503   0.193   3.485   7.012  0.3369 -0.1285  0.4764
    9MOL   C568 6504   0.314   3.404   6.960 -0.0009  0.4543 -0.1812
    9MOL   C569 6505   0.443   3.427   7.045 -0.3804 -0.5117  0.6337
    9MOL   N570 6506   0.512   3.545   7.001 -0.3243 -0.1713  0.3299
    9MOL   H571 6507   7.491   3.256   7.348 -0.9275 -3.4794  0.6562
    9MOL   H572 6508   7.453   3.334   7.503  0.6792 -1.8909 -0.4326
    9MOL   H573 6509   7.334   3.521   7.398 -2.4738 -1.4034 -0.3893
    9MOL   H574 6510   7.498   3.509   7.367 -0.3916 -0.8456  1.0386
    9MOL   H575 6511   7.296   3.407   7.168  1.0359 -1.8237  1.4761
    9MOL   H576 6512   7.461   3.400   7.157  0.4326  0.9667  1.6759
    9MOL   H577 6513   7.303   3.675   7.176  0.0337 -0.1313 -0.4571
    9MOL   H578 6514   7.469   3.659   7.186  0.7921 -1.9515  0.9610
    9MOL   H579 6515   7.405   3.727   6.955  1.7472  0.5894  1.4225
    9MOL   H580 6516   7.302   3.595   6.958  1.1487 -2.0023 -0.1898
    9MOL   H581 6517   7.514   3.558   6.807  3.4464  1.4083  0.1354
    9MOL   H582 6518   7.478   3.430   6.906 -0.7512  0.7298  0.3132
    9MOL   H583 6519   7.647   3.527   7.081 -1.7594  1.3447  0.9055
    9MOL   H584 6520   7.674   3.666   6.977 -0.4354 -0.1532  1.0005
    9MOL   H585 6521   0.085   3.492   6.819  0.2430 -1.4693 -0.7807
    9MOL   H586 6522   0.026   3.365   6.913 -2.2698  1.2052  0.0893
    9MOL   H587 6523   0.169   3.463   7.116  1.3902  0.4068  0.8474
    9MOL   H588 6524   0.227   3.589   7.014  0.4079 -0.1687  1.5726
    9MOL   H589 6525   0.331   3.416   6.853  0.1014 -0.8993 -0.3263
    9MOL   H590 6526   0.275   3.303   6.972  0.5474  0.0101 -2.0046
    9MOL   H591 6527   0.508   3.342   7.023  0.3150 -0.2933  1.8427
    9MOL   H592 6528   0.423   3.452   7.149 -2.3980 -1.6229  0.5485
    9MOL   H593 6529   0.466   3.602   6.932  3.6441 -1.2852 -3.4687
    9MOL   C594 6530   0.615   3.609   7.051 -0.3742  0.2146 -0.5595
    9MOL   O595 6531   0.679   3.565   7.141 -0.2893 -0.4494 -0.2602
    9MOL   C596 6532   0.640   3.752   7.009  1.2731 -0.5536 -0.7703
    9MOL   C597 6533   0.652   3.852   7.125 -0.1100 -0.5419  0.4664
    9MOL   C598 6534   0.685   3.985   7.061  0.5184 -0.2389 -0.6987
    9MOL   C599 6535   0.721   4.095   7.158  0.2006  0.6372  0.8309
    9MOL   C600 6536   0.763   4.230   7.096  0.4493 -0.9684  0.4986
    9MOL   C601 6537   0.901   4.235   7.031 -0.5767  0.1651  0.4746
    9MOL   C602 6538   1.013   4.232   7.133  0.3722 -0.3660  0.3785
    9MOL   C603 6539   1.146   4.190   7.071 -0.1274 -0.2508 -0.0663
    9MOL   C604 6540   1.226   4.122   7.184  0.0163 -0.0624  1.1605
    9MOL   C605 6541   1.370   4.076   7.141 -0.4497  1.1929  0.8479
    9MOL   C606 6542   1.395   3.921   7.144 -0.2324 -0.5576  0.1837
    9MOL   N607 6543   1.362   3.869   7.275  0.2104  0.4104  0.2158
    9MOL   H608 6544   0.559   3.795   6.951 -0.0926  1.0431  2.1936
    9MOL   H609 6545   0.734   3.746   6.953  0.5717 -1.1277 -1.9106
    9MOL   H610 6546   0.557   3.857   7.178 -0.6122  2.2655 -0.5987
    9MOL   H611 6547   0.735   3.819   7.188  0.5223 -0.5012 -0.3418
    9MOL   H612 6548   0.595   4.013   7.005  1.1464  3.6639  0.0983
    9MOL   H613 6549   0.771   3.979   6.994 -0.3421  2.0893 -2.0706
    9MOL   H614 6550   0.638   4.112   7.227  0.4200 -2.0341  1.8268
    9MOL   H615 6551   0.799   4.057   7.224  0.4278 -1.3674 -0.5325
    9MOL   H616 6552   0.752   4.312   7.167 -1.0345 -0.0319 -0.7761
    9MOL   H617 6553   0.696   4.241   7.011  1.2973 -1.2792 -0.2124
    9MOL   H618 6554   0.927   4.327   6.978  0.0415 -0.9404 -1.1999
    9MOL   H619 6555   0.919   4.150   6.964  1.5114  0.4607  0.6044
    9MOL   H620 6556   0.983   4.160   7.209  1.1340 -0.1773  0.8693
    9MOL   H621 6557   1.028   4.330   7.177  3.0775 -0.8133  0.5294
    9MOL   H622 6558   1.201   4.281   7.047 -0.2614 -0.2967 -0.5585
    9MOL   H623 6559   1.134   4.121   6.987  0.2467 -0.9526  0.4499
    9MOL   H624 6560   1.169   4.040   7.226  1.7900 -2.3387 -0.7632
    9MOL   H625 6561   1.238   4.200   7.260 -1.2037  0.6366  0.6477
    9MOL   H626 6562   1.447   4.133   7.192 -1.5030  1.3298  2.3158
    9MOL   H627 6563   1.383   4.112   7.039 -1.6565 -0.4174  0.1050
    9MOL   H628 6564   1.499   3.898   7.119  0.3822  1.6318  0.5809
    9MOL   H629 6565   1.338   3.870   7.067  0.4279  0.8155 -1.2616
    9MOL   H630 6566   1.287   3.802   7.284  0.4393  0.4091  2.1916
    9MOL   C631 6567   1.434   3.875   7.387 -0.7953 -0.2252  0.8219
    9MOL   O632 6568   1.542   3.936   7.387 -0.3930 -0.4708 -0.2254
    9MOL   C633 6569   1.371   3.819   7.517 -0.0870 -0.0639 -0.0650
    9MOL   C634 6570   1.463   3.812   7.635 -0.1476  0.5546 -0.1614
    9MOL   C635 6571   1.392   3.767   0.062  0.0351 -0.8698 -0.3898
    9MOL   C636 6572   1.483   3.755   0.182  0.6258 -0.3240  0.2956
    9MOL   C637 6573   1.414   3.710   0.308  0.2356 -0.1445 -0.5871
    9MOL   C638 6574   1.306   3.809   0.356  0.0178 -0.2955  0.7387
    9MOL   C639 6575   1.366   3.941   0.390  0.4757  0.0181 -0.0306
    9MOL   C640 6576   1.276   4.037   0.463  0.4312 -0.4152  0.8815
    9MOL   C641 6577   1.160   4.102   0.381  0.7488  0.4259  0.0172
    9MOL   C642 6578   1.098   4.230   0.441  0.4808 -0.2536  0.7118
    9MOL   C643 6579   0.964   4.260   0.388  0.1908  0.3013  0.5818
    9MOL   N644 6580   0.896   4.376   0.438 -0.4906 -0.9174 -0.5739
    9MOL   H645 6581   1.335   3.718   7.498 -0.2121 -0.5800  2.6305
    9MOL   H646 6582   1.290   3.883   7.552 -1.3509 -1.1424 -0.9578
    9MOL   H647 6583   1.533   3.730   7.614 -2.2579 -0.7810 -2.1675
    9MOL   H648 6584   1.515   3.908   7.635  0.6852  0.1185 -0.5185
    9MOL   H649 6585   1.334   3.675   0.048  1.6128 -2.0355  0.5618
    9MOL   H650 6586   1.321   3.848   0.079  1.2994  0.7287 -2.6230
    9MOL   H651 6587   1.567   3.688   0.168  0.1370 -1.1997  1.4214
    9MOL   H652 6588   1.533   3.851   0.200  2.0141 -0.8692 -0.6431
    9MOL   H653 6589   1.491   3.703   0.385  0.4860 -2.7774 -1.0562
    9MOL   H654 6590   1.371   3.611   0.296  0.1611 -0.5795  2.7476
    9MOL   H655 6591   1.259   3.779   0.450  1.7989  2.8948  2.7094
    9MOL   H656 6592   1.222   3.831   0.289  0.9322  0.3296 -0.2099
    9MOL   H657 6593   1.409   3.987   0.301  2.5369 -1.9442 -0.0978
    9MOL   H658 6594   1.457   3.933   0.449  0.4362  0.0383  0.0325
    9MOL   H659 6595   1.339   4.119   0.496  0.1865  0.5412 -0.9663
    9MOL   H660 6596   1.231   4.000   0.556 -2.8449 -0.9429 -0.8493
    9MOL   H661 6597   1.086   4.023   0.365  1.9229 -0.4828 -1.0314
    9MOL   H662 6598   1.190   4.134   0.281  1.3106 -0.9096 -0.2606
    9MOL   H663 6599   1.161   4.317   0.420 -0.3764 -0.0932 -1.2877
    9MOL   H664 6600   1.100   4.232   0.550 -2.0930 -0.0785  0.7768
    9MOL   H665 6601   0.899   4.178   0.418  1.4355 -0.2728  1.7347
    9MOL   H666 6602   0.961   4.261   0.279 -2.6461 -0.8524  0.6141
    9MOL   H667 6603   0.903   4.456   0.377 -0.6013 -0.2199  0.3114
    9MOL   C668 6604   0.815   4.394   0.547 -0.2795 -0.6497  0.4498
    9MOL   O669 6605   0.759   4.505   0.559  0.4144  0.3489  0.2325
    9MOL   C670 6606   0.819   4.279   0.651  0.0531  0.0168 -0.0763
    9MOL   C671 6607   0.754   4.308   0.783  0.0271  0.2178 -0.3830
    9MOL   C672 6608   0.818   4.423   0.862 -0.0764 -0.6667 -0.2119
    9MOL   C673 6609   0.736   4.468   0.983 -0.3086 -0.9295  0.3609
    9MOL   C674 6610   0.822   4.562   1.065 -0.4249  0.3612 -0.6548
    9MOL   C675 6611   0.851   4.700   0.999  0.4385 -0.4245  0.8786
    9MOL   C676 6612   0.912   4.809   1.092 -0.4677 -0.0982 -0.2440
    9MOL   C677 6613   1.060   4.795   1.120  1.4056  0.5826 -0.3070
    9MOL   C678 6614   1.109   4.912   1.204  0.0343 -0.3711  0.2532
    9MOL   C679 6615   1.253   4.901   1.259 -0.4312  0.6479  1.1161
    9MOL   C680 6616   1.308   5.041   1.295 -0.5804  0.0254 -0.1631
    9MOL   N681 6617   1.414   5.027   1.393  0.2762  0.0062  0.3311
    9MOL   H682 6618   0.924   4.260   0.674 -0.1175  1.1155  1.7224
    9MOL   H683 6619   0.774   4.188   0.612  1.1241 -1.8136  2.7753
    9MOL   H684 6620   0.647   4.330   0.774 -0.1828  0.9284  3.2935
    9MOL   H685 6621   0.755   4.211   0.833 -0.2578  0.9336  1.0321
    9MOL   H686 6622   0.861   4.505   0.805 -0.0033  0.3727  1.2879
    9MOL   H687 6623   0.906   4.377   0.906  0.8607 -0.6780 -2.0447
    9MOL   H688 6624   0.644   4.514   0.948  0.9296  1.5314  0.2578
    9MOL   H689 6625   0.706   4.384   1.045 -2.7990  0.4973  1.1322
    9MOL   H690 6626   0.914   4.510   1.091 -1.5760 -0.9077  1.0397
    9MOL   H691 6627   0.781   4.592   1.162  1.3438  0.1985  0.1508
    9MOL   H692 6628   0.755   4.747   0.979  1.6842  1.2008 -1.5340
    9MOL   H693 6629   0.897   4.697   0.900 -1.2121 -0.0217  0.0938
    9MOL   H694 6630   0.869   4.821   1.191  0.2438 -0.3529  0.1005
    9MOL   H695 6631   0.895   4.907   1.047  0.2161  0.4397  0.6497
    9MOL   H696 6632   1.112   4.806   1.025  1.7170  1.2436 -0.0608
    9MOL   H697 6633   1.082   4.699   1.165 -2.3556 -1.3845 -2.3562
    9MOL   H698 6634   1.051   4.918   1.297  0.3475 -1.5663  0.5319
    9MOL   H699 6635   1.096   5.005   1.149  1.6268 -0.3599 -0.1444
    9MOL   H700 6636   1.320   4.857   1.185 -2.9624 -0.4968 -0.5735
    9MOL   H701 6637   1.251   4.837   1.348 -0.1111  0.3328  0.9020
    9MOL   H702 6638   1.220   5.094   1.332 -0.1811  0.2847  0.4284
    9MOL   H703 6639   1.353   5.100   1.215  0.4356  1.5227  1.4736
    9MOL   H704 6640   1.489   4.967   1.363  0.0560 -0.8171  1.4269
    9MOL   C705 6641   1.428   5.089   1.511 -0.6888  0.3897  0.4875
    9MOL   O706 6642   1.342   5.169   1.550 -0.2391 -0.0501 -0.3867
    9MOL   C707 6643   1.556   5.061   1.589  0.3569  0.2067 -0.2800
    9MOL   C708 6644   1.515   5.006   1.730  0.1441 -0.4801  0.3817
    9MOL   C709 6645   1.642   4.958   1.801 -0.1808 -0.3614  0.1256
    9MOL   C710 6646   1.617   4.909   1.946 -0.5804 -0.5995 -0.6090
    9MOL   C711 6647   1.737   4.833   2.007  0.0516 -0.0724  0.2143
    9MOL   C712 6648   1.709   4.762   2.137  0.0719 -0.2292 -0.2931
    9MOL   C713 6649   1.838   4.696   2.182  0.1915  0.7865 -0.5126
    9MOL   C714 6650   1.816   4.623   2.315 -0.3751  0.3323  0.2062
    9MOL   C715 6651   1.940   4.557   2.363 -0.1516 -0.5420  0.0776
    9MOL   C716 6652   1.916   4.464   2.485 -0.3860 -0.9393  0.4960
    9MOL   C717 6653   2.042   4.447   2.576  0.5472  0.2743 -0.9606
    9MOL   N718 6654   1.990   4.424   2.709  0.2511  0.0348  0.4908
    9MOL   H719 6655   1.628   5.143   1.588  0.5369  0.0398 -2.6332
    9MOL   H720 6656   1.605   4.980   1.536  0.6903 -0.8065  1.5176
    9MOL   H721 6657   1.449   5.074   1.785  0.3146  0.7500 -0.8842
    9MOL   H722 6658   1.463   4.913   1.708 -2.1441  0.7946  0.2005
    9MOL   H723 6659   1.724   5.029   1.789  1.1826 -1.3739  2.8086
    9MOL   H724 6660   1.675   4.878   1.736  0.9296  0.9256 -0.9404
    9MOL   H725 6661   1.603   4.992   2.015  0.5209 -0.9288  0.0343
    9MOL   H726 6662   1.531   4.842   1.950  0.4084 -1.9093 -0.8737
    9MOL   H727 6663   1.813   4.909   2.024 -0.6254  0.4459  0.9898
    9MOL   H728 6664   1.783   4.764   1.936 -1.1236 -1.1744  0.4872
    9MOL   H729 6665   1.632   4.688   2.116 -0.0156 -0.1787 -0.1506
    9MOL   H730 6666   1.676   4.835   2.211  2.2979  0.0186  0.4866
    9MOL   H731 6667   1.915   4.772   2.198 -1.4639  2.4834 -0.4676
    9MOL   H732 6668   1.873   4.628   2.105 -1.8851 -0.8391 -0.0591
    9MOL   H733 6669   1.738   4.547   2.316 -0.1474  0.0825 -1.0689
    9MOL   H734 6670   1.777   4.700   2.383  1.0343  0.4750  0.8702
    9MOL   H735 6671   2.006   4.639   2.393 -2.8953  0.2247  4.5509
    9MOL   H736 6672   1.984   4.501   2.281 -0.2556  0.8939 -0.9769
    9MOL   H737 6673   1.873   4.375   2.440 -2.2365  0.7132 -1.1382
    9MOL   H738 6674   1.832   4.511   2.536 -0.5150 -0.4066 -0.1905
    9MOL   H739 6675   2.115   4.528   2.570 -1.2183  2.0030  0.3724
    9MOL   H740 6676   2.097   4.355   2.557 -0.4065 -0.4482 -0.2193
    9MOL   H741 6677   1.927   4.346   2.718  0.5797 -0.1122  1.5028
    9MOL   H742 6678   1.929   4.496   2.745  1.8406  1.8393 -0.3586
   10MOL     C1 6679   5.348   1.734   5.968  0.1797  0.6544  0.5038
   10MOL     O2 6680   5.366   1.612   5.994  0.1574  0.0677 -0.0872
   10MOL     C3 6681   5.450   1.839   6.003 -0.3962 -0.2974  0.0171
   10MOL     C4 6682   5.584   1.848   5.929 -0.4715  0.5627  0.2111
   10MOL     C5 6683   5.692   1.746   5.985 -0.3915  0.1887  0.2957
   10MOL     C6 6684   5.826   1.754   5.915 -0.3918 -0.3276  0.2876
   10MOL     C7 6685   5.928   1.646   5.962  0.7371 -0.2486 -0.3453
   10MOL     C8 6686   6.072   1.666   5.912 -0.2211 -0.2449  0.0195
   10MOL     C9 6687   6.094   1.610   5.764  0.0825  0.5080  0.2574
   10MOL    C10 6688   6.222   1.662   5.698  0.1483 -0.2071  0.4546
   10MOL    C11 6689   6.353   1.624   5.764  0.3686 -0.2463  0.3816
   10MOL    C12 6690   6.463   1.630   5.657  0.5280  0.6802 -0.2379
   10MOL    C13 6691   6.596   1.568   5.711  0.4678  0.4997 -0.6726
   10MOL    N14 6692   6.592   1.431   5.752  0.8810 -0.1043 -0.0504
   10MOL    H15 6693   5.468   1.846   6.111  1.2625 -0.0945 -0.2640
   10MOL    H16 6694   5.397   1.932   5.983 -0.3038 -0.5483 -1.3892
   10MOL    H17 6695   5.577   1.818   5.825 -0.3551 -0.4904  0.5028
   10MOL    H18 6696   5.622   1.951   5.929  0.0635  0.3632 -0.7279
   10MOL    H19 6697   5.655   1.645   5.998 -2.3907  1.0165  1.2526
   10MOL    H20 6698   5.714   1.778   6.087  1.1974 -0.4395  0.1678
   10MOL    H21 6699   5.821   1.748   5.806  0.1851 -1.6176  0.3182
   10MOL    H22 6700   5.866   1.851   5.943 -0.5064 -0.2900  0.3227
   10MOL    H23 6701   5.892   1.548   5.929  2.6132 -1.3540  0.8160
   10MOL    H24 6702   5.928   1.634   6.070 -1.1633 -0.9175 -0.3898
   10MOL    H25 6703   6.136   1.611   5.981 -0.5525 -0.4619  0.1553
   10MOL    H26 6704   6.107   1.769   5.916 -2.6229  0.8780 -4.5203
   10MOL    H27 6705   6.007   1.627   5.702 -0.2619 -0.3763  0.4942
   10MOL    H28 6706   6.110   1.503   5.779 -0.5088  0.2694 -0.8042
   10MOL    H29 6707   6.218   1.769   5.676  0.7788 -0.1511  0.6052
   10MOL    H30 6708   6.205   1.614   5.602 -0.5347 -2.2222  1.5439
   10MOL    H31 6709   6.340   1.524   5.805  0.8664 -0.3719  0.2411
   10MOL    H32 6710   6.378   1.689   5.849  0.8000 -0.4557  0.4156
   10MOL    H33 6711   6.482   1.731   5.620 -1.1927  1.9662  2.1826
   10MOL    H34 6712   6.440   1.576   5.566  1.3263 -0.6049  0.3069
   10MOL    H35 6713   6.621   1.631   5.796  1.6246 -1.6076  0.5865
   10MOL    H36 6714   6.684   1.580   5.648  0.7407  1.9663 -0.0270
   10MOL    H37 6715   6.550   1.362   5.692  1.7265 -2.6118  2.1745
   10MOL    H38 6716   5.249   1.756   5.926  0.1248  0.7273  0.6709
   10MOL    C39 6717   6.645   1.374   5.860  0.2173  0.6711  0.0298
   10MOL    O40 6718   6.734   1.420   5.929  0.3339 -0.0073  0.0428
   10MOL    C41 6719   6.577   1.243   5.889 -0.0071  0.3370 -0.4386
   10MOL    C42 6720   6.658   1.110   5.875  0.0748 -0.2517  0.0476
   10MOL    C43 6721   6.687   1.062   5.725  0.6820  0.0324  0.5520
   10MOL    C44 6722   6.798   0.951   5.715  0.1576 -0.7954  0.1073
   10MOL    C45 6723   6.866   0.949   5.574  0.8754  0.2635  0.4757
   10MOL    C46 6724   6.755   0.913   5.466  0.1017 -0.0886 -0.1762
   10MOL    C47 6725   6.805   0.891   5.329  0.2496 -0.0242  0.2268
   10MOL    C48 6726   6.682   0.853   5.236  0.5063  0.1657 -0.1613
   10MOL    C49 6727   6.653   0.968   5.136 -0.4541 -0.4417 -0.7839
   10MOL    C50 6728   6.582   0.906   5.016 -0.2615 -0.0317  0.4950
   10MOL    C51 6729   6.528   1.011   4.926 -0.7341  0.0809 -0.3125
   10MOL    N52 6730   6.457   0.945   4.819  0.1766 -0.4841 -0.0131
   10MOL    H53 6731   6.487   1.226   5.829  0.1162  0.3872 -0.6378
   10MOL    H54 6732   6.556   1.249   5.996  0.5584  1.0433 -0.3688
   10MOL    H55 6733   6.754   1.123   5.925  1.9654  0.7005 -3.6732
   10MOL    H56 6734   6.604   1.030   5.926 -2.0223  1.6241  0.8428
   10MOL    H57 6735   6.728   1.143   5.665  1.6567 -2.3972 -2.1609
   10MOL    H58 6736   6.593   1.032   5.679  1.6171 -0.3510 -1.1293
   10MOL    H59 6737   6.875   0.966   5.791  1.2930 -0.0283 -1.1702
   10MOL    H60 6738   6.745   0.859   5.736 -1.5248  0.2517  0.5181
   10MOL    H61 6739   6.937   0.866   5.574  0.9441  0.3242  0.0958
   10MOL    H62 6740   6.924   1.040   5.559  1.3723 -0.2433 -0.7086
   10MOL    H63 6741   6.690   1.000   5.461  0.6642  0.2826 -1.4275
   10MOL    H64 6742   6.698   0.826   5.500 -0.8658  0.8270  0.5830
   10MOL    H65 6743   6.875   0.808   5.325 -0.2838 -0.4496 -0.6381
   10MOL    H66 6744   6.850   0.985   5.296  1.9624 -1.3218 -1.2508
   10MOL    H67 6745   6.587   0.825   5.280 -0.2228  3.5102  0.5076
   10MOL    H68 6746   6.726   0.768   5.184  4.3202 -0.2867  3.5037
   10MOL    H69 6747   6.742   1.019   5.100 -1.0235  0.8508 -0.3687
   10MOL    H70 6748   6.608   1.049   5.193  1.6725 -0.5650  1.1525
   10MOL    H71 6749   6.495   0.845   5.040 -0.6790 -0.7073 -2.6148
   10MOL    H72 6750   6.658   0.844   4.968  0.6887 -0.2329  2.2040
   10MOL    H73 6751   6.597   1.091   4.896 -0.6358  1.2855  2.9242
   10MOL    H74 6752   6.444   1.057   4.978 -0.5609 -1.4068  1.3340
   10MOL    H75 6753   6.428   0.850   4.840 -3.1587  0.1719 -1.1903
   10MOL    C76 6754   6.417   1.014   4.708  0.4869 -0.7334 -1.4101
   10MOL    O77 6755   6.462   1.126   4.681  0.1001 -0.1959  0.4944
   10MOL    C78 6756   6.329   0.947   4.604 -0.0798  0.4853  0.0624
   10MOL    C79 6757   6.178   1.001   4.609  0.1471 -0.7916 -0.1279
   10MOL    C80 6758   6.093   0.949   4.491  0.5811 -0.2745 -0.0325
   10MOL    C81 6759   6.033   0.807   4.527  0.2851  0.9696 -0.2536
   10MOL    C82 6760   6.015   0.723   4.404  0.3270 -0.1117 -1.0205
   10MOL    C83 6761   5.965   0.579   4.424  0.7306  0.1419  0.0233
   10MOL    C84 6762   5.905   0.519   4.294 -0.0576  0.2082 -0.1141
   10MOL    C85 6763   5.866   0.368   4.294  0.2586  0.1029 -0.2881
   10MOL    C86 6764   5.744   0.348   4.393  0.8743  0.1158  0.0701
   10MOL    C87 6765   5.673   0.212   4.377 -0.7539  0.3958 -0.0428
   10MOL    C88 6766   5.551   0.202   4.469 -0.0873  1.0930  0.4705
   10MOL    N89 6767   5.469   0.081   4.450  0.1101 -0.1551 -0.5576
   10MOL    H90 6768   6.336   0.842   4.633  0.1975  0.1000 -1.3496
   10MOL    H91 6769   6.374   0.951   4.505  1.1782 -1.2752  0.5471
   10MOL    H92 6770   6.127   0.964   4.698 -1.1780 -2.0696 -1.3887
   10MOL    H93 6771   6.179   1.110   4.608  1.3709 -0.8071 -1.1505
   10MOL    H94 6772   6.150   0.954   4.399  0.7917  1.7967  0.1826
   10MOL    H95 6773   6.010   1.019   4.487 -0.6337 -1.8167 -2.5369
   10MOL    H96 6774   6.079   0.746   4.606  1.1015 -1.1326 -2.2918
   10MOL    H97 6775   5.934   0.826   4.568 -1.2256  0.1286 -3.4015
   10MOL    H98 6776   6.113   0.717   4.358  1.3258  0.3213  0.9579
   10MOL    H99 6777   5.942   0.777   4.344 -0.3274 -0.7983 -0.8536
   10MOL   H100 6778   5.898   0.578   4.511 -0.3076  0.4909 -0.7567
   10MOL   H101 6779   6.048   0.514   4.451 -0.3684 -2.1486 -1.9334
   10MOL   H102 6780   5.980   0.526   4.215  1.0535  0.0094  0.9102
   10MOL   H103 6781   5.818   0.570   4.253  0.1289  1.0854  0.5483
   10MOL   H104 6782   5.958   0.315   4.318 -0.6256 -1.6040 -0.5632
   10MOL   H105 6783   5.827   0.340   4.196 -2.0514  0.6002  0.4542
   10MOL   H106 6784   5.667   0.424   4.382  0.4598  0.0406  2.1066
   10MOL   H107 6785   5.776   0.361   4.497  0.7567 -1.3888  0.3130
   10MOL   H108 6786   5.748   0.138   4.405 -0.2706  1.1192  0.6134
   10MOL   H109 6787   5.648   0.196   4.272  0.6148 -1.3597 -0.1146
   10MOL   H110 6788   5.485   0.289   4.462 -1.2239  0.3060  1.0952
   10MOL   H111 6789   5.580   0.198   4.574  1.2442  1.4238  0.1172
   10MOL   H112 6790   5.450   0.026   4.532  0.3816 -0.9774 -1.0372
   10MOL   C113 6791   5.430   0.025   4.337  0.0924 -0.1503 -0.3498
   10MOL   O114 6792   5.427   0.078   4.227 -0.1854 -0.1358 -0.4214
   10MOL   C115 6793   5.385   7.575   4.342  0.1751 -0.5777 -0.4473
   10MOL   C116 6794   5.441   7.478   4.243  0.3612 -0.4217 -1.2171
   10MOL   C117 6795   5.586   7.440   4.259  0.3315 -0.6220  0.5384
   10MOL   C118 6796   5.618   7.316   4.168  0.4813  0.1532 -0.0999
   10MOL   C119 6797   5.753   7.255   4.197  0.5563  0.2334 -0.1493
   10MOL   C120 6798   5.789   7.158   4.086  0.5158 -0.7014  1.1817
   10MOL   C121 6799   5.923   7.088   4.114  0.2570  0.2581  0.7737
   10MOL   C122 6800   5.945   6.968   4.013 -0.2823 -0.4216  0.2002
   10MOL   C123 6801   6.029   6.850   4.065  0.3017 -0.1043 -0.4390
   10MOL   C124 6802   6.104   6.767   3.956 -0.4894  1.1975  0.2852
   10MOL   C125 6803   6.232   6.704   4.008 -0.3896  0.0660 -0.4132
   10MOL   N126 6804   6.330   6.795   4.053  0.6460 -0.0705 -0.1030
   10MOL   H127 6805   5.282   7.585   4.309  0.2755 -1.2647 -0.9856
   10MOL   H128 6806   5.393   7.533   4.442 -1.0873  1.3468  0.4699
   10MOL   H129 6807   5.377   7.390   4.244  0.6166 -0.6354  1.0919
   10MOL   H130 6808   5.422   7.519   4.145  1.0810  0.4117 -1.0138
   10MOL   H131 6809   5.612   7.409   4.360  2.2452  0.9540  0.5727
   10MOL   H132 6810   5.646   7.519   4.214 -0.8123  0.3653  0.7166
   10MOL   H133 6811   5.542   7.242   4.191  0.9589 -0.2440  0.2172
   10MOL   H134 6812   5.615   7.344   4.063 -1.0498 -1.8265 -0.5999
   10MOL   H135 6813   5.753   7.203   4.293  0.0902  0.8283  0.1740
   10MOL   H136 6814   5.837   7.325   4.200 -0.6905  1.8721 -2.2048
   10MOL   H137 6815   5.795   7.218   3.995 -1.8053 -2.2692 -0.0497
   10MOL   H138 6816   5.707   7.091   4.063 -0.6435  1.3655 -0.9204
   10MOL   H139 6817   5.911   7.046   4.214  0.0338 -0.3260  0.5054
   10MOL   H140 6818   6.000   7.165   4.120  1.4172 -0.6926 -1.3621
   10MOL   H141 6819   5.990   7.012   3.924 -0.9899  0.1536  0.1291
   10MOL   H142 6820   5.851   6.928   3.976 -0.6159  2.8134 -2.6596
   10MOL   H143 6821   5.966   6.777   4.116  2.2942 -1.5017  0.1034
   10MOL   H144 6822   6.100   6.888   4.139  0.3086 -0.0765 -0.4600
   10MOL   H145 6823   6.134   6.845   3.886 -0.0031  2.6659  2.0912
   10MOL   H146 6824   6.035   6.699   3.906  0.0644 -0.8419  2.2435
   10MOL   H147 6825   6.275   6.649   3.924  1.8081  0.2335  0.5693
   10MOL   H148 6826   6.215   6.638   4.093  0.4641  1.1097  0.5710
   10MOL   H149 6827   6.292   6.883   4.088  0.6264  0.2672 -0.9637
   10MOL   C150 6828   6.460   6.762   4.078 -0.0256  0.5614 -0.6427
   10MOL   O151 6829   6.505   6.652   4.054 -0.0928  0.3854  0.2945
   10MOL   C152 6830   6.552   6.871   4.128 -1.0290  0.0218  0.3876
   10MOL   C153 6831   6.515   6.923   4.269 -0.0285  0.0733  0.2374
   10MOL   C154 6832   6.378   7.006   4.285 -0.0012  0.0996 -0.3995
   10MOL   C155 6833   6.354   7.065   4.417  0.0641 -0.5925  0.5877
   10MOL   C156 6834   6.214   7.128   4.433  0.1626  0.1903  0.1429
   10MOL   C157 6835   6.193   7.214   4.557 -0.3513 -0.0903  0.2062
   10MOL   C158 6836   6.051   7.274   4.566 -0.7383  0.2487 -0.8096
   10MOL   C159 6837   5.931   7.184   4.588  0.0217  0.2267  0.4649
   10MOL   C160 6838   5.952   7.076   4.697  0.8490  0.2050  0.1654
   10MOL   C161 6839   5.828   6.987   4.715  0.9751  0.3663  0.0794
   10MOL   C162 6840   5.831   6.897   4.836  0.2406 -0.4640  0.2341
   10MOL   N163 6841   5.957   6.820   4.832  0.0817  0.1908  0.0224
   10MOL   H164 6842   6.557   6.952   4.055  2.2424 -0.0853  0.4461
   10MOL   H165 6843   6.657   6.845   4.130 -1.2335 -0.9135 -0.5851
   10MOL   H166 6844   6.496   6.834   4.330 -0.5596  1.1852  1.7382
   10MOL   H167 6845   6.600   6.975   4.314  0.9818 -0.4337 -1.0617
   10MOL   H168 6846   6.298   6.935   4.266  0.6234 -1.4215  2.3630
   10MOL   H169 6847   6.372   7.090   4.216 -1.7628 -2.2971 -3.2872
   10MOL   H170 6848   6.378   6.993   4.495  0.7466 -0.7222  0.2607
   10MOL   H171 6849   6.425   7.148   4.418 -1.6870  0.9152  1.5087
   10MOL   H172 6850   6.137   7.051   4.425 -1.7615  1.8386  2.3520
   10MOL   H173 6851   6.197   7.178   4.338 -1.4398 -1.5085 -0.5014
   10MOL   H174 6852   6.271   7.289   4.544  1.0949 -1.4202  0.8996
   10MOL   H175 6853   6.214   7.150   4.643  0.4893  0.4985  0.4488
   10MOL   H176 6854   6.022   7.331   4.478  0.6152 -0.6525 -1.8568
   10MOL   H177 6855   6.057   7.349   4.645 -1.4084 -1.2594  0.7019
   10MOL   H178 6856   5.919   7.135   4.492  2.4935  0.0658  0.1993
   10MOL   H179 6857   5.841   7.243   4.605 -0.9234 -0.5028 -1.7893
   10MOL   H180 6858   5.967   7.140   4.783  0.3280  0.3701  0.1347
   10MOL   H181 6859   6.039   7.013   4.676  0.9699 -0.4364  2.4474
   10MOL   H182 6860   5.821   6.920   4.629  0.8394 -0.6860  0.9090
   10MOL   H183 6861   5.745   7.057   4.711  2.5192  2.5157  3.4126
   10MOL   H184 6862   5.750   6.824   4.836 -1.2847  1.1884 -1.2309
   10MOL   H185 6863   5.836   6.962   4.923 -2.1460 -0.4829  0.4219
   10MOL   H186 6864   6.004   6.798   4.746 -1.6745  1.4848 -1.2985
   10MOL   C187 6865   6.018   6.769   4.943 -0.5287 -0.2066 -0.2714
   10MOL   O188 6866   5.978   6.799   5.063  0.4176  0.0248  0.1211
   10MOL   C189 6867   6.139   6.674   4.921  0.3956  0.0701  0.0541
   10MOL   C190 6868   6.271   6.674   5.006 -0.4992 -0.1870 -0.2785
   10MOL   C191 6869   6.385   6.574   4.951  0.2057 -0.1540 -0.2684
   10MOL   C192 6870   6.513   6.572   5.039  0.3223 -0.2908 -0.8120
   10MOL   C193 6871   6.618   6.487   4.962 -1.3731 -0.6096 -0.8046
   10MOL   C194 6872   6.756   6.489   5.033  0.1366  0.3054 -0.1590
   10MOL   C195 6873   6.748   6.428   5.172 -0.1608 -0.2750  0.4759
   10MOL   C196 6874   6.889   6.404   5.245  0.3840 -0.0687 -0.1809
   10MOL   C197 6875   6.894   6.361   5.386  1.2283  0.3078  0.3577
   10MOL   C198 6876   6.816   6.227   5.409  0.4735  0.1403 -0.6005
   10MOL   C199 6877   6.843   6.182   5.554  0.5238 -0.4361 -0.0230
   10MOL   N200 6878   6.761   6.072   5.599 -0.3261 -1.1606  0.1516
   10MOL   H201 6879   6.169   6.696   4.818  0.3983  0.8957  0.2286
   10MOL   H202 6880   6.100   6.573   4.932  1.1420 -0.8641 -4.7691
   10MOL   H203 6881   6.322   6.769   4.996 -0.7918 -0.0904 -0.8930
   10MOL   H204 6882   6.240   6.663   5.110  0.1596 -3.9578 -0.3979
   10MOL   H205 6883   6.412   6.591   4.847  0.3645 -0.6459 -0.3095
   10MOL   H206 6884   6.343   6.473   4.949  0.7407 -0.3735 -0.6413
   10MOL   H207 6885   6.536   6.678   5.034  1.6269 -0.5046  0.3765
   10MOL   H208 6886   6.492   6.535   5.139  0.0429  0.1259 -0.7180
   10MOL   H209 6887   6.638   6.536   4.866 -2.1338  2.2227  0.4471
   10MOL   H210 6888   6.589   6.384   4.943 -0.0080 -1.0200 -0.7027
   10MOL   H211 6889   6.801   6.589   5.039  2.3250 -0.6435 -0.1739
   10MOL   H212 6890   6.824   6.435   4.968  0.9643  0.9100  0.1878
   10MOL   H213 6891   6.687   6.337   5.173 -0.2008 -0.2436  1.5281
   10MOL   H214 6892   6.689   6.491   5.238 -2.8591  0.0047 -2.1174
   10MOL   H215 6893   6.943   6.496   5.225  3.2418 -2.0298 -1.9007
   10MOL   H216 6894   6.948   6.328   5.193  0.1567 -1.1543  1.0921
   10MOL   H217 6895   6.860   6.443   5.449 -1.2296  1.0584 -1.8525
   10MOL   H218 6896   7.001   6.345   5.404  0.9109 -1.6271  0.6280
   10MOL   H219 6897   6.860   6.159   5.336 -0.4717 -0.7360 -0.3737
   10MOL   H220 6898   6.708   6.226   5.392  0.6273 -0.4487 -1.6204
   10MOL   H221 6899   6.796   6.265   5.607  1.2540 -0.3624  0.5220
   10MOL   H222 6900   6.947   6.172   5.587  0.2261 -1.8002  0.5471
   10MOL   H223 6901   6.679   6.053   5.544 -0.7554  0.5504  0.1693
   10MOL   C224 6902   6.780   5.987   5.703 -0.3931 -0.3603  0.4110
   10MOL   O225 6903   6.879   5.998   5.771  0.0122 -0.4106 -0.0010
   10MOL   C226 6904   6.682   5.872   5.735  0.6560 -0.2151  0.2614
   10MOL   C227 6905   6.689   5.829   5.885  0.3802 -0.5609  0.6779
   10MOL   C228 6906   6.581   5.746   5.947  0.5450  0.7500 -0.4707
   10MOL   C229 6907   6.503   5.656   5.849  0.3734 -0.6901 -0.2537
   10MOL   C230 6908   6.388   5.579   5.913  0.2620 -0.0909 -0.6126
   10MOL   C231 6909   6.290   5.502   5.826  0.0314 -0.1400  0.3014
   10MOL   C232 6910   6.182   5.431   5.904 -0.0618  0.2648  0.3305
   10MOL   C233 6911   6.083   5.353   5.818 -0.3037  0.6583  0.6384
   10MOL   C234 6912   5.945   5.333   5.880  0.4132 -0.2354 -0.5498
   10MOL   C235 6913   5.844   5.247   5.802 -0.3981 -0.2240 -0.7016
   10MOL   C236 6914   5.713   5.253   5.874 -0.0360 -0.5712  0.8658
   10MOL   N237 6915   5.617   5.168   5.819 -0.9595 -0.1298 -0.1511
   10MOL   H238 6916   6.700   5.788   5.669 -2.3101  0.5150 -1.5747
   10MOL   H239 6917   6.584   5.917   5.723  1.4860  1.5156 -0.2597
   10MOL   H240 6918   6.789   5.791   5.908  1.1936  1.0900 -0.0988
   10MOL   H241 6919   6.687   5.919   5.947 -1.1066 -0.3120  0.2733
   10MOL   H242 6920   6.510   5.813   5.995  1.0141  0.7649  0.2181
   10MOL   H243 6921   6.623   5.685   6.027  2.3317 -0.4387 -2.2547
   10MOL   H244 6922   6.465   5.702   5.758 -0.4550 -1.9147 -0.5378
   10MOL   H245 6923   6.566   5.580   5.804 -0.3587  0.4105 -3.2505
   10MOL   H246 6924   6.326   5.656   5.960 -0.2735 -0.1340 -1.2422
   10MOL   H247 6925   6.418   5.500   5.982 -1.3995 -0.3215 -0.1228
   10MOL   H248 6926   6.344   5.439   5.757 -1.3949  1.0015 -1.9110
   10MOL   H249 6927   6.243   5.573   5.757  1.1211  1.1483  0.8566
   10MOL   H250 6928   6.126   5.500   5.967 -0.5062  0.1329  0.0763
   10MOL   H251 6929   6.224   5.348   5.962  2.0071  2.1206  1.5894
   10MOL   H252 6930   6.125   5.257   5.788 -0.8577  0.1757  1.3645
   10MOL   H253 6931   6.075   5.398   5.719  0.8525 -2.4714 -0.9575
   10MOL   H254 6932   5.902   5.431   5.898  0.1018 -0.7379  1.5043
   10MOL   H255 6933   5.948   5.287   5.979 -1.3874 -0.5435 -0.6227
   10MOL   H256 6934   5.877   5.143   5.806 -0.4985 -0.2261  0.2147
   10MOL   H257 6935   5.820   5.288   5.704  2.7312  2.9028 -0.2632
   10MOL   H258 6936   5.673   5.354   5.883 -0.9433 -0.4600 -3.2649
   10MOL   H259 6937   5.726   5.217   5.976  0.5178  1.3354  1.4848
   10MOL   H260 6938   5.608   5.078   5.862 -1.5552 -0.7244 -1.5065
   10MOL   C261 6939   5.567   5.166   5.696  0.4682 -0.5721  0.0599
   10MOL   O262 6940   5.588   5.254   5.608  0.1729 -0.0631 -0.5548
   10MOL   C263 6941   5.490   5.037   5.666 -0.5078 -0.6504  0.1228
   10MOL   C264 6942   5.412   5.040   5.532 -0.0785 -0.1682  0.4066
   10MOL   C265 6943   5.343   4.901   5.499 -0.2983 -0.4512  0.2117
   10MOL   C266 6944   5.237   4.847   5.603 -0.2537 -0.3135  0.5114
   10MOL   C267 6945   5.205   4.697   5.581  0.1640  0.0497  0.2841
   10MOL   C268 6946   5.089   4.651   5.663 -0.4452 -0.0680 -0.0495
   10MOL   C269 6947   5.122   4.629   5.811  0.2563  1.0622  0.4853
   10MOL   C270 6948   5.020   4.549   5.891  0.3080 -0.5405  0.5912
   10MOL   C271 6949   5.062   4.528   6.042 -0.1692  0.1045 -0.1128
   10MOL   C272 6950   4.974   4.430   6.119  0.5649  0.5301  0.5038
   10MOL   C273 6951   5.002   4.434   6.279 -0.5319 -0.1968 -0.5224
   10MOL   N274 6952   4.931   4.319   6.352  0.4077  0.1811  0.4836
   10MOL   H275 6953   5.408   5.023   5.736 -1.0769 -1.1869 -0.6366
   10MOL   H276 6954   5.557   4.951   5.667 -1.3349 -1.3725 -2.3513
   10MOL   H277 6955   5.329   5.111   5.527 -2.0052 -2.5350 -3.5182
   10MOL   H278 6956   5.466   5.090   5.451  1.5745  0.9046  2.1157
   10MOL   H279 6957   5.410   4.818   5.477  1.5087  0.8422  0.7075
   10MOL   H280 6958   5.288   4.915   5.406 -2.1058 -0.8750  1.2091
   10MOL   H281 6959   5.268   4.860   5.706 -0.4068  1.5643  0.3304
   10MOL   H282 6960   5.144   4.901   5.586  0.6620  1.8024  2.0163
   10MOL   H283 6961   5.289   4.631   5.600  1.5562  1.0678 -2.1459
   10MOL   H284 6962   5.181   4.687   5.475  1.1355 -0.0722  0.0729
   10MOL   H285 6963   5.057   4.557   5.618 -1.3607  0.5923 -0.7999
   10MOL   H286 6964   5.004   4.718   5.646  0.5484  2.0061  2.6899
   10MOL   H287 6965   5.126   4.726   5.862 -1.5435  1.8190 -0.7602
   10MOL   H288 6966   5.218   4.578   5.820 -0.1023 -0.7680 -4.5744
   10MOL   H289 6967   5.008   4.448   5.853  5.2566 -1.0668  0.0878
   10MOL   H290 6968   4.920   4.591   5.882 -0.3885 -1.9669  1.4457
   10MOL   H291 6969   5.046   4.624   6.092 -3.2520 -0.3394 -0.1899
   10MOL   H292 6970   5.166   4.509   6.068  0.4812  1.3896 -1.7015
   10MOL   H293 6971   4.987   4.329   6.081  0.4991  0.2748  1.1517
   10MOL   H294 6972   4.869   4.456   6.104  0.3662  0.1973  1.2503
   10MOL   H295 6973   4.959   4.531   6.304  0.5569 -0.1148  1.0686
   10MOL   H296 6974   5.108   4.421   6.299 -0.9763 -1.5836  0.9968
   10MOL   H297 6975   4.936   4.226   6.314 -0.3320  0.0906  0.5935
   10MOL   C298 6976   4.864   4.336   6.468  0.0464 -0.3732 -0.0884
   10MOL   O299 6977   4.863   4.435   6.543  0.3803  0.1353 -0.1306
   10MOL   C300 6978   4.777   4.218   6.499 -0.6055 -0.0984  0.1743
   10MOL   C301 6979   4.864   4.117   6.574  0.2452 -0.2631  0.2753
   10MOL   C302 6980   4.785   4.009   6.662  1.0521 -0.2444 -0.4403
   10MOL   C303 6981   4.884   3.922   6.728 -0.2251  0.3060  0.0943
   10MOL   C304 6982   4.981   3.981   6.835 -0.3304  0.3123 -0.0561
   10MOL   C305 6983   5.059   3.874   6.912 -0.4943  0.3043  0.6067
   10MOL   C306 6984   5.148   3.779   6.822 -0.1120 -0.3726 -0.3406
   10MOL   C307 6985   5.246   3.699   6.908  0.3953 -1.1481 -0.1180
   10MOL   C308 6986   5.377   3.786   6.941  0.2997 -0.1983  0.0273
   10MOL   C309 6987   5.464   3.710   7.039  0.2409 -0.1347  0.1437
   10MOL   C310 6988   5.591   3.799   7.065 -0.2723 -0.4346 -0.3223
   10MOL   N311 6989   5.695   3.726   7.144  0.6462  0.1126  0.5406
   10MOL   H312 6990   4.729   4.186   6.407 -1.3168  1.8560 -0.1562
   10MOL   H313 6991   4.693   4.251   6.560  0.9411  1.4770  1.5352
   10MOL   H314 6992   4.941   4.077   6.509 -0.6343 -1.8024  0.1475
   10MOL   H315 6993   4.928   4.163   6.649  0.0751 -0.8267  0.7818
   10MOL   H316 6994   4.715   3.958   6.596 -1.3323 -0.1299  1.9335
   10MOL   H317 6995   4.719   4.057   6.733  1.5891 -0.5207  0.2570
   10MOL   H318 6996   4.818   3.849   6.776 -0.5633 -0.3922 -1.4268
   10MOL   H319 6997   4.946   3.866   6.659 -1.1142 -1.1681  0.4608
   10MOL   H320 6998   4.913   4.035   6.901  0.4243 -0.3889  1.3153
   10MOL   H321 6999   5.051   4.049   6.788  0.4065 -0.8703 -0.6860
   10MOL   H322 7000   4.982   3.820   6.966  1.0728 -3.4308 -0.7620
   10MOL   H323 7001   5.119   3.927   6.986 -0.4892 -1.2577  1.7352
   10MOL   H324 7002   5.196   3.847   6.752  0.7912 -0.1748  0.4678
   10MOL   H325 7003   5.082   3.710   6.770  0.0847  1.3470 -2.9293
   10MOL   H326 7004   5.283   3.615   6.850  0.3147 -0.5640 -1.0204
   10MOL   H327 7005   5.197   3.669   7.000  1.5754  1.6595  1.4905
   10MOL   H328 7006   5.344   3.880   6.986 -0.0313 -1.3411  2.2214
   10MOL   H329 7007   5.424   3.816   6.847  0.3588  0.3796  0.2339
   10MOL   H330 7008   5.508   3.614   7.013  0.8748  0.2406 -0.1890
   10MOL   H331 7009   5.421   3.690   7.137 -0.1187  1.2459  0.2724
   10MOL   H332 7010   5.553   3.896   7.099  0.2263 -0.5011  0.4373
   10MOL   H333 7011   5.636   3.817   6.968 -1.7546 -0.4651 -1.0338
   10MOL   H334 7012   5.778   3.700   7.095  0.1686 -1.5501  0.5882
   10MOL   C335 7013   5.677   3.686   7.268 -0.2484  0.2892  0.4331
   10MOL   O336 7014   5.589   3.737   7.337  0.1582  0.4938  0.5962
   10MOL   C337 7015   5.785   3.593   7.324  0.1435 -0.0502 -0.2221
   10MOL   C338 7016   5.778   3.452   7.258  0.1657 -0.3298 -0.1307
   10MOL   C339 7017   5.663   3.363   7.302 -0.5521 -0.2256 -0.0189
   10MOL   C340 7018   5.658   3.217   7.240  0.5826 -0.3909  0.4773
   10MOL   C341 7019   5.543   3.138   7.293 -0.4728  0.3582  0.1192
   10MOL   C342 7020   5.529   2.998   7.229 -0.0242 -0.1905  0.8486
   10MOL   C343 7021   5.395   2.930   7.266 -0.1841 -0.0483 -0.4153
   10MOL   C344 7022   5.380   2.911   7.422  0.7995 -0.2257 -0.2077
   10MOL   C345 7023   5.252   2.841   7.467  0.1504 -0.4524  0.2697
   10MOL   C346 7024   5.126   2.925   7.433  0.0874  0.2034 -0.1310
   10MOL   C347 7025   5.117   3.060   7.510 -0.4470  0.2226  0.2512
   10MOL   N348 7026   5.125   3.048   7.657 -0.5321 -0.3861 -0.2834
   10MOL   H349 7027   5.765   3.589   7.431 -1.7245  2.8696 -0.3883
   10MOL   H350 7028   5.884   3.635   7.304 -0.0955  0.5320 -0.2078
   10MOL   H351 7029   5.783   3.444   7.149  0.9736 -0.7608 -0.0724
   10MOL   H352 7030   5.869   3.402   7.292  0.4658 -1.4674 -2.4679
   10MOL   H353 7031   5.576   3.424   7.280  0.0921  0.3940 -0.8617
   10MOL   H354 7032   5.666   3.356   7.411 -0.7839  0.5818  0.0384
   10MOL   H355 7033   5.642   3.239   7.135  1.5302 -1.0393  0.1907
   10MOL   H356 7034   5.757   3.175   7.261 -0.0057 -2.7949 -1.3796
   10MOL   H357 7035   5.451   3.197   7.298  0.0147  1.2308 -0.8925
   10MOL   H358 7036   5.569   3.131   7.399  1.0340  2.0127 -0.1026
   10MOL   H359 7037   5.609   2.933   7.264 -1.5425 -0.7488  3.4717
   10MOL   H360 7038   5.534   3.003   7.121 -0.3751  1.5754  0.9001
   10MOL   H361 7039   5.384   2.832   7.220 -2.2512  0.2481 -0.6166
   10MOL   H362 7040   5.314   2.998   7.241 -0.9235  0.9114  4.1718
   10MOL   H363 7041   5.398   3.003   7.478 -1.2967  0.3198 -0.4013
   10MOL   H364 7042   5.465   2.849   7.453  0.6630 -1.8019 -2.8101
   10MOL   H365 7043   5.253   2.825   7.575 -2.0262  0.5142  0.4489
   10MOL   H366 7044   5.243   2.742   7.423  3.0051 -0.2765 -0.8622
   10MOL   H367 7045   5.040   2.862   7.456 -0.1578  0.6596  0.2069
   10MOL   H368 7046   5.109   2.946   7.328  2.4211  3.4956  0.0596
   10MOL   H369 7047   5.019   3.106   7.495 -1.3595 -1.6250  0.3413
   10MOL   H370 7048   5.198   3.125   7.476  0.2627  0.9148  3.1382
   10MOL   H371 7049   5.162   3.131   0.007 -3.2550  0.9322 -0.3700
   10MOL   C372 7050   5.033   2.985   0.035 -0.5073 -0.5120  0.5073
   10MOL   O373 7051   4.952   2.903   7.682 -0.6945  0.0044  0.2072
   10MOL   C374 7052   5.030   3.016   0.186  0.3878  0.6315 -1.0462
   10MOL   C375 7053   4.896   2.964   0.254 -0.6660  0.1914  0.1980
   10MOL   C376 7054   4.887   3.032   0.395  0.3005  0.7978  0.8791
   10MOL   C377 7055   4.766   2.988   0.473 -0.2666 -0.0126 -0.3382
   10MOL   C378 7056   4.759   3.046   0.616 -0.6382  0.4818  0.2983
   10MOL   C379 7057   4.741   3.198   0.628 -0.5617 -0.2245  0.4829
   10MOL   C380 7058   4.604   3.251   0.594  0.0744 -0.1241 -0.2714
   10MOL   C381 7059   4.572   3.384   0.657  1.1966 -0.0073 -0.3194
   10MOL   C382 7060   4.641   3.504   0.603 -0.1810  0.0923  0.2296
   10MOL   C383 7061   4.592   3.544   0.462  0.8196  1.1430 -0.4294
   10MOL   C384 7062   4.652   3.665   0.397  0.1773 -0.4583  0.1104
   10MOL   N385 7063   4.578   3.711   0.275  0.9116  0.4463  0.4226
   10MOL   H386 7064   5.044   3.122   0.207  0.4044  0.4462 -0.0875
   10MOL   H387 7065   5.120   2.967   0.224  0.5631  0.4875 -1.6418
   10MOL   H388 7066   4.807   2.977   0.191 -0.1091 -0.1958 -0.6771
   10MOL   H389 7067   4.905   2.857   0.267  4.5128  1.0363  5.1581
   10MOL   H390 7068   4.893   3.141   0.382  0.5245  0.4916 -2.0861
   10MOL   H391 7069   4.972   3.000   0.454  0.8960  0.8392  0.0564
   10MOL   H392 7070   4.688   3.015   0.402 -0.5887 -0.8909 -0.3227
   10MOL   H393 7071   4.784   2.881   0.482  3.2319  0.5413  0.2282
   10MOL   H394 7072   4.851   3.028   0.672  0.0078  0.4144 -0.7860
   10MOL   H395 7073   4.676   2.993   0.663 -0.6924 -1.1972 -1.6307
   10MOL   H396 7074   4.814   3.242   0.560 -0.4920 -0.4999  0.3785
   10MOL   H397 7075   4.761   3.231   0.730  0.2237  1.1693 -0.1125
   10MOL   H398 7076   4.526   3.178   0.613 -1.4240  1.4676 -0.1154
   10MOL   H399 7077   4.597   3.259   0.486  1.2715 -2.0248 -0.4974
   10MOL   H400 7078   4.574   3.388   0.766  0.8599 -0.5392 -0.2931
   10MOL   H401 7079   4.465   3.392   0.638  0.9886  0.1549  0.8625
   10MOL   H402 7080   4.747   3.480   0.596 -0.1431  1.1532 -3.3611
   10MOL   H403 7081   4.624   3.590   0.668 -2.6657 -1.6760  2.0062
   10MOL   H404 7082   4.484   3.561   0.464  0.4207 -1.1989 -0.6302
   10MOL   H405 7083   4.596   3.456   0.398 -1.8926  0.6137  0.0706
   10MOL   H406 7084   4.753   3.635   0.373 -0.5713 -3.1389  0.1162
   10MOL   H407 7085   4.656   3.756   0.458  0.1129 -0.2145 -0.2480
   10MOL   H408 7086   4.513   3.644   0.237  1.7156 -0.4746  0.6668
   10MOL   C409 7087   4.614   3.811   0.188  0.2734 -0.5909 -0.6372
   10MOL   O410 7088   4.700   3.896   0.217  0.1450 -1.0166  0.2874
   10MOL   C411 7089   4.553   3.817   0.046 -0.4728  0.3240  0.3294
   10MOL   C412 7090   4.535   3.963   0.005  0.1325  0.5845 -0.2339
   10MOL   C413 7091   4.447   3.967   7.571 -0.3592  0.0816  0.1117
   10MOL   C414 7092   4.419   4.109   7.512  0.4084  0.1313 -0.4462
   10MOL   C415 7093   4.402   4.108   7.359 -0.2228 -0.1096 -0.5675
   10MOL   C416 7094   4.437   4.238   7.295  0.0348  0.0251  0.0200
   10MOL   C417 7095   4.424   4.229   7.141 -0.1366 -0.2276  0.4798
   10MOL   C418 7096   4.465   4.365   7.069  0.3787 -0.4260 -0.8860
   10MOL   C419 7097   4.464   4.372   6.911  1.0184  0.1836  0.3875
   10MOL   C420 7098   4.513   4.501   6.852 -0.0778 -0.6066 -0.2737
   10MOL   C421 7099   4.542   4.494   6.700  0.0435  0.1278  0.1420
   10MOL   N422 7100   4.598   4.614   6.649  0.6393 -0.1772  0.3385
   10MOL   H423 7101   4.456   3.769   0.053 -1.1684  1.5799 -0.3948
   10MOL   H424 7102   4.594   3.746   7.668 -2.4642  0.4603 -0.9835
   10MOL   H425 7103   4.491   4.026   0.082  1.2585  1.3510 -0.1996
   10MOL   H426 7104   4.631   3.999   7.661  0.9986 -0.3964  0.9967
   10MOL   H427 7105   4.357   3.907   7.589  0.3353 -0.7671  0.7612
   10MOL   H428 7106   4.493   3.889   7.510 -2.0005 -1.6181  0.9670
   10MOL   H429 7107   4.355   4.174   7.571  0.7595 -0.9072  1.1025
   10MOL   H430 7108   4.510   4.166   7.524 -0.0511  0.9765 -0.9460
   10MOL   H431 7109   4.297   4.087   7.337 -0.7653  1.1195  0.7433
   10MOL   H432 7110   4.462   4.029   7.316 -0.7442  0.7936 -3.0279
   10MOL   H433 7111   4.542   4.262   7.312  1.2561 -4.0267 -1.0703
   10MOL   H434 7112   4.368   4.313   7.333  1.5370  1.1470  0.5387
   10MOL   H435 7113   4.324   4.197   7.112 -0.0136 -1.0156  0.9208
   10MOL   H436 7114   4.488   4.149   7.104 -1.4625 -1.8366  1.6043
   10MOL   H437 7115   4.568   4.382   7.099  0.3369 -1.9710  0.1950
   10MOL   H438 7116   4.413   4.449   7.116  2.1732 -0.0959  0.5801
   10MOL   H439 7117   4.368   4.354   6.864  0.3192  0.3152  1.7406
   10MOL   H440 7118   4.521   4.288   6.871  0.8208  1.1162 -1.9422
   10MOL   H441 7119   4.603   4.540   6.900  1.0734 -0.6720 -2.3039
   10MOL   H442 7120   4.444   4.584   6.865 -0.8984 -1.0218 -1.8461
   10MOL   H443 7121   4.452   4.471   6.644 -0.1099  2.6468 -0.7399
   10MOL   H444 7122   4.620   4.419   6.691 -1.3201 -1.1137 -1.4510
   10MOL   H445 7123   4.642   4.681   6.710 -1.4901 -0.0286  1.7686
   10MOL   C446 7124   4.607   4.636   6.519  0.0434 -0.0808 -0.5268
   10MOL   O447 7125   4.547   4.565   6.440  0.0602  0.4895 -0.4023
   10MOL   C448 7126   4.686   4.752   6.465 -0.1661  0.1905  0.5000
   10MOL   C449 7127   4.625   4.804   6.332 -0.1522 -0.1706  0.1948
   10MOL   C450 7128   4.685   4.727   6.210  0.1938 -0.1211 -0.5398
   10MOL   C451 7129   4.605   4.743   6.080  0.0095 -0.7013 -0.3445
   10MOL   C452 7130   4.584   4.890   6.044 -0.2765 -0.5048  0.4356
   10MOL   C453 7131   4.538   4.905   5.898 -0.0974  0.0791 -0.7366
   10MOL   C454 7132   4.501   5.039   5.855  0.0501  0.1040 -0.0629
   10MOL   C455 7133   4.442   5.049   5.714  0.5236 -0.4556 -0.9149
   10MOL   C456 7134   4.387   5.190   5.669 -0.0079 -0.3530 -0.3306
   10MOL   C457 7135   4.502   5.291   5.640  0.2548 -0.0478  0.1148
   10MOL   C458 7136   4.458   5.434   5.597 -0.4672  0.3647 -0.4722
   10MOL   N459 7137   4.391   5.488   5.708  0.2309  0.0888 -0.2622
   10MOL   H460 7138   4.788   4.722   6.439  0.2259  1.1795  0.8754
   10MOL   H461 7139   4.685   4.826   6.545 -0.9686  2.7240 -1.7606
   10MOL   H462 7140   4.516   4.803   6.338 -0.0870 -1.1064  1.4129
   10MOL   H463 7141   4.653   4.908   6.315  0.4537 -0.4463 -0.5448
   10MOL   H464 7142   4.697   4.623   6.240 -1.6802 -0.1732  0.1016
   10MOL   H465 7143   4.789   4.756   6.192  0.3136  0.1052  0.5209
   10MOL   H466 7144   4.664   4.703   5.998  1.4730  2.3998 -0.8923
   10MOL   H467 7145   4.510   4.691   6.090 -0.2279  0.0101  1.2925
   10MOL   H468 7146   4.676   4.946   6.061  0.9174 -1.7044 -1.9390
   10MOL   H469 7147   4.513   4.947   6.104  2.8626  2.4976  1.4749
   10MOL   H470 7148   4.457   4.835   5.876 -0.3360  0.5367 -1.3626
   10MOL   H471 7149   4.617   4.879   5.827  0.6051 -1.2327  0.5201
   10MOL   H472 7150   4.586   5.107   5.859 -0.1332  0.3862 -1.0319
   10MOL   H473 7151   4.425   5.072   5.925  0.2300 -0.2303  0.2947
   10MOL   H474 7152   4.357   4.981   5.713  1.1087 -1.2948  1.9599
   10MOL   H475 7153   4.506   5.018   5.631  2.6964  2.1073 -0.2620
   10MOL   H476 7154   4.327   5.226   5.752  1.3198 -1.5856  1.1960
   10MOL   H477 7155   4.322   5.179   5.582  0.3335 -1.5430 -0.4542
   10MOL   H478 7156   4.561   5.255   5.555  0.7917  0.1830  0.3837
   10MOL   H479 7157   4.569   5.306   5.725 -1.1363  0.2287  1.1622
   10MOL   H480 7158   4.387   5.426   5.515  0.2974  0.3522 -1.1467
   10MOL   H481 7159   4.547   5.489   5.566 -0.9975  1.5935  0.1514
   10MOL   H482 7160   4.291   5.472   5.709  0.4214 -1.2133 -1.5205
   10MOL   C483 7161   4.438   5.569   5.802 -0.5099 -0.2760 -0.2905
   10MOL   O484 7162   4.557   5.602   5.802 -0.5887 -0.5766 -0.0244
   10MOL   C485 7163   4.337   5.638   5.893  1.1545 -0.5987  0.1140
   10MOL   C486 7164   4.251   5.548   5.973  0.2682 -0.3401  0.2404
   10MOL   C487 7165   4.330   5.456   6.063 -0.1441 -0.6436  0.3264
   10MOL   C488 7166   4.238   5.417   6.184 -0.2617  0.4614  0.0107
   10MOL   C489 7167   4.320   5.334   6.288 -0.6770  0.3141 -0.7010
   10MOL   C490 7168   4.239   5.323   6.426 -1.1198 -0.1848 -1.1035
   10MOL   C491 7169   4.106   5.251   6.427 -0.0916  0.2654  0.2656
   10MOL   C492 7170   4.037   5.240   6.566 -0.6056 -1.1519  0.1082
   10MOL   C493 7171   3.906   5.156   6.549 -0.3855 -0.0966  0.0470
   10MOL   C494 7172   3.843   5.139   6.687  0.0129  0.4698 -0.2052
   10MOL   C495 7173   3.715   5.057   6.683  0.2683 -0.5311 -0.4874
   10MOL   N496 7174   3.670   5.039   6.819  0.0049  0.3610  0.0492
   10MOL   H497 7175   4.271   5.707   5.840 -0.8512 -2.6010 -0.0525
   10MOL   H498 7176   4.386   5.693   5.973  0.0002  0.8568 -0.1512
   10MOL   H499 7177   4.178   5.604   6.032 -0.7146  0.0315 -1.3076
   10MOL   H500 7178   4.186   5.492   5.906 -0.5965  0.1922  0.6130
   10MOL   H501 7179   4.418   5.501   6.109 -2.2949  0.7786  3.2101
   10MOL   H502 7180   4.374   5.365   6.023 -1.1558 -1.5947  1.3499
   10MOL   H503 7181   4.202   5.510   6.228 -1.5783 -0.1103  0.1614
   10MOL   H504 7182   4.153   5.364   6.142  0.7121 -1.6543  0.6561
   10MOL   H505 7183   4.415   5.385   6.306 -0.8591  0.3853  0.1026
   10MOL   H506 7184   4.333   5.236   6.241  1.2511 -0.2679  0.9497
   10MOL   H507 7185   4.215   5.426   6.452  2.4215  0.5055 -0.3258
   10MOL   H508 7186   4.314   5.283   6.494  0.8283  1.6608 -2.1202
   10MOL   H509 7187   4.124   5.154   6.380  1.3026 -0.3838  2.0894
   10MOL   H510 7188   4.033   5.290   6.356 -0.1131 -1.4906 -0.7132
   10MOL   H511 7189   4.022   5.343   6.599  2.4857 -1.0737  1.3748
   10MOL   H512 7190   4.110   5.189   6.629  3.2220  0.7043 -2.6920
   10MOL   H513 7191   3.922   5.054   6.514 -1.9188  0.0915 -1.2381
   10MOL   H514 7192   3.840   5.204   6.477  1.8747  0.7998 -1.4661
   10MOL   H515 7193   3.817   5.235   6.732  1.3009  1.1845 -0.9384
   10MOL   H516 7194   3.927   5.095   6.741  0.7865  2.3973  0.2149
   10MOL   H517 7195   3.738   4.957   6.645  0.2266 -0.8789  0.3920
   10MOL   H518 7196   3.651   5.105   6.609  0.4600 -0.4238 -0.5855
   10MOL   H519 7197   3.743   4.993   6.871 -0.5331  0.3050  0.7516
   10MOL   C520 7198   3.543   5.065   6.868 -0.2997 -0.0878  0.2296
   10MOL   O521 7199   3.459   5.114   6.797  0.4378 -0.3852  0.1455
   10MOL   C522 7200   3.519   5.020   7.016 -0.0394  0.1985  0.1586
   10MOL   C523 7201   3.478   5.135   7.110 -0.0747  0.6715  0.3298
   10MOL   C524 7202   3.578   5.249   7.131 -0.6841  0.9772 -0.7405
   10MOL   C525 7203   3.718   5.189   7.159  0.0093 -0.1302 -0.4941
   10MOL   C526 7204   3.834   5.296   7.168 -0.5585 -0.4830  0.0156
   10MOL   C527 7205   3.894   5.335   7.033  0.0765 -0.1979  0.3371
   10MOL   C528 7206   3.988   5.453   7.027 -0.7383 -0.1905  0.0855
   10MOL   C529 7207   4.031   5.497   6.884 -0.1959 -0.4585 -0.5082
   10MOL   C530 7208   4.144   5.601   6.898  0.0509 -0.1342 -0.1140
   10MOL   C531 7209   4.092   5.736   6.954 -0.0424 -0.5102  0.7282
   10MOL   C532 7210   4.201   5.817   7.028 -0.1875  0.1582 -0.0308
   10MOL   N533 7211   4.224   5.745   7.151  0.2167 -0.0530 -0.2656
   10MOL   H534 7212   3.607   4.969   7.054  1.1850  1.4331 -1.0005
   10MOL   H535 7213   3.440   4.944   7.016  1.2372 -1.1469 -1.1693
   10MOL   H536 7214   3.382   5.181   7.084  0.3056  1.5314  0.4287
   10MOL   H537 7215   3.460   5.082   7.203  0.5566  0.8159  0.5375
   10MOL   H538 7216   3.551   5.312   7.215 -0.7969  1.6964 -1.3164
   10MOL   H539 7217   3.586   5.325   7.053 -0.4597 -0.1507 -1.8318
   10MOL   H540 7218   3.723   5.131   7.251  2.7038 -0.8236 -1.0390
   10MOL   H541 7219   3.750   5.117   7.084 -0.3466 -1.2542  0.4079
   10MOL   H542 7220   3.916   5.247   7.221  0.8900 -1.4324 -2.9767
   10MOL   H543 7221   3.806   5.383   7.228 -0.8027 -1.6628  1.6665
   10MOL   H544 7222   3.805   5.368   6.978  0.2961 -0.9181 -0.4491
   10MOL   H545 7223   3.939   5.256   6.974 -1.0831 -0.9948  0.4936
   10MOL   H546 7224   4.068   5.435   7.098  0.3526  0.9501 -0.8236
   10MOL   H547 7225   3.923   5.534   7.061 -1.2580  0.4862 -2.3824
   10MOL   H548 7226   3.952   5.538   6.821 -1.0091  1.2422  1.5476
   10MOL   H549 7227   4.081   5.419   6.827 -0.3482 -0.9366  0.0045
   10MOL   H550 7228   4.191   5.634   6.806 -1.5378  2.3219 -0.0790
   10MOL   H551 7229   4.221   5.556   6.961 -1.5119 -0.3727  1.7028
   10MOL   H552 7230   4.008   5.729   7.023 -0.2260 -2.1736  0.3717
   10MOL   H553 7231   4.068   5.800   6.870  1.4599 -0.6272  0.1902
   10MOL   H554 7232   4.168   5.918   7.052 -0.2330  0.0468  0.3677
   10MOL   H555 7233   4.284   5.834   6.959 -1.8352  0.4274 -2.0017
   10MOL   H556 7234   4.146   5.711   7.205  0.5678  0.5561  0.6280
   10MOL   C557 7235   4.338   5.691   7.192  0.4718  0.9272  0.0606
   10MOL   O558 7236   4.449   5.698   7.136 -0.3448  0.5813  0.9923
   10MOL   C559 7237   4.327   5.620   7.324 -0.5803  0.0726 -0.5855
   10MOL   C560 7238   4.445   5.516   7.357 -0.3742  0.2557 -0.3883
   10MOL   C561 7239   4.422   5.423   7.470  0.0429 -0.0586  0.4613
   10MOL   C562 7240   4.528   5.307   7.469 -0.4399  0.1381  0.1574
   10MOL   C563 7241   4.511   5.198   7.578  0.2235  0.0784 -0.4410
   10MOL   C564 7242   4.634   5.106   7.584  0.4005 -0.2038 -0.5072
   10MOL   C565 7243   4.644   4.977   7.677 -0.3148  0.0132 -0.5606
   10MOL   C566 7244   4.645   5.016   0.131 -0.1192  0.2422 -0.2046
   10MOL   C567 7245   4.776   5.058   0.180 -0.1992 -0.3509 -0.3454
   10MOL   C568 7246   4.794   5.084   0.325 -0.4331  0.1975 -0.1363
   10MOL   C569 7247   4.705   5.192   0.382  0.1519  0.3976  0.2461
   10MOL   N570 7248   4.720   5.189   0.529  0.2113  0.2950  0.4882
   10MOL   H571 7249   4.226   5.581   7.339 -1.4533  2.1296 -0.9601
   10MOL   H572 7250   4.350   5.701   7.393 -2.5820  0.6220 -0.5416
   10MOL   H573 7251   4.448   5.456   7.266 -1.9823  0.5300 -0.6505
   10MOL   H574 7252   4.538   5.572   7.364  0.1156 -0.2711 -2.5341
   10MOL   H575 7253   4.328   5.371   7.448  0.9860 -1.1240 -1.1058
   10MOL   H576 7254   4.415   5.467   7.569 -0.2256 -0.5910  0.6803
   10MOL   H577 7255   4.531   5.257   7.372  0.8686  1.1153 -0.3354
   10MOL   H578 7256   4.622   5.360   7.485 -0.6807  0.3694  0.8119
   10MOL   H579 7257   4.425   5.131   7.574 -0.3619  0.8676 -1.1941
   10MOL   H580 7258   4.482   5.252   7.668 -0.5822  0.2279 -0.7828
   10MOL   H581 7259   4.714   5.172   7.619  0.9801 -0.2169 -1.7697
   10MOL   H582 7260   4.677   5.087   7.486  0.6561 -1.5422 -0.1382
   10MOL   H583 7261   4.731   4.916   7.653 -1.5020 -0.9513 -2.5491
   10MOL   H584 7262   4.561   4.908   7.664 -0.2096 -0.2865  0.3484
   10MOL   H585 7263   4.600   4.937   0.191  1.0153 -0.6396 -0.4889
   10MOL   H586 7264   4.576   5.100   0.128  0.0206  0.4701  2.4017
   10MOL   H587 7265   4.808   5.143   0.120 -1.3013 -1.4650 -2.5810
   10MOL   H588 7266   4.841   4.975   0.152  0.9667  0.0673  1.0909
   10MOL   H589 7267   4.894   5.125   0.312 -0.3783 -0.0297 -0.4259
   10MOL   H590 7268   4.797   4.992   0.383  2.7025 -0.1851 -0.8468
   10MOL   H591 7269   4.601   5.166   0.365 -0.1105  0.6100  1.5077
   10MOL   H592 7270   4.737   5.286   0.337 -0.8451  0.7699  0.3090
   10MOL   H593 7271   4.744   5.100   0.570  0.8130  0.5752  0.7523
   10MOL   C594 7272   4.671   5.284   0.613  0.7122  0.2712  0.2962
   10MOL   O595 7273   4.618   5.383   0.579 -0.1116  0.1146 -0.2439
   10MOL   C596 7274   4.686   5.254   0.755  0.3966 -0.3784  0.3249
   10MOL   C597 7275   4.688   5.382   0.849  0.7435 -0.9809  0.3407
   10MOL   C598 7276   4.699   5.353   0.996  0.1798  0.0884  0.7619
   10MOL   C599 7277   4.766   5.471   1.073 -0.3860 -0.0115  0.3803
   10MOL   C600 7278   4.762   5.457   1.226 -0.2876 -0.8247 -0.0298
   10MOL   C601 7279   4.840   5.572   1.296  0.4752  0.1724 -0.8758
   10MOL   C602 7280   4.805   5.594   1.451  0.3814  0.5097 -0.2886
   10MOL   C603 7281   4.829   5.734   1.509 -0.0609 -0.6412 -0.6856
   10MOL   C604 7282   4.747   5.763   1.633  0.3287  0.1915 -0.0533
   10MOL   C605 7283   4.806   5.877   1.711 -0.0421  0.0674 -0.2102
   10MOL   C606 7284   4.784   6.013   1.645 -0.1128 -0.2845 -0.3843
   10MOL   N607 7285   4.857   6.111   1.727 -0.4105  0.0238  0.4645
   10MOL   H608 7286   4.763   5.179   0.773 -0.8676 -1.3762  1.7172
   10MOL   H609 7287   4.588   5.217   0.784 -0.0533  0.3497 -0.2455
   10MOL   H610 7288   4.772   5.446   0.820  0.8440 -1.1451  0.2634
   10MOL   H611 7289   4.599   5.443   0.836 -1.0041 -2.6094  3.9502
   10MOL   H612 7290   4.759   5.263   1.005  1.4891  0.7645 -0.7461
   10MOL   H613 7291   4.598   5.329   1.030 -0.1229 -0.9318 -0.7772
   10MOL   H614 7292   4.866   5.486   1.031 -0.8398  1.2183 -0.2754
   10MOL   H615 7293   4.714   5.566   1.060 -1.6234 -0.6639  0.5465
   10MOL   H616 7294   4.805   5.361   1.255 -0.0256 -0.9781 -0.8966
   10MOL   H617 7295   4.658   5.465   1.256 -0.0418  0.9523  0.4437
   10MOL   H618 7296   4.809   5.665   1.249  0.7403  1.0171  0.5906
   10MOL   H619 7297   4.946   5.550   1.279  0.2275 -0.7237 -1.2832
   10MOL   H620 7298   4.853   5.520   1.515 -1.5040 -0.1577  0.3669
   10MOL   H621 7299   4.697   5.587   1.448  0.4799 -0.7430 -1.8205
   10MOL   H622 7300   4.808   5.801   1.425  1.7387 -0.6078 -1.1353
   10MOL   H623 7301   4.936   5.733   1.528 -0.0497  0.8167 -0.5509
   10MOL   H624 7302   4.748   5.676   1.698 -0.0882  1.5021  1.7332
   10MOL   H625 7303   4.642   5.774   1.607 -0.5215 -1.7293  2.4881
   10MOL   H626 7304   4.911   5.856   1.733 -0.9190 -3.0360  1.2541
   10MOL   H627 7305   4.755   5.890   1.806  0.3946  3.7718 -0.4070
   10MOL   H628 7306   4.683   6.054   1.642  0.7826  2.1173  0.7634
   10MOL   H629 7307   4.830   6.015   1.547  2.0603  1.6723  0.6164
   10MOL   H630 7308   4.838   6.123   1.826 -1.0740  1.6359  0.1613
   10MOL   C631 7309   4.978   6.170   1.696  0.6464  0.3390  0.6184
   10MOL   O632 7310   5.026   6.175   1.582  0.4997  0.0866  0.6026
   10MOL   C633 7311   5.052   6.230   1.813 -0.0684 -0.4115  0.1463
   10MOL   C634 7312   5.207   6.255   1.789  0.9715  0.4283  0.1160
   10MOL   C635 7313   5.279   6.353   1.886 -0.0406  0.3367 -0.4099
   10MOL   C636 7314   5.253   6.503   1.868  0.0849 -0.3144 -0.3095
   10MOL   C637 7315   5.296   6.556   1.728  0.3949  0.4135 -0.4121
   10MOL   C638 7316   5.323   6.706   1.739 -0.5124  0.0425  0.7120
   10MOL   C639 7317   5.351   6.778   1.600  0.7221 -0.3819  0.0421
   10MOL   C640 7318   5.400   6.919   1.618 -0.2400  0.1464 -0.0712
   10MOL   C641 7319   5.447   6.991   1.487 -0.1076  0.1952  0.0434
   10MOL   C642 7320   5.348   6.986   1.369  0.7384  0.6020 -0.2567
   10MOL   C643 7321   5.405   7.056   1.243 -0.0261 -0.1868  1.0442
   10MOL   N644 7322   5.305   7.068   1.134 -0.5094 -0.4536  0.5975
   10MOL   H645 7323   5.040   6.184   1.911  1.5810 -0.6954  0.2181
   10MOL   H646 7324   5.018   6.332   1.833 -0.1043 -1.0393  3.4742
   10MOL   H647 7325   5.270   6.167   1.797 -0.9067 -0.7616  2.3577
   10MOL   H648 7326   5.222   6.285   1.685 -0.6250 -1.7665 -0.7739
   10MOL   H649 7327   5.386   6.340   1.872 -0.4373 -0.8799 -2.6807
   10MOL   H650 7328   5.269   6.319   1.989  1.2833 -0.3061 -0.4887
   10MOL   H651 7329   5.153   6.541   1.890 -0.4485 -1.3088 -0.9699
   10MOL   H652 7330   5.323   6.552   1.936 -1.2947 -0.0487  0.9547
   10MOL   H653 7331   5.214   6.542   1.657  1.6426 -2.1639 -1.3776
   10MOL   H654 7332   5.384   6.506   1.688  0.0218 -0.2219 -0.4400
   10MOL   H655 7333   5.400   6.726   1.813 -0.0447  1.4433 -0.1570
   10MOL   H656 7334   5.239   6.759   1.784 -0.3339  2.1233 -1.3758
   10MOL   H657 7335   5.258   6.763   1.546  0.4529 -2.1593  0.9578
   10MOL   H658 7336   5.420   6.710   1.550  1.3497 -0.9687  1.6631
   10MOL   H659 7337   5.480   6.918   1.692  1.4026  0.6137 -1.8089
   10MOL   H660 7338   5.323   6.982   1.663 -2.7206 -2.0131 -1.1462
   10MOL   H661 7339   5.547   6.956   1.464 -0.7078 -1.7908  0.3002
   10MOL   H662 7340   5.469   7.096   1.500 -0.9101  0.5154 -1.0612
   10MOL   H663 7341   5.253   7.036   1.389 -0.0730 -0.1290 -2.2015
   10MOL   H664 7342   5.320   6.883   1.348 -0.2072  0.5386  1.2107
   10MOL   H665 7343   5.487   6.992   1.210  0.3673  1.3954 -1.1752
   10MOL   H666 7344   5.445   7.155   1.264  0.6430 -0.2301 -0.0079
   10MOL   H667 7345   5.287   7.160   1.099  1.1446 -0.4681 -0.3329
   10MOL   C668 7346   5.261   6.967   1.064 -0.4801 -0.7667 -0.9169
   10MOL   O669 7347   5.303   6.852   1.087  0.1759  0.8988  0.0450
   10MOL   C670 7348   5.158   6.995   0.951 -0.1366  0.0483 -0.4699
   10MOL   C671 7349   5.054   6.886   0.954  0.1337  0.6430 -0.0713
   10MOL   C672 7350   4.908   6.938   0.967 -0.0853  0.3356 -0.2374
   10MOL   C673 7351   4.859   6.946   1.118  0.0916  0.1174  0.3100
   10MOL   C674 7352   4.708   6.981   1.118 -0.3655 -0.7947  0.0363
   10MOL   C675 7353   4.642   7.000   1.253 -0.0888 -0.5790  0.2326
   10MOL   C676 7354   4.496   7.032   1.225 -0.2299  0.1493 -0.8063
   10MOL   C677 7355   4.427   7.050   1.356 -0.0955  0.7526  0.6739
   10MOL   C678 7356   4.276   7.045   1.348 -0.1310  0.6689  0.5011
   10MOL   C679 7357   4.219   6.902   1.362  0.0315 -0.0317  0.0827
   10MOL   C680 7358   4.084   6.906   1.314  0.4969 -0.0246  0.7565
   10MOL   N681 7359   4.030   6.770   1.310 -0.4340 -0.0907  0.6318
   10MOL   H682 7360   5.223   6.978   0.865 -0.4910 -1.0504 -0.5288
   10MOL   H683 7361   5.122   7.098   0.947  1.1207  0.6401  2.1278
   10MOL   H684 7362   5.063   6.834   0.859 -0.9274  2.5026 -1.2148
   10MOL   H685 7363   5.076   6.810   1.029 -1.8089 -0.1689 -0.2827
   10MOL   H686 7364   4.847   6.864   0.915 -1.6372 -1.2957  3.6685
   10MOL   H687 7365   4.893   7.022   0.899 -2.3362 -0.0713 -0.2815
   10MOL   H688 7366   4.864   6.850   1.168  1.6050  0.2843  0.5002
   10MOL   H689 7367   4.923   7.018   1.169  2.0174 -1.0420 -0.4375
   10MOL   H690 7368   4.652   6.903   1.067  0.1866 -1.9575  1.1822
   10MOL   H691 7369   4.690   7.070   1.058  0.9050 -1.7626 -1.8584
   10MOL   H692 7370   4.673   7.084   1.315 -2.0948 -0.0696  0.5872
   10MOL   H693 7371   4.659   6.906   1.304 -0.8175 -0.4191  0.7832
   10MOL   H694 7372   4.455   6.946   1.173 -0.9341 -0.1846  0.2755
   10MOL   H695 7373   4.478   7.111   1.153  0.8338 -1.8256 -3.3150
   10MOL   H696 7374   4.457   7.144   1.401  1.3677  0.8201 -0.4204
   10MOL   H697 7375   4.455   6.975   1.430 -2.8359 -0.8353  0.1566
   10MOL   H698 7376   4.229   7.102   1.269 -1.3820 -1.6492 -0.4604
   10MOL   H699 7377   4.231   7.092   1.435 -0.0656  2.5154 -0.4507
   10MOL   H700 7378   4.238   6.857   1.459  1.1707 -1.2155 -0.6611
   10MOL   H701 7379   4.276   6.847   1.286  1.5371  2.3774 -0.5840
   10MOL   H702 7380   4.072   6.954   1.217  1.1691 -3.5953 -1.2137
   10MOL   H703 7381   4.033   6.968   1.387 -3.4991 -1.9980 -0.1674
   10MOL   H704 7382   4.095   6.692   1.311 -0.1737  0.1249  1.3975
   10MOL   C705 7383   3.902   6.736   1.316 -0.8784 -0.0537  0.4927
   10MOL   O706 7384   3.810   6.820   1.313 -0.5567  0.1552 -0.5560
   10MOL   C707 7385   3.867   6.589   1.331 -0.4455  1.1866 -0.2001
   10MOL   C708 7386   3.789   6.559   1.460 -0.2149 -0.2847 -0.0253
   10MOL   C709 7387   3.859   6.604   1.592  0.1550 -0.3652 -1.1155
   10MOL   C710 7388   3.781   6.563   1.716  0.7834 -0.3548  0.6135
   10MOL   C711 7389   3.854   6.600   1.847  0.3490 -0.0252 -0.2365
   10MOL   C712 7390   3.784   6.554   1.974 -0.7467  0.5383 -0.4895
   10MOL   C713 7391   3.879   6.574   2.097 -0.0876 -0.7783 -0.7262
   10MOL   C714 7392   3.814   6.545   2.231 -0.0219 -0.0106  0.5921
   10MOL   C715 7393   3.899   6.582   2.353  0.4801 -0.3392 -0.1177
   10MOL   C716 7394   3.829   6.556   2.486 -0.4780 -0.9873  0.9548
   10MOL   C717 7395   3.712   6.653   2.495 -0.0272 -0.1524 -0.6187
   10MOL   N718 7396   3.658   6.651   2.628  0.1099 -0.0155  0.1245
   10MOL   H719 7397   3.961   6.534   1.323 -1.0585  0.1851 -0.6023
   10MOL   H720 7398   3.808   6.555   1.246  3.0470  0.6864 -2.5167
   10MOL   H721 7399   3.698   6.619   1.450 -0.8635 -1.2240  0.1463
   10MOL   H722 7400   3.756   6.455   1.462 -1.2572 -0.0231 -2.0444
   10MOL   H723 7401   3.869   6.713   1.595  1.9270 -0.5282 -0.5450
   10MOL   H724 7402   3.958   6.560   1.599  0.4032  0.4119  0.7801
   10MOL   H725 7403   3.683   6.610   1.705  0.7165 -0.5108  0.5500
   10MOL   H726 7404   3.770   6.455   1.711  1.1065 -0.3630  0.0703
   10MOL   H727 7405   3.869   6.708   1.841 -1.8219  0.2126 -2.3359
   10MOL   H728 7406   3.956   6.561   1.844  1.0719  1.8353 -1.2145
   10MOL   H729 7407   3.772   6.447   1.954 -0.9193  0.0694  1.9660
   10MOL   H730 7408   3.683   6.590   1.992 -0.9953  0.4937 -1.7033
   10MOL   H731 7409   3.897   6.682   2.094 -1.4792 -0.4789  0.7258
   10MOL   H732 7410   3.974   6.521   2.100 -0.0904 -0.7908 -0.8681
   10MOL   H733 7411   3.786   6.439   2.233 -0.7972  0.0986 -2.4175
   10MOL   H734 7412   3.728   6.612   2.234 -0.6207 -0.6423 -1.5915
   10MOL   H735 7413   3.942   6.681   2.338  0.0532  0.1348  1.5742
   10MOL   H736 7414   3.988   6.520   2.355  1.5656  1.1784 -0.6197
   10MOL   H737 7415   3.901   6.561   2.568  0.4129 -0.7347  0.1562
   10MOL   H738 7416   3.796   6.454   2.505 -3.3052 -0.2034  0.4300
   10MOL   H739 7417   3.643   6.634   2.413  0.6048  1.0301 -1.4352
   10MOL   H740 7418   3.746   6.755   2.476  0.4898  0.0918  1.4268
   10MOL   H741 7419   3.564   6.686   2.622  0.6512  1.6115  0.7592
   10MOL   H742 7420   3.653   6.552   2.646 -0.9410  0.2024  1.0618
   11MOL     C1 7421   1.839   6.156   1.026  0.1502 -0.0901  0.5791
   11MOL     O2 7422   1.932   6.228   1.048 -0.1932 -1.1275  0.1121
   11MOL     C3 7423   1.819   6.038   1.125 -0.3265  0.6396  0.2528
   11MOL     C4 7424   1.874   5.909   1.055  0.1739  0.0236  0.4090
   11MOL     C5 7425   1.853   5.783   1.130 -0.2557 -0.1203 -0.1239
   11MOL     C6 7426   1.708   5.739   1.165 -0.2092  0.4872 -0.3950
   11MOL     C7 7427   1.700   5.601   1.228 -0.0065  0.1700 -0.1328
   11MOL     C8 7428   1.556   5.546   1.261  0.0785  0.1828 -0.0545
   11MOL     C9 7429   1.497   5.488   1.137  0.5991  0.0871 -0.4288
   11MOL    C10 7430   1.346   5.437   1.154 -0.3977  0.7363 -0.6425
   11MOL    C11 7431   1.288   5.383   1.024 -0.6236 -0.1308  0.1715
   11MOL    C12 7432   1.137   5.361   1.029 -0.6530  0.1440  0.0998
   11MOL    C13 7433   1.095   5.303   0.892 -0.1098  0.0499 -0.1651
   11MOL    N14 7434   1.090   5.406   0.799 -0.4123  0.4573 -0.4970
   11MOL    H15 7435   1.713   6.019   1.140 -0.5033  0.3006 -1.2855
   11MOL    H16 7436   1.869   6.059   1.220  0.3012 -1.2435  0.3569
   11MOL    H17 7437   1.817   5.891   0.964  0.6538  0.1719  0.0736
   11MOL    H18 7438   1.980   5.923   1.032  0.3114  1.7977  1.9847
   11MOL    H19 7439   1.902   5.801   1.226 -2.6149  0.6066  0.9736
   11MOL    H20 7440   1.903   5.708   1.070 -1.4391 -0.6991 -0.3882
   11MOL    H21 7441   1.666   5.816   1.229 -1.5417 -0.9053  0.4569
   11MOL    H22 7442   1.653   5.750   1.072 -1.5819 -0.0592  0.3293
   11MOL    H23 7443   1.759   5.612   1.319  1.6666  1.8422 -1.3852
   11MOL    H24 7444   1.756   5.530   1.167  1.4433 -0.7602  2.1667
   11MOL    H25 7445   1.481   5.618   1.293 -0.6128 -0.2775 -0.6190
   11MOL    H26 7446   1.559   5.461   1.328 -0.6507 -0.0237 -0.2832
   11MOL    H27 7447   1.560   5.408   1.098 -2.7814 -3.0050  0.1843
   11MOL    H28 7448   1.501   5.567   1.062 -1.3164 -0.6022 -1.2675
   11MOL    H29 7449   1.282   5.508   1.206  2.5879  2.1568  1.2755
   11MOL    H30 7450   1.343   5.357   1.227  0.2789 -1.4501 -2.9564
   11MOL    H31 7451   1.343   5.292   1.004  1.4837  1.3309 -0.8995
   11MOL    H32 7452   1.316   5.449   0.942 -2.4544  0.3793 -0.0645
   11MOL    H33 7453   1.080   5.451   1.050 -0.4585  1.3262 -4.0980
   11MOL    H34 7454   1.133   5.284   1.106  2.1365 -0.3960 -0.2220
   11MOL    H35 7455   0.997   5.254   0.901  0.0401 -0.4843 -1.3715
   11MOL    H36 7456   1.171   5.233   0.857  0.0017  1.8290 -3.6434
   11MOL    H37 7457   1.092   5.500   0.835 -1.0869  0.1960  0.2277
   11MOL    H38 7458   1.757   6.168   0.955 -0.1323  0.2622  0.9670
   11MOL    C39 7459   1.054   5.394   0.673 -0.5457  0.0369  0.0434
   11MOL    O40 7460   1.029   5.290   0.615 -0.0084  0.1888 -0.1947
   11MOL    C41 7461   1.047   5.519   0.590  0.3898 -0.0946 -0.6598
   11MOL    C42 7462   1.174   5.533   0.497 -0.7757  0.3317 -0.0077
   11MOL    C43 7463   1.287   5.606   0.558 -0.4094  0.7310  0.5971
   11MOL    C44 7464   1.380   5.527   0.650 -0.3276 -0.3269 -0.1403
   11MOL    C45 7465   1.520   5.591   0.676 -0.3999 -0.0452  0.1565
   11MOL    C46 7466   1.616   5.498   0.756  0.7960  0.0792 -0.1126
   11MOL    C47 7467   1.742   5.449   0.678  1.3746 -0.0278 -0.5655
   11MOL    C48 7468   1.813   5.342   0.764 -0.5587 -0.2610 -0.2920
   11MOL    C49 7469   1.911   5.402   0.862 -0.2479  0.4617 -0.0878
   11MOL    C50 7470   1.966   5.300   0.969  0.5318 -0.4265  1.1417
   11MOL    C51 7471   2.066   5.364   1.064 -0.6206  0.0979 -0.1044
   11MOL    N52 7472   2.147   5.249   1.108  0.3805  0.1172 -0.4032
   11MOL    H53 7473   1.032   5.611   0.646 -1.5468 -2.1895  2.4270
   11MOL    H54 7474   0.957   5.507   0.530  0.5205 -0.4532 -0.7865
   11MOL    H55 7475   1.207   5.437   0.455  0.3738  0.0788  1.4423
   11MOL    H56 7476   1.166   5.586   0.402 -3.1556 -0.0061 -0.0218
   11MOL    H57 7477   1.237   5.685   0.615 -1.7270  0.9579 -0.8230
   11MOL    H58 7478   1.343   5.655   0.479 -0.1653 -0.3650  0.0823
   11MOL    H59 7479   1.329   5.502   0.743  0.6652 -0.4929  0.3661
   11MOL    H60 7480   1.386   5.428   0.606 -1.7453  0.9810 -3.3763
   11MOL    H61 7481   1.500   5.680   0.735 -2.4604 -1.0474  0.9853
   11MOL    H62 7482   1.567   5.610   0.579 -0.3412 -2.5422 -0.3358
   11MOL    H63 7483   1.550   5.417   0.786  0.4565  0.3953 -0.0008
   11MOL    H64 7484   1.656   5.566   0.831 -0.6016 -0.2135  0.9208
   11MOL    H65 7485   1.815   5.525   0.651 -0.9691  1.7624 -1.9882
   11MOL    H66 7486   1.714   5.402   0.584 -1.3200  1.2308 -0.4297
   11MOL    H67 7487   1.877   5.270   0.713  1.0386 -0.4473  1.8882
   11MOL    H68 7488   1.742   5.279   0.816 -0.8534 -1.5630 -2.2021
   11MOL    H69 7489   1.858   5.473   0.927 -2.3395 -3.9750  3.4213
   11MOL    H70 7490   1.994   5.445   0.807  1.3497 -0.9612  1.1942
   11MOL    H71 7491   2.014   5.225   0.907 -0.1153 -0.9914  1.3139
   11MOL    H72 7492   1.883   5.250   1.020  0.9378 -1.8469  0.4517
   11MOL    H73 7493   2.022   5.400   1.157  0.6945  0.2156  0.4825
   11MOL    H74 7494   2.122   5.444   1.017 -0.3041 -1.4040 -2.3764
   11MOL    H75 7495   2.147   5.159   1.062  1.3647 -0.4568  0.6722
   11MOL    C76 7496   2.230   5.259   1.207 -0.4650 -0.4661 -0.6409
   11MOL    O77 7497   2.248   5.368   1.266 -0.2238  0.6288  0.0094
   11MOL    C78 7498   2.320   5.142   1.234 -0.2492 -0.0414  0.4411
   11MOL    C79 7499   2.421   5.164   1.343  0.4237  0.1136 -0.5690
   11MOL    C80 7500   2.365   5.146   1.485 -0.5842 -0.3950 -0.0844
   11MOL    C81 7501   2.444   5.208   1.598 -0.8295  0.6747  0.3156
   11MOL    C82 7502   2.586   5.149   1.604 -0.1000  0.3721 -0.2569
   11MOL    C83 7503   2.665   5.194   1.726  0.7888 -0.2538  0.1414
   11MOL    C84 7504   2.779   5.103   1.765 -0.0010  0.0522  0.0645
   11MOL    C85 7505   2.909   5.117   1.674  0.1042 -0.2466 -0.5999
   11MOL    C86 7506   2.898   5.065   1.534  0.5136  0.5178  0.2926
   11MOL    C87 7507   3.030   5.085   1.456  0.1788  0.4134  0.7083
   11MOL    C88 7508   3.006   5.049   1.309  0.0175  0.4003 -0.4759
   11MOL    N89 7509   2.956   4.912   1.301 -0.4894  0.3028 -0.3703
   11MOL    H90 7510   2.370   5.116   1.141 -0.2351 -1.0903  0.7348
   11MOL    H91 7511   2.252   5.062   1.264  1.7137 -2.4464 -1.3467
   11MOL    H92 7512   2.499   5.089   1.326 -0.0300 -1.2817  3.1210
   11MOL    H93 7513   2.466   5.263   1.334  0.3078  0.3503  1.3347
   11MOL    H94 7514   2.352   5.039   1.505 -1.2068 -0.0071  1.6645
   11MOL    H95 7515   2.260   5.173   1.488 -0.7806 -1.2235  0.8803
   11MOL    H96 7516   2.463   5.314   1.586  1.1213  0.3667  0.5329
   11MOL    H97 7517   2.388   5.195   1.690 -2.5412  0.5135 -0.7293
   11MOL    H98 7518   2.638   5.183   1.514 -2.4340  2.1907 -0.9740
   11MOL    H99 7519   2.583   5.040   1.606 -1.6078  0.3985 -0.7763
   11MOL   H100 7520   2.591   5.201   1.806  0.5663 -1.6546  0.0803
   11MOL   H101 7521   2.695   5.298   1.716  1.7374 -0.6642 -1.6446
   11MOL   H102 7522   2.739   5.002   1.776  0.7028 -0.1802  0.4898
   11MOL   H103 7523   2.825   5.138   1.857  0.7372  0.9417 -0.6330
   11MOL   H104 7524   2.986   5.062   1.727  0.6136  0.2368 -0.8433
   11MOL   H105 7525   2.933   5.223   1.684  1.2415 -0.4650 -0.9887
   11MOL   H106 7526   2.825   5.129   1.485 -0.5895 -0.1664  1.0005
   11MOL   H107 7527   2.867   4.960   1.538 -1.6414  1.1813  2.8599
   11MOL   H108 7528   3.120   5.034   1.490  1.5493  1.3758 -1.3595
   11MOL   H109 7529   3.062   5.189   1.449 -0.9996  0.7030 -0.5804
   11MOL   H110 7530   3.086   5.061   1.236 -1.0380 -0.1985 -1.7478
   11MOL   H111 7531   2.931   5.117   1.268  0.7840  1.9054  0.5473
   11MOL   H112 7532   2.960   4.862   1.389 -0.8524  0.6115 -0.1794
   11MOL   C113 7533   2.908   4.857   1.189 -0.8721  0.3093 -0.0814
   11MOL   O114 7534   2.901   4.916   1.080 -0.7677  0.0318 -0.4084
   11MOL   C115 7535   2.855   4.712   1.196 -0.0995 -0.2609 -0.2972
   11MOL   C116 7536   2.763   4.665   1.080  0.6117 -0.0727  0.6318
   11MOL   C117 7537   2.743   4.510   1.088  0.9625  0.7004  0.0740
   11MOL   C118 7538   2.653   4.473   1.200 -0.2921 -0.4023 -0.0553
   11MOL   C119 7539   2.618   4.322   1.221  0.5473 -0.1615  0.0342
   11MOL   C120 7540   2.716   4.241   1.305 -0.0111 -0.0762 -0.3963
   11MOL   C121 7541   2.710   4.275   1.450  0.4296  0.2692 -0.0434
   11MOL   C122 7542   2.773   4.163   1.533 -0.6251  0.2945 -0.3665
   11MOL   C123 7543   2.796   4.190   1.683  0.0811  0.8318 -0.8423
   11MOL   C124 7544   2.930   4.275   1.698  0.1164 -0.6764 -0.3042
   11MOL   C125 7545   3.004   4.276   1.824 -0.1074  0.3310 -0.3014
   11MOL   N126 7546   2.906   4.306   1.928 -0.0884  0.4406  0.0961
   11MOL   H127 7547   2.791   4.716   1.284  1.9221  0.1903  1.1744
   11MOL   H128 7548   2.926   4.632   1.216  1.7285  1.1493 -0.9414
   11MOL   H129 7549   2.659   4.697   1.095  0.5190 -0.5449  1.0109
   11MOL   H130 7550   2.799   4.688   0.980 -1.2532  1.1581  0.2166
   11MOL   H131 7551   2.832   4.446   1.092  1.9082  1.9096 -1.1425
   11MOL   H132 7552   2.691   4.482   0.997  1.0199 -0.7588  0.4719
   11MOL   H133 7553   2.698   4.508   1.293  0.0218 -0.0841 -0.3299
   11MOL   H134 7554   2.555   4.520   1.190 -0.0447  0.2013  0.3530
   11MOL   H135 7555   2.603   4.274   1.124  0.9482 -1.4983  0.6180
   11MOL   H136 7556   2.517   4.309   1.259 -0.0613  0.9385 -1.1560
   11MOL   H137 7557   2.822   4.242   1.277  0.0754 -0.3711 -0.0715
   11MOL   H138 7558   2.685   4.137   1.297 -1.6179  0.3179  0.6567
   11MOL   H139 7559   2.605   4.278   1.479  0.0602  0.4119 -1.3743
   11MOL   H140 7560   2.773   4.361   1.474 -1.0882  1.8302 -1.5317
   11MOL   H141 7561   2.868   4.136   1.487 -0.5059 -0.6220  0.4044
   11MOL   H142 7562   2.705   4.079   1.540  1.2687 -1.3128 -0.8198
   11MOL   H143 7563   2.800   4.095   1.737  0.2580  1.9316  1.1283
   11MOL   H144 7564   2.713   4.246   1.726 -1.3693 -0.1629 -2.2685
   11MOL   H145 7565   2.896   4.377   1.683 -1.9201 -1.1505  0.8504
   11MOL   H146 7566   3.006   4.248   1.624  2.4090  0.0926  1.7100
   11MOL   H147 7567   3.081   4.353   1.822  0.4613 -0.2214  0.1415
   11MOL   H148 7568   3.039   4.178   1.855 -0.1438  0.0141 -1.2405
   11MOL   H149 7569   2.819   4.255   1.930  0.3770 -0.3980 -0.4392
   11MOL   C150 7570   2.915   4.407   2.011 -0.2482 -0.1355  0.1459
   11MOL   O151 7571   3.021   4.475   2.026 -0.0695  0.0177 -0.5576
   11MOL   C152 7572   2.793   4.446   2.097 -0.7113  0.7805  0.4166
   11MOL   C153 7573   2.772   4.602   2.105  0.1357  0.2867 -0.3911
   11MOL   C154 7574   2.754   4.676   1.970 -0.0967 -0.1727 -0.3764
   11MOL   C155 7575   2.664   4.601   1.873 -0.0156  0.4514 -0.0829
   11MOL   C156 7576   2.615   4.707   1.774  0.6715 -0.7024 -0.0029
   11MOL   C157 7577   2.544   4.641   1.646 -0.1830 -1.2329 -0.0249
   11MOL   C158 7578   2.523   4.746   1.539 -0.0641  0.5885  0.2934
   11MOL   C159 7579   2.446   4.694   1.415 -0.5270 -0.2882  0.1830
   11MOL   C160 7580   2.442   4.785   1.292  0.0971  0.4283 -0.1737
   11MOL   C161 7581   2.343   4.727   1.182 -0.3805 -0.1708 -0.8313
   11MOL   C162 7582   2.360   4.808   1.052 -0.1390 -0.0350 -0.0823
   11MOL   N163 7583   2.237   4.785   0.976  0.1452 -0.3249 -0.6487
   11MOL   H164 7584   2.800   4.399   2.195 -1.0683  1.0108  0.5567
   11MOL   H165 7585   2.708   4.396   2.051 -0.0714  0.0883 -0.0120
   11MOL   H166 7586   2.689   4.612   2.174  0.9125 -1.9534  0.9370
   11MOL   H167 7587   2.860   4.640   2.157 -0.5640  1.1510  0.1748
   11MOL   H168 7588   2.854   4.698   1.933 -0.7942  3.0545 -0.5435
   11MOL   H169 7589   2.717   4.777   1.990  0.8416 -0.0070  0.5641
   11MOL   H170 7590   2.697   4.513   1.817  0.1147  0.4062  0.0676
   11MOL   H171 7591   2.584   4.562   1.936  0.2833 -0.8161 -0.4695
   11MOL   H172 7592   2.703   4.765   1.747 -0.1716  1.5617  1.9006
   11MOL   H173 7593   2.542   4.776   1.815  0.3743 -0.2307 -1.3107
   11MOL   H174 7594   2.446   4.604   1.677 -0.7482 -0.2949 -0.6741
   11MOL   H175 7595   2.598   4.556   1.604  1.7994  0.9502 -2.0641
   11MOL   H176 7596   2.616   4.799   1.519 -0.7220  1.4582 -0.4782
   11MOL   H177 7597   2.463   4.830   1.575  0.0802  0.4837  0.7855
   11MOL   H178 7598   2.343   4.681   1.446 -0.1945 -0.5687  1.1806
   11MOL   H179 7599   2.486   4.598   1.383  0.5784  0.5797 -1.1027
   11MOL   H180 7600   2.547   4.801   1.268  0.3250  0.6724  0.9647
   11MOL   H181 7601   2.412   4.885   1.323  0.2513  0.8463 -1.3265
   11MOL   H182 7602   2.246   4.745   1.229  0.6458  0.0968  1.2245
   11MOL   H183 7603   2.360   4.620   1.174  1.7373  0.0201  0.8790
   11MOL   H184 7604   2.445   4.766   0.998 -0.0643 -1.3970  1.0684
   11MOL   H185 7605   2.376   4.915   1.067 -0.4054  0.4321 -2.9337
   11MOL   H186 7606   2.221   4.695   0.932 -0.6005 -0.7484  0.4611
   11MOL   C187 7607   2.133   4.860   0.980 -0.5195 -1.1957  0.3399
   11MOL   O188 7608   2.126   4.965   1.044  0.1600 -0.1970  0.0993
   11MOL   C189 7609   2.007   4.808   0.913  0.0548 -0.2985  0.0001
   11MOL   C190 7610   1.932   4.919   0.840  0.2190  0.3079 -0.0918
   11MOL   C191 7611   1.841   4.867   0.728 -0.4392 -0.0025  0.1165
   11MOL   C192 7612   1.791   4.968   0.623 -0.5438 -0.0472 -0.1275
   11MOL   C193 7613   1.895   5.010   0.518 -0.1365  0.6260  0.6780
   11MOL   C194 7614   1.831   5.114   0.421 -0.2954 -0.2202 -0.5677
   11MOL   C195 7615   1.730   5.061   0.326 -0.8192  0.3303  0.4504
   11MOL   C196 7616   1.676   5.172   0.229 -0.2168  0.1005  0.1987
   11MOL   C197 7617   1.556   5.124   0.138  0.4574  0.1412  0.9994
   11MOL   C198 7618   1.515   5.246   0.052  0.3665 -0.7832  0.1013
   11MOL   C199 7619   1.408   5.211   7.645  0.2590  0.6657  0.1087
   11MOL   N200 7620   1.278   5.189   0.013  0.0047  1.3095  0.4619
   11MOL   H201 7621   1.947   4.763   0.991  0.1163 -2.1017 -0.9643
   11MOL   H202 7622   2.052   4.736   0.845 -1.8627  0.8261 -2.5383
   11MOL   H203 7623   1.876   4.973   0.917  1.4053 -3.5197  3.6745
   11MOL   H204 7624   2.001   4.988   0.793 -0.6467  0.6295 -0.9123
   11MOL   H205 7625   1.756   4.810   0.767  0.7368  0.1890  3.0540
   11MOL   H206 7626   1.900   4.791   0.676  0.9304  1.0546  0.1043
   11MOL   H207 7627   1.705   4.917   0.581 -0.9832  0.3118  0.3253
   11MOL   H208 7628   1.753   5.057   0.673  2.5888  0.6065  1.2363
   11MOL   H209 7629   1.943   4.923   0.472  0.6637  1.8584 -0.8958
   11MOL   H210 7630   1.974   5.061   0.572  0.2673  2.3442 -1.4567
   11MOL   H211 7631   1.907   5.162   0.360 -1.4268  0.9815 -1.0420
   11MOL   H212 7632   1.787   5.193   0.482  1.0346 -0.2478  0.4482
   11MOL   H213 7633   1.643   5.022   0.380  0.3376 -1.6163  0.9431
   11MOL   H214 7634   1.783   4.987   0.266 -1.5123 -2.3201  2.9387
   11MOL   H215 7635   1.754   5.205   0.162 -1.1011  2.9314  0.5094
   11MOL   H216 7636   1.630   5.257   0.279 -1.0701  0.9564 -1.9895
   11MOL   H217 7637   1.484   5.066   0.195  0.5503 -0.9595  0.0110
   11MOL   H218 7638   1.587   5.036   0.082  0.3086  1.1708 -0.7549
   11MOL   H219 7639   1.609   5.283   0.010  0.0919 -0.7552 -0.5014
   11MOL   H220 7640   1.481   5.335   0.103  0.5817 -1.6386  1.7636
   11MOL   H221 7641   1.437   5.124   7.585  1.6648 -0.3714  2.1988
   11MOL   H222 7642   1.405   5.283   7.564 -1.2598  0.4174 -0.0701
   11MOL   H223 7643   1.261   5.097   0.052  1.4479  1.6836  2.0425
   11MOL   C224 7644   1.194   5.284   0.033  0.0844 -0.8186 -0.6324
   11MOL   O225 7645   1.214   5.404   0.007 -0.2058 -0.4902  0.1937
   11MOL   C226 7646   1.066   5.252   0.116 -0.2779  0.9370  0.7335
   11MOL   C227 7647   1.034   5.345   0.234 -0.5793 -0.1727 -0.1475
   11MOL   C228 7648   0.881   5.352   0.272 -0.0456 -0.1450  0.9334
   11MOL   C229 7649   0.807   5.225   0.321  0.3132  0.1224  0.3298
   11MOL   C230 7650   0.655   5.246   0.320 -0.1406  0.5051 -0.4534
   11MOL   C231 7651   0.574   5.116   0.334 -0.7856  0.0549 -0.4856
   11MOL   C232 7652   0.427   5.143   0.299 -0.1701  0.1522 -0.1769
   11MOL   C233 7653   0.347   5.009   0.307  0.9095 -0.0746  0.3728
   11MOL   C234 7654   0.203   5.031   0.260  0.2340 -0.1001  0.2735
   11MOL   C235 7655   0.130   4.909   0.196 -0.1039 -0.2670  0.0353
   11MOL   C236 7656   7.676   4.930   0.151 -0.0039 -0.0961 -0.9806
   11MOL   N237 7657   7.646   4.816   0.066 -0.4818 -0.0039  0.0740
   11MOL   H238 7658   1.079   5.151   0.153  2.3203  0.5560 -1.0947
   11MOL   H239 7659   0.994   5.241   0.035 -0.2886 -1.4504  1.0597
   11MOL   H240 7660   1.097   5.316   0.318 -1.5771 -0.8564  0.3765
   11MOL   H241 7661   1.067   5.444   0.202 -0.3443 -0.8288 -1.9497
   11MOL   H242 7662   0.827   5.395   0.187 -1.4371 -0.0186  1.8744
   11MOL   H243 7663   0.875   5.434   0.342  0.6356  0.1302  0.6762
   11MOL   H244 7664   0.828   5.143   0.252 -2.8346  0.4821 -1.1574
   11MOL   H245 7665   0.837   5.185   0.418  1.3528 -2.5539 -1.0306
   11MOL   H246 7666   0.614   5.314   0.246 -1.0167 -0.5944 -1.0081
   11MOL   H247 7667   0.622   5.304   0.406 -1.3128 -1.9417  0.8158
   11MOL   H248 7668   0.582   5.082   0.438  0.3583 -1.3333 -1.0223
   11MOL   H249 7669   0.620   5.040   0.271 -0.8602 -0.9608  0.6498
   11MOL   H250 7670   0.414   5.163   0.192 -1.3496 -0.0731 -0.0872
   11MOL   H251 7671   0.379   5.223   0.355 -2.4688 -1.1371 -0.2506
   11MOL   H252 7672   0.348   4.976   0.411 -0.7978  0.2931  0.5309
   11MOL   H253 7673   0.405   4.943   0.244  0.0071 -0.3410 -0.1799
   11MOL   H254 7674   0.197   5.116   0.191  0.7176 -1.2595 -1.2445
   11MOL   H255 7675   0.137   5.060   0.341  0.9075  0.1308  0.7473
   11MOL   H256 7676   0.134   4.820   0.259  0.6249  1.3032  2.2508
   11MOL   H257 7677   0.184   4.887   0.104  1.4428  1.6497  0.4552
   11MOL   H258 7678   7.647   5.023   0.103  0.5745  0.0073 -1.1369
   11MOL   H259 7679   7.611   4.912   0.237  1.1233 -0.4226 -0.1862
   11MOL   H260 7680   0.032   4.773   0.023 -1.2952 -1.5255  0.0359
   11MOL   C261 7681   7.524   4.783   0.018 -0.2766 -0.2572 -0.1594
   11MOL   O262 7682   7.425   4.839   0.061  0.3152 -0.1393  0.5501
   11MOL   C263 7683   7.522   4.668   7.613 -0.9311 -0.4068  0.0082
   11MOL   C264 7684   7.457   4.536   7.671 -0.1964 -0.0225 -0.4485
   11MOL   C265 7685   7.504   4.409   7.595  0.0202  0.0914 -0.5024
   11MOL   C266 7686   7.403   4.297   7.599  0.9850  0.7632  1.1776
   11MOL   C267 7687   7.366   4.246   0.043  0.1375  0.0794  0.1422
   11MOL   C268 7688   7.253   4.152   0.053 -0.3287  0.2430  1.2426
   11MOL   C269 7689   7.225   4.126   0.206 -0.5945 -0.0019 -0.5149
   11MOL   C270 7690   7.149   3.997   0.230 -0.2925 -0.6539 -0.2660
   11MOL   C271 7691   7.100   3.979   0.377 -0.8179  0.4078 -0.0432
   11MOL   C272 7692   7.019   4.094   0.433  0.2625 -0.0098 -0.7956
   11MOL   C273 7693   6.942   4.044   0.558 -0.1516  0.2914  0.4665
   11MOL   N274 7694   7.020   4.036   0.680 -0.1783 -0.0938 -0.3729
   11MOL   H275 7695   7.626   4.650   7.584 -1.0916 -0.0893 -0.7806
   11MOL   H276 7696   7.469   4.689   7.520 -0.1231 -1.1505 -0.6320
   11MOL   H277 7697   7.479   4.527   0.083  2.9247  1.3935 -0.9198
   11MOL   H278 7698   7.350   4.546   7.651  0.0433 -1.3782 -2.5216
   11MOL   H279 7699   7.596   4.375   7.643 -1.1738  0.5648  2.2324
   11MOL   H280 7700   7.526   4.432   7.491  2.8037  0.9235  0.2316
   11MOL   H281 7701   7.311   4.338   7.556  0.9569 -1.0742 -0.6293
   11MOL   H282 7702   7.437   4.216   7.534  1.1421  1.1877  0.7226
   11MOL   H283 7703   7.363   4.334   0.107  0.3824 -0.2303  0.5761
   11MOL   H284 7704   7.458   4.204   0.083  0.3865  1.8129  1.4494
   11MOL   H285 7705   7.259   4.065   7.681  0.8470  1.5657 -0.4455
   11MOL   H286 7706   7.172   4.213   0.013 -0.6890 -0.2942  1.1328
   11MOL   H287 7707   7.168   4.210   0.247 -1.3114 -2.0706  2.9019
   11MOL   H288 7708   7.317   4.130   0.264 -1.9338  3.1081  1.5272
   11MOL   H289 7709   7.208   3.909   0.207  2.7104  1.0368  0.5679
   11MOL   H290 7710   7.067   3.993   0.159 -0.0038  2.5897 -0.8708
   11MOL   H291 7711   7.177   3.948   0.448  0.1941  2.1899 -0.3450
   11MOL   H292 7712   7.032   3.897   0.352 -4.1679  3.2138 -0.5215
   11MOL   H293 7713   6.939   4.119   0.363 -1.8794 -1.0290  1.2080
   11MOL   H294 7714   7.080   4.183   0.447 -0.3013  0.7070 -2.6534
   11MOL   H295 7715   6.906   3.943   0.542  1.7952 -0.1336 -1.4826
   11MOL   H296 7716   6.868   4.117   0.591 -0.1078  0.2281  0.7100
   11MOL   H297 7717   7.113   4.076   0.670  0.2901 -1.1832 -0.4695
   11MOL   C298 7718   6.965   3.999   0.798 -0.0462  0.0623 -0.0382
   11MOL   O299 7719   6.849   3.965   0.809  0.2845 -0.2622 -0.0349
   11MOL   C300 7720   7.057   4.011   0.924  0.1831  0.3898 -0.4126
   11MOL   C301 7721   6.980   3.962   1.054  0.6711 -0.4131 -0.0911
   11MOL   C302 7722   6.863   4.053   1.091 -0.4130 -0.8729  0.0411
   11MOL   C303 7723   6.813   4.037   1.233 -0.1282 -0.2080  0.1326
   11MOL   C304 7724   6.710   4.143   1.269 -0.2876 -0.0120  0.2175
   11MOL   C305 7725   6.657   4.142   1.410 -0.2073 -0.0972 -0.4071
   11MOL   C306 7726   6.543   4.241   1.436 -0.2039 -0.1170 -0.0021
   11MOL   C307 7727   6.580   4.382   1.384  0.1134 -0.2224  0.1261
   11MOL   C308 7728   6.703   4.436   1.464  0.0338 -0.1787  0.3286
   11MOL   C309 7729   6.743   4.574   1.423  0.4558 -0.1577  0.0772
   11MOL   C310 7730   6.854   4.639   1.508 -0.0349 -0.3962 -0.3161
   11MOL   N311 7731   6.880   4.770   1.457 -0.4827  0.0257 -0.0086
   11MOL   H312 7732   7.105   4.107   0.941  1.8071 -0.8457  2.4661
   11MOL   H313 7733   7.140   3.945   0.902  0.0909  0.6594 -1.6139
   11MOL   H314 7734   6.951   3.859   1.036  1.9173 -1.1776  2.0272
   11MOL   H315 7735   7.044   3.945   1.141 -0.6600 -0.3097  0.9120
   11MOL   H316 7736   6.781   4.033   1.023 -0.0469 -2.3583  0.0054
   11MOL   H317 7737   6.898   4.151   1.060 -0.7090 -0.6871  0.2956
   11MOL   H318 7738   6.760   3.943   1.252  0.6608 -0.5383  0.7433
   11MOL   H319 7739   6.893   4.039   1.307  0.8353 -1.7253 -0.8394
   11MOL   H320 7740   6.629   4.139   1.196  0.7480 -2.0637 -0.8670
   11MOL   H321 7741   6.757   4.239   1.247 -0.3393  0.0428  0.3465
   11MOL   H322 7742   6.726   4.168   1.490  1.2511  4.7983 -3.0722
   11MOL   H323 7743   6.617   4.042   1.428 -0.0089 -0.6407 -2.7840
   11MOL   H324 7744   6.519   4.246   1.542  0.3689  1.7518  0.0692
   11MOL   H325 7745   6.460   4.203   1.377 -0.3221 -0.1487  0.1838
   11MOL   H326 7746   6.500   4.456   1.382  0.7012  0.4218 -2.3637
   11MOL   H327 7747   6.609   4.378   1.279 -1.1419 -1.2735 -0.1903
   11MOL   H328 7748   6.795   4.378   1.455 -0.2217 -0.7345  1.2122
   11MOL   H329 7749   6.687   4.427   1.572 -1.0454  0.0119  0.1952
   11MOL   H330 7750   6.652   4.634   1.428 -0.4802 -1.3825 -1.9022
   11MOL   H331 7751   6.773   4.562   1.319  1.2227 -2.9515  0.5892
   11MOL   H332 7752   6.934   4.565   1.502 -0.3105 -0.8228  1.2433
   11MOL   H333 7753   6.821   4.647   1.611  2.8980 -0.7481  0.7106
   11MOL   H334 7754   6.849   4.796   1.364  2.0689  4.1821  0.1982
   11MOL   C335 7755   6.945   4.862   1.525  0.0706  0.2599 -0.2668
   11MOL   O336 7756   6.967   4.859   1.648 -0.0381  0.4703  0.1424
   11MOL   C337 7757   6.999   4.974   1.445  0.1110 -0.7588 -0.4430
   11MOL   C338 7758   7.022   5.112   1.511  0.2640 -0.3403 -0.4212
   11MOL   C339 7759   7.167   5.135   1.560  0.2480  0.4497  0.2947
   11MOL   C340 7760   7.200   5.284   1.596 -0.3876  0.2088 -0.3440
   11MOL   C341 7761   7.087   5.364   1.676  0.0411 -0.7928  0.4863
   11MOL   C342 7762   7.070   5.305   1.819 -0.9330  0.2983 -0.5561
   11MOL   C343 7763   6.970   5.369   1.912  0.0611 -0.1555 -0.5567
   11MOL   C344 7764   6.919   5.269   2.014  0.4314 -0.3795 -0.0893
   11MOL   C345 7765   6.797   5.320   2.095  0.2754  0.0039  0.5589
   11MOL   C346 7766   6.718   5.213   2.181  0.7101  0.1364  0.1379
   11MOL   C347 7767   6.607   5.273   2.279 -0.1160  0.5349  0.0539
   11MOL   N348 7768   6.545   5.162   2.355  0.2136  0.2259 -0.2533
   11MOL   H349 7769   6.929   4.988   1.362 -0.6737 -0.9152  0.1970
   11MOL   H350 7770   7.096   4.938   1.410  1.1086  1.1036  0.3038
   11MOL   H351 7771   7.000   5.194   1.443 -0.4847 -1.2108 -1.2575
   11MOL   H352 7772   6.953   5.125   1.595 -1.5792 -1.5600 -1.6994
   11MOL   H353 7773   7.229   5.100   1.477 -0.6900 -1.7594  0.4950
   11MOL   H354 7774   7.195   5.069   1.641 -2.3116 -1.0131  0.0715
   11MOL   H355 7775   7.293   5.288   1.652 -0.4894  1.2384 -0.2372
   11MOL   H356 7776   7.218   5.336   1.502  1.3125 -0.3575 -0.3397
   11MOL   H357 7777   6.994   5.362   1.619  0.4442  0.2884 -0.2255
   11MOL   H358 7778   7.127   5.465   1.672  0.7674 -1.1545 -1.7399
   11MOL   H359 7779   7.166   5.299   1.871 -0.3336 -1.6928 -1.8443
   11MOL   H360 7780   7.037   5.204   1.791 -1.1496 -0.2042  1.4129
   11MOL   H361 7781   6.880   5.390   1.856  2.7019  2.4378 -4.0152
   11MOL   H362 7782   6.997   5.464   1.957  0.0611  0.4643 -1.8688
   11MOL   H363 7783   7.004   5.247   2.077 -0.2945 -1.0364  0.6790
   11MOL   H364 7784   6.897   5.181   1.953 -0.0271 -0.5048  0.2515
   11MOL   H365 7785   6.730   5.365   2.022 -0.9188 -1.5580  0.6647
   11MOL   H366 7786   6.836   5.401   2.156  1.0077  0.5922 -0.6788
   11MOL   H367 7787   6.804   5.177   2.237  0.6004 -1.0503 -0.4193
   11MOL   H368 7788   6.684   5.136   2.111  2.0238 -0.0531 -0.2942
   11MOL   H369 7789   6.535   5.329   2.219 -0.3846 -0.6478 -0.7552
   11MOL   H370 7790   6.652   5.349   2.343  1.4218  0.7857 -1.2873
   11MOL   H371 7791   6.610   5.111   2.414 -0.5453 -0.6411 -0.1650
   11MOL   C372 7792   6.416   5.136   2.346  0.1289 -0.5299  0.2070
   11MOL   O373 7793   6.342   5.184   2.259 -0.4509  0.1064 -0.4650
   11MOL   C374 7794   6.363   5.035   2.453 -0.4097  0.4698  0.0382
   11MOL   C375 7795   6.245   4.945   2.427 -0.0416 -0.1867  0.5961
   11MOL   C376 7796   6.245   4.813   2.509 -0.1889  0.0951  0.3475
   11MOL   C377 7797   6.232   4.831   2.666  0.3230  0.2811 -1.1466
   11MOL   C378 7798   6.197   4.706   2.743  0.1172 -0.4337 -0.0167
   11MOL   C379 7799   6.187   4.726   2.900 -0.6570 -1.1799 -0.1070
   11MOL   C380 7800   6.125   4.603   2.969 -0.5121  0.4125  0.1017
   11MOL   C381 7801   6.167   4.595   3.116 -0.3567  0.8264  0.1874
   11MOL   C382 7802   6.123   4.458   3.178  0.1450 -0.0420  0.4678
   11MOL   C383 7803   6.184   4.432   3.319  0.1868 -0.0686  0.4072
   11MOL   C384 7804   6.118   4.317   3.400 -0.2279  0.3419  0.5638
   11MOL   N385 7805   5.995   4.361   3.470 -0.6911 -0.1281 -0.4440
   11MOL   H386 7806   6.344   5.077   2.552 -2.1579 -1.1051  0.3929
   11MOL   H387 7807   6.447   4.971   2.479  0.3109  1.5970  0.5271
   11MOL   H388 7808   6.152   5.001   2.430  1.6244  2.7121 -0.2912
   11MOL   H389 7809   6.257   4.909   2.324 -2.1672 -0.4007  0.3906
   11MOL   H390 7810   6.321   4.739   2.484 -1.3274 -1.1643  0.5382
   11MOL   H391 7811   6.156   4.762   2.473 -0.1780  0.8366 -0.7606
   11MOL   H392 7812   6.326   4.870   2.705  0.4975 -0.3746 -0.9012
   11MOL   H393 7813   6.172   4.922   2.671  1.5142  1.1264 -1.9787
   11MOL   H394 7814   6.275   4.634   2.719  0.9659 -0.0860  1.5701
   11MOL   H395 7815   6.103   4.665   2.708  0.4506 -1.4114  0.2110
   11MOL   H396 7816   6.138   4.820   2.927  3.1305  0.8400 -0.0177
   11MOL   H397 7817   6.290   4.728   2.936 -0.4348  1.5664 -0.8143
   11MOL   H398 7818   6.160   4.512   2.920 -0.0303  0.2109  0.8168
   11MOL   H399 7819   6.017   4.594   2.978 -0.2677 -0.4898  2.4318
   11MOL   H400 7820   6.120   4.673   3.176 -0.3590  1.0855 -0.1506
   11MOL   H401 7821   6.274   4.610   3.129  0.0559  0.5918 -2.5543
   11MOL   H402 7822   6.145   4.370   3.117 -1.5609  0.6916 -1.2284
   11MOL   H403 7823   6.015   4.466   3.188  0.1371 -0.6301  0.9318
   11MOL   H404 7824   6.162   4.521   3.378 -0.5033 -0.4273  0.7023
   11MOL   H405 7825   6.293   4.436   3.322  0.1832 -0.3334  1.0542
   11MOL   H406 7826   6.192   4.276   3.469 -1.2561 -1.3894  0.6563
   11MOL   H407 7827   6.092   4.233   3.336 -0.4181  0.7917  0.0505
   11MOL   H408 7828   5.920   4.405   3.418  0.7348  0.7946 -1.7395
   11MOL   C409 7829   5.991   4.361   3.604 -0.1540 -0.4580 -0.4504
   11MOL   O410 7830   6.080   4.316   3.675  0.4232 -0.2032 -0.5917
   11MOL   C411 7831   5.866   4.421   3.676  0.2492 -1.1791 -0.2461
   11MOL   C412 7832   5.871   4.478   3.817  0.3110 -0.4212  0.4004
   11MOL   C413 7833   5.953   4.610   3.815  0.0172  0.9955  0.1028
   11MOL   C414 7834   5.931   4.706   3.699  0.1459 -0.0177  0.1713
   11MOL   C415 7835   6.023   4.826   3.713 -0.2890 -0.2735  0.2029
   11MOL   C416 7836   6.008   4.936   3.612  0.0282  0.9984  0.2144
   11MOL   C417 7837   6.054   4.903   3.465 -0.3841 -0.1929 -0.1122
   11MOL   C418 7838   6.112   5.028   3.394  0.1494  0.2803 -0.1440
   11MOL   C419 7839   6.116   5.014   3.240  0.5925  0.1457  0.0265
   11MOL   C420 7840   6.192   5.132   3.186 -0.3530  0.0374 -0.7237
   11MOL   C421 7841   6.215   5.106   3.037 -0.8338  0.4795 -0.0178
   11MOL   N422 7842   6.270   5.229   2.977  0.0595  0.1201  0.0887
   11MOL   H423 7843   5.810   4.328   3.686  0.1356 -0.8519  2.3677
   11MOL   H424 7844   5.813   4.494   3.615  0.1876 -1.5574 -0.6526
   11MOL   H425 7845   5.768   4.500   3.846  1.3978  3.2072  1.7593
   11MOL   H426 7846   5.913   4.407   3.888  0.0980 -1.4171 -0.4506
   11MOL   H427 7847   6.060   4.590   3.819  0.2134  1.8819 -0.5923
   11MOL   H428 7848   5.921   4.663   3.904 -0.0445  0.5561  0.3449
   11MOL   H429 7849   5.959   4.666   3.601 -2.7683  1.5910 -1.3933
   11MOL   H430 7850   5.826   4.736   3.692 -0.1314 -0.9934  0.0972
   11MOL   H431 7851   6.127   4.797   3.721  0.3513  1.4674 -1.4614
   11MOL   H432 7852   6.004   4.880   3.806  0.9516  0.8015 -0.1562
   11MOL   H433 7853   6.068   5.021   3.644  4.1024 -0.7001 -2.4749
   11MOL   H434 7854   5.908   4.978   3.613 -0.7387 -0.7035 -1.1885
   11MOL   H435 7855   5.976   4.852   3.408 -1.8271  2.1424 -0.2984
   11MOL   H436 7856   6.130   4.824   3.465 -1.6469 -1.4260 -0.8923
   11MOL   H437 7857   6.211   5.032   3.439  0.7115 -0.0251 -1.3588
   11MOL   H438 7858   6.052   5.117   3.412 -2.0024 -1.2313  0.3950
   11MOL   H439 7859   6.018   5.020   3.193  0.3895  1.9134  0.6414
   11MOL   H440 7860   6.159   4.919   3.210 -0.3034 -0.4382  0.6063
   11MOL   H441 7861   6.279   5.148   3.250 -1.2354  2.3121 -0.0424
   11MOL   H442 7862   6.120   5.214   3.192 -0.0591  0.2913 -0.6762
   11MOL   H443 7863   6.125   5.078   2.983 -0.5322  2.9077 -1.9125
   11MOL   H444 7864   6.289   5.029   3.016 -1.2676 -0.3849  1.5862
   11MOL   H445 7865   6.288   5.306   3.039 -1.6821 -1.0469  2.1066
   11MOL   C446 7866   6.314   5.234   2.850 -0.9792 -0.7908  0.6336
   11MOL   O447 7867   6.304   5.137   2.771 -0.5923 -0.1215 -0.0477
   11MOL   C448 7868   6.385   5.362   2.805  0.1129 -0.2383 -0.0012
   11MOL   C449 7869   6.433   5.363   2.660  0.5066 -0.2653 -0.5454
   11MOL   C450 7870   6.495   5.491   2.622 -0.0395  0.1779 -0.5387
   11MOL   C451 7871   6.415   5.614   2.662 -0.2245  0.0293 -0.4124
   11MOL   C452 7872   6.481   5.737   2.600 -0.3551 -0.0781 -0.4327
   11MOL   C453 7873   6.415   5.867   2.629 -0.1688  0.6499 -0.3582
   11MOL   C454 7874   6.463   5.968   2.523  0.0540  0.0139 -0.0297
   11MOL   C455 7875   6.596   6.035   2.552  0.6362  0.0329  0.3312
   11MOL   C456 7876   6.645   6.148   2.457  0.4042  0.6789 -0.0100
   11MOL   C457 7877   6.743   6.254   2.527  0.4806  0.3763  0.2630
   11MOL   C458 7878   6.771   6.367   2.424  0.3715 -0.2956 -0.1362
   11MOL   N459 7879   6.881   6.448   2.473 -0.0632  0.2157 -0.2305
   11MOL   H460 7880   6.468   5.355   2.875  0.3720  0.7182 -0.1935
   11MOL   H461 7881   6.315   5.439   2.836 -0.2254 -0.6927  0.3604
   11MOL   H462 7882   6.499   5.281   2.631  0.5059 -0.6902  0.6175
   11MOL   H463 7883   6.344   5.347   2.600 -0.2019 -1.9347  0.9209
   11MOL   H464 7884   6.507   5.489   2.514  1.2876  1.6538 -0.4398
   11MOL   H465 7885   6.596   5.494   2.663  0.1209  0.3721 -0.9510
   11MOL   H466 7886   6.310   5.603   2.637 -0.5475  2.1939 -0.1105
   11MOL   H467 7887   6.408   5.614   2.770  0.6173 -0.5171 -0.3541
   11MOL   H468 7888   6.491   5.717   2.493 -3.4301  1.8835 -1.1436
   11MOL   H469 7889   6.583   5.755   2.635  0.0196 -1.2934 -0.8912
   11MOL   H470 7890   6.431   5.905   2.730 -2.7373 -0.4799  0.5368
   11MOL   H471 7891   6.307   5.854   2.625  0.1215 -1.8790 -1.1874
   11MOL   H472 7892   6.392   6.045   2.494 -0.2297 -0.1601  0.2105
   11MOL   H473 7893   6.474   5.913   2.429 -0.9452  0.4735 -0.4304
   11MOL   H474 7894   6.674   5.959   2.550  1.0167  0.3493  2.2297
   11MOL   H475 7895   6.594   6.076   2.653  0.2318 -0.3879  0.4977
   11MOL   H476 7896   6.551   6.191   2.423  0.6278 -0.3108 -1.9231
   11MOL   H477 7897   6.682   6.111   2.361  0.4002 -1.1458  0.6834
   11MOL   H478 7898   6.836   6.202   2.552 -0.8815 -2.2535  0.0473
   11MOL   H479 7899   6.689   6.288   2.616  0.3278  3.0905 -0.8346
   11MOL   H480 7900   6.682   6.420   2.391  0.3260 -0.5532 -0.4315
   11MOL   H481 7901   6.800   6.325   2.328  0.5396  1.1620 -0.7430
   11MOL   H482 7902   6.955   6.390   2.512  0.0568  0.1331 -0.5809
   11MOL   C483 7903   6.887   6.580   2.498  0.1307  1.1197 -0.4551
   11MOL   O484 7904   6.796   6.656   2.472 -0.1243 -0.3568 -0.1625
   11MOL   C485 7905   7.013   6.636   2.563  0.1420  0.0755 -0.1044
   11MOL   C486 7906   7.066   6.766   2.491 -0.1604  0.1223  0.2468
   11MOL   C487 7907   7.165   6.846   2.575 -0.2032 -0.2665 -0.3574
   11MOL   C488 7908   7.311   6.781   2.567 -1.1153 -0.1094 -0.1203
   11MOL   C489 7909   7.428   6.870   2.613  0.2950 -0.1557  0.2786
   11MOL   C490 7910   7.568   6.807   2.621  0.2020 -0.8041 -0.4213
   11MOL   C491 7911   7.676   6.900   2.689  0.0774  0.1258  0.6854
   11MOL   C492 7912   0.109   6.829   2.703 -0.0349  0.1669 -0.2722
   11MOL   C493 7913   0.178   6.774   2.576 -0.5103  0.4783 -0.6141
   11MOL   C494 7914   0.309   6.696   2.602 -1.2266 -0.1829  0.2696
   11MOL   C495 7915   0.367   6.632   2.476  0.1132 -0.1681 -0.1424
   11MOL   N496 7916   0.502   6.586   2.499  0.2956  0.2169 -0.3618
   11MOL   H497 7917   7.095   6.563   2.569  0.7324  0.4184 -3.3707
   11MOL   H498 7918   6.990   6.664   2.666  1.6239  0.8369  0.0278
   11MOL   H499 7919   7.107   6.732   2.396 -3.1001 -0.9776 -0.6916
   11MOL   H500 7920   6.984   6.830   2.460 -0.5349 -0.9642 -1.0329
   11MOL   H501 7921   7.142   6.874   2.678 -0.3542 -2.3524  0.1981
   11MOL   H502 7922   7.164   6.938   2.517  0.7986 -0.7739 -1.1970
   11MOL   H503 7923   7.304   6.692   2.630 -1.2704  1.4889  2.2026
   11MOL   H504 7924   7.323   6.756   2.462 -0.5406 -0.3786  0.0066
   11MOL   H505 7925   7.407   6.907   2.713 -1.1142 -1.7526  0.5827
   11MOL   H506 7926   7.448   6.947   2.538 -1.7098  0.7525  0.6499
   11MOL   H507 7927   7.592   6.786   2.517  3.0887  2.6682 -0.5531
   11MOL   H508 7928   7.569   6.710   2.671 -1.2545 -0.6949 -0.1688
   11MOL   H509 7929   7.645   6.926   2.790 -0.8280  0.5427  0.3112
   11MOL   H510 7930   0.000   6.998   2.645 -2.1594  0.0355 -0.5381
   11MOL   H511 7931   0.093   6.750   2.776 -2.6316  2.7874  2.1088
   11MOL   H512 7932   0.178   6.899   2.750 -0.4295 -0.3772  1.1421
   11MOL   H513 7933   0.177   6.851   2.499  1.2524 -0.0825 -1.2132
   11MOL   H514 7934   0.120   6.708   2.512 -1.7652  0.0197  0.9463
   11MOL   H515 7935   0.297   6.626   2.684 -1.5352 -0.2125  0.2004
   11MOL   H516 7936   0.386   6.762   2.642 -1.2576 -1.8900  3.3289
   11MOL   H517 7937   0.370   6.713   2.404  0.5650  0.3620  0.4712
   11MOL   H518 7938   0.291   6.562   2.439 -2.4375  1.0246  2.6799
   11MOL   H519 7939   0.562   6.643   2.556 -1.8758  1.6775  0.5292
   11MOL   C520 7940   0.548   6.481   2.437 -0.3098 -0.2589  0.4951
   11MOL   O521 7941   0.470   6.415   2.368 -0.3138  0.8356 -0.5066
   11MOL   C522 7942   0.692   6.429   2.459  0.3449  0.5487  0.0117
   11MOL   C523 7943   0.697   6.299   2.547  0.6089 -0.7862  0.2401
   11MOL   C524 7944   0.673   6.176   2.463  0.2007 -0.0970  0.2037
   11MOL   C525 7945   0.801   6.141   2.383  0.1830  0.3227  0.4678
   11MOL   C526 7946   0.770   6.114   2.235 -0.1869 -0.3247  0.2416
   11MOL   C527 7947   0.905   6.089   2.161 -0.1170  0.4583 -0.6227
   11MOL   C528 7948   0.886   6.047   2.012 -0.2164  0.7855 -0.2061
   11MOL   C529 7949   1.006   6.033   1.932  0.1948 -0.6203  0.3033
   11MOL   C530 7950   0.985   5.997   1.786 -0.5383 -0.4809 -0.9188
   11MOL   C531 7951   0.924   5.855   1.760  0.1499  0.0802 -0.1199
   11MOL   C532 7952   0.884   5.831   1.615  0.1175 -0.3386  0.5645
   11MOL   N533 7953   0.814   5.703   1.608  0.2986  0.3071 -0.2675
   11MOL   H534 7954   0.733   6.508   2.521 -0.2711  1.3617 -0.6199
   11MOL   H535 7955   0.757   6.424   2.372  0.0487 -1.5353 -0.1173
   11MOL   H536 7956   0.786   6.300   2.610  0.3522  0.7528  0.5892
   11MOL   H537 7957   0.608   6.316   2.607  0.5994 -1.0005  0.2875
   11MOL   H538 7958   0.584   6.197   2.403 -0.3993 -1.0212  0.7437
   11MOL   H539 7959   0.659   6.094   2.534 -0.8278  0.3948  0.5849
   11MOL   H540 7960   0.875   6.221   2.378  0.3782  0.0679 -0.9605
   11MOL   H541 7961   0.852   6.053   2.422  0.4429  1.0362  1.7636
   11MOL   H542 7962   0.720   6.200   2.190  1.4374 -1.1522 -3.2812
   11MOL   H543 7963   0.694   6.038   2.219 -3.1200  2.0379  2.3460
   11MOL   H544 7964   0.960   6.009   2.210  0.2366  2.0764  1.7429
   11MOL   H545 7965   0.956   6.185   2.174  1.4006 -0.2095 -1.5684
   11MOL   H546 7966   0.824   6.117   1.955 -0.0289 -0.3804 -1.8763
   11MOL   H547 7967   0.843   5.948   2.026  0.5650  0.4492 -0.1868
   11MOL   H548 7968   1.078   5.958   1.967 -0.2617 -1.6670 -0.9490
   11MOL   H549 7969   1.068   6.123   1.928  0.3835 -0.7907 -1.0304
   11MOL   H550 7970   1.068   6.028   1.723  0.1250 -0.6435 -0.1233
   11MOL   H551 7971   0.902   6.059   1.750 -0.6957 -0.6063 -0.7680
   11MOL   H552 7972   0.834   5.841   1.821 -1.1225  1.5636 -1.6309
   11MOL   H553 7973   1.000   5.786   1.797  1.3166  0.2238 -2.1813
   11MOL   H554 7974   0.955   5.819   1.534 -2.0408 -1.2836 -1.2715
   11MOL   H555 7975   0.815   5.906   1.576  0.0090 -0.6047  0.2361
   11MOL   H556 7976   0.860   5.635   1.548  1.7244  1.5899 -0.6728
   11MOL   C557 7977   0.691   5.673   1.650  1.1575  0.0634  0.0078
   11MOL   O558 7978   0.606   5.757   1.687  0.3398 -0.4660  0.4728
   11MOL   C559 7979   0.645   5.527   1.625 -0.5792 -0.2415  0.2966
   11MOL   C560 7980   0.509   5.512   1.563  0.6052 -0.0671 -0.4297
   11MOL   C561 7981   0.512   5.439   1.432 -0.2833 -0.2432  0.6798
   11MOL   C562 7982   0.372   5.432   1.368 -1.2181 -0.1818 -0.0838
   11MOL   C563 7983   0.275   5.322   1.429  0.5292 -0.1214 -0.5132
   11MOL   C564 7984   0.135   5.320   1.356  0.2752 -0.9500 -0.8691
   11MOL   C565 7985   0.054   5.452   1.372  0.2305 -0.5240 -0.0118
   11MOL   C566 7986   7.604   5.430   1.309  0.0995  0.5471  0.5830
   11MOL   C567 7987   7.516   5.558   1.328 -0.0988  0.3049 -0.8272
   11MOL   C568 7988   7.519   5.651   1.203 -0.2297  0.9506  0.2567
   11MOL   C569 7989   7.422   5.777   1.215 -0.0356  0.6690 -0.4176
   11MOL   N570 7990   7.444   5.846   1.348  0.4138  0.0566 -0.0103
   11MOL   H571 7991   0.647   5.486   1.726  0.0981  0.0234  0.3937
   11MOL   H572 7992   0.714   5.467   1.566  1.4738 -0.7715  3.1328
   11MOL   H573 7993   0.452   5.440   1.621 -0.3884 -0.6345 -2.0884
   11MOL   H574 7994   0.458   5.606   1.544  1.9519  0.7937  0.0824
   11MOL   H575 7995   0.556   5.339   1.435  2.2088  0.5204 -4.1072
   11MOL   H576 7996   0.573   5.497   1.361  0.3198  0.5224  1.8053
   11MOL   H577 7997   0.316   5.526   1.380 -2.8945 -1.2075  0.3354
   11MOL   H578 7998   0.375   5.412   1.261 -1.1958 -0.0801 -0.1030
   11MOL   H579 7999   0.261   5.336   1.536 -1.2296  2.1950 -1.0025
   11MOL   H580 8000   0.324   5.225   1.426 -0.9998 -0.9219 -0.4697
   11MOL   H581 8001   0.083   5.237   1.403  0.7015 -1.7785 -1.8556
   11MOL   H582 8002   0.146   5.299   1.250  1.2269 -1.9666 -0.5742
   11MOL   H583 8003   0.111   5.531   1.322 -0.0091 -0.6759 -0.5294
   11MOL   H584 8004   0.040   5.479   1.477  0.6304 -0.1246 -0.0607
   11MOL   H585 8005   7.549   5.347   1.354 -1.4846  1.2016 -0.1011
   11MOL   H586 8006   7.618   5.386   1.211  1.1464  0.9684  0.5407
   11MOL   H587 8007   7.536   5.614   1.420  0.4345  0.4387 -1.0204
   11MOL   H588 8008   7.412   5.529   1.340 -0.4571  0.7100 -2.7783
   11MOL   H589 8009   7.478   5.600   1.115  1.2855 -1.4980  0.9383
   11MOL   H590 8010   7.624   5.673   1.184 -0.0464  0.9132  1.1867
   11MOL   H591 8011   7.324   5.733   1.195 -1.1759  3.3198 -0.8653
   11MOL   H592 8012   7.435   5.849   1.134 -1.8158  0.4340 -0.9354
   11MOL   H593 8013   7.538   5.861   1.382  0.5353 -1.3324  0.3000
   11MOL   C594 8014   7.350   5.865   1.443  0.2563  0.6167  0.3739
   11MOL   O595 8015   7.229   5.842   1.423 -0.1554 -0.2949  0.4184
   11MOL   C596 8016   7.407   5.915   1.573  0.1835  0.3314 -0.0911
   11MOL   C597 8017   7.313   5.887   1.689  0.6670  0.0530  0.0371
   11MOL   C598 8018   7.321   5.744   1.732  0.2950 -0.1705 -0.1046
   11MOL   C599 8019   7.258   5.717   1.870 -0.1156 -0.0640  0.3657
   11MOL   C600 8020   7.350   5.624   1.957  0.7462  0.1203 -0.2372
   11MOL   C601 8021   7.285   5.608   2.094  0.0238 -0.3225  0.1671
   11MOL   C602 8022   7.340   5.516   2.202 -0.5410  0.1355 -0.1865
   11MOL   C603 8023   7.287   5.533   2.343  0.8394  0.0899  0.5257
   11MOL   C604 8024   7.370   5.429   2.428  0.0342 -0.1792  0.2505
   11MOL   C605 8025   7.346   5.446   2.577  0.4422  0.0465 -0.1034
   11MOL   C606 8026   7.400   5.329   2.676  0.1572  0.3670 -0.0838
   11MOL   N607 8027   7.542   5.348   2.701  0.7992  0.5105  0.3368
   11MOL   H608 8028   7.428   6.021   1.567  1.0691  0.2181  0.9230
   11MOL   H609 8029   7.505   5.866   1.575 -1.1657 -2.4442  0.4953
   11MOL   H610 8030   7.352   5.947   1.772  0.0821  0.0445  0.3225
   11MOL   H611 8031   7.211   5.904   1.657  0.7671  0.1282 -0.2450
   11MOL   H612 8032   7.428   5.722   1.741 -0.0684 -1.1221  2.3411
   11MOL   H613 8033   7.277   5.680   1.656 -1.5982 -1.4290  1.9852
   11MOL   H614 8034   7.230   5.810   1.919 -0.5181  0.2519 -0.4730
   11MOL   H615 8035   7.162   5.672   1.845 -0.3631  2.4111 -3.5366
   11MOL   H616 8036   7.454   5.652   1.973  1.2278 -0.4166 -2.2665
   11MOL   H617 8037   7.348   5.531   1.900  0.2443 -0.6499  1.0082
   11MOL   H618 8038   7.183   5.570   2.080  0.1781 -0.9913  0.7954
   11MOL   H619 8039   7.278   5.703   2.146 -1.5232 -0.3795  0.1025
   11MOL   H620 8040   7.447   5.528   2.213 -0.6929  1.1291  0.2093
   11MOL   H621 8041   7.336   5.413   2.167  0.0641  0.7743 -2.2042
   11MOL   H622 8042   7.178   5.524   2.351  0.8396 -1.2341 -0.7166
   11MOL   H623 8043   7.303   5.636   2.376 -2.4819  1.1707 -0.9939
   11MOL   H624 8044   7.476   5.442   2.410 -0.2702  0.7673 -0.9259
   11MOL   H625 8045   7.357   5.328   2.391 -1.4717  0.1612 -0.1951
   11MOL   H626 8046   7.241   5.457   2.600  0.5004  0.6523 -0.1364
   11MOL   H627 8047   7.388   5.537   2.618  2.9912 -0.6426 -1.0671
   11MOL   H628 8048   7.383   5.230   2.634 -2.1037  0.8153 -0.3305
   11MOL   H629 8049   7.335   5.348   2.762  0.5551  0.4620  0.1931
   11MOL   H630 8050   7.605   5.319   2.628 -0.5011  0.8481 -0.9545
   11MOL   C631 8051   7.588   5.401   2.813 -0.6260 -0.6985 -0.6442
   11MOL   O632 8052   7.511   5.464   2.893 -0.5242 -0.0609  0.2552
   11MOL   C633 8053   0.043   5.391   2.847 -1.3711  0.3456  0.2192
   11MOL   C634 8054   0.077   5.483   2.965 -0.7799 -0.6757  0.2096
   11MOL   C635 8055   0.231   5.494   2.975  0.4435  0.3597 -0.0686
   11MOL   C636 8056   0.268   5.602   3.078  0.4140  0.3886 -0.0792
   11MOL   C637 8057   0.247   5.557   3.226 -0.7291  0.1021 -0.2046
   11MOL   C638 8058   0.326   5.642   3.334  0.9416  0.7703  0.2117
   11MOL   C639 8059   0.298   5.580   3.473  0.2361 -0.2688 -0.0067
   11MOL   C640 8060   0.381   5.647   3.576  0.2336  0.6346 -0.7693
   11MOL   C641 8061   0.330   5.613   3.720  0.1220 -0.0771  0.0684
   11MOL   C642 8062   0.409   5.687   3.821  0.0445  0.1434 -0.1176
   11MOL   C643 8063   0.339   5.685   3.960 -0.0207  0.3567  0.0211
   11MOL   N644 8064   0.422   5.754   4.063  0.4019  0.8745  0.0208
   11MOL   H645 8065   0.088   5.443   2.762 -0.4444 -0.0588  0.4623
   11MOL   H646 8066   0.075   5.288   2.861 -0.7998  0.4076 -0.5468
   11MOL   H647 8067   0.028   5.580   2.967 -3.4980 -2.0505  1.4393
   11MOL   H648 8068   0.051   5.443   3.062  0.1851 -1.7765  0.0309
   11MOL   H649 8069   0.266   5.533   2.880  2.4879 -0.5149  0.3016
   11MOL   H650 8070   0.283   5.398   2.985 -1.4540 -0.5353  1.5728
   11MOL   H651 8071   0.370   5.631   3.056  0.2818 -0.6506 -2.2444
   11MOL   H652 8072   0.205   5.690   3.067  0.8360  0.9183  1.6049
   11MOL   H653 8073   0.281   5.454   3.233 -2.8964 -0.5488  1.3508
   11MOL   H654 8074   0.145   5.554   3.265 -0.5002  1.6927  0.5554
   11MOL   H655 8075   0.290   5.745   3.327 -1.3994  0.0190  0.5891
   11MOL   H656 8076   0.434   5.653   3.324  0.9853 -0.3990 -0.7098
   11MOL   H657 8077   0.300   5.471   3.475  0.6490 -0.2859 -1.1390
   11MOL   H658 8078   0.193   5.609   3.484  0.2597  0.9214 -2.5240
   11MOL   H659 8079   0.386   5.754   3.559  3.3112  0.9278  1.4940
   11MOL   H660 8080   0.483   5.614   3.555 -0.2241 -0.6125 -1.1173
   11MOL   H661 8081   0.321   5.505   3.736 -0.5679  0.0094  0.2763
   11MOL   H662 8082   0.226   5.646   3.719 -0.7432 -2.6910 -3.2176
   11MOL   H663 8083   0.424   5.791   3.794 -0.3188  0.1636 -0.2379
   11MOL   H664 8084   0.510   5.648   3.830 -0.9065 -2.4674 -0.3951
   11MOL   H665 8085   0.312   5.585   3.992 -2.4432  1.0171  0.0975
   11MOL   H666 8086   0.258   5.757   3.964  1.1389  1.6045  2.2139
   11MOL   H667 8087   0.397   5.848   4.091  3.1697  1.8103 -0.5531
   11MOL   C668 8088   0.535   5.706   4.116  0.8424 -0.3664 -0.0346
   11MOL   O669 8089   0.576   5.601   4.072 -0.0617  0.4791  0.1494
   11MOL   C670 8090   0.604   5.792   4.226  0.3841 -0.7613  0.2789
   11MOL   C671 8091   0.711   5.724   4.317 -0.3223 -0.1036 -0.2065
   11MOL   C672 8092   0.826   5.812   4.374  0.4536  0.2806 -0.0510
   11MOL   C673 8093   0.941   5.726   4.436  0.7188 -0.2661 -0.3585
   11MOL   C674 8094   1.026   5.808   4.536  0.1194 -0.2025  0.2541
   11MOL   C675 8095   1.122   5.730   4.616 -0.8779  0.0292  0.7557
   11MOL   C676 8096   1.228   5.666   4.522 -0.0411 -0.1785  0.5001
   11MOL   C677 8097   1.364   5.621   4.586  0.2784 -0.2411 -0.8122
   11MOL   C678 8098   1.464   5.540   4.495  0.3350 -0.1348  0.0069
   11MOL   C679 8099   1.574   5.472   4.585 -0.0560 -0.2880 -0.6422
   11MOL   C680 8100   1.628   5.337   4.523  0.6388 -0.8811  0.3281
   11MOL   N681 8101   1.750   5.290   4.590 -0.2019 -0.2158  0.0013
   11MOL   H682 8102   0.532   5.833   4.297  0.5462  0.6208 -0.3441
   11MOL   H683 8103   0.648   5.880   4.178  1.0265 -1.6173 -0.7144
   11MOL   H684 8104   0.654   5.672   4.395  1.0116 -1.7585 -0.3141
   11MOL   H685 8105   0.769   5.653   4.257  1.1660 -0.0081  1.1056
   11MOL   H686 8106   0.786   5.878   4.451 -0.9897  0.5319 -1.0059
   11MOL   H687 8107   0.877   5.868   4.296  0.2440  0.4204 -0.0863
   11MOL   H688 8108   0.887   5.645   4.486  0.7092 -0.5445 -0.8171
   11MOL   H689 8109   0.997   5.679   4.356  0.1919 -1.6801  0.0796
   11MOL   H690 8110   0.962   5.854   4.612 -0.3889  0.4040 -0.5338
   11MOL   H691 8111   1.081   5.880   4.476  0.9182 -1.5182 -0.6158
   11MOL   H692 8112   1.074   5.647   4.669 -0.3453  0.4756  1.9438
   11MOL   H693 8113   1.171   5.783   4.697 -0.7197  0.5836  0.3015
   11MOL   H694 8114   1.258   5.732   4.440 -1.7265  1.0142  0.8213
   11MOL   H695 8115   1.188   5.582   4.465  0.3428  0.4039 -0.6440
   11MOL   H696 8116   1.331   5.558   4.669 -0.8184  0.5373 -0.6521
   11MOL   H697 8117   1.421   5.704   4.626  2.3393 -2.2269  0.4735
   11MOL   H698 8118   1.507   5.611   4.425 -0.1390  0.5877  0.4431
   11MOL   H699 8119   1.408   5.461   4.446  0.2539  0.4046 -0.7732
   11MOL   H700 8120   1.528   5.445   4.681  1.8606  1.6978  0.8773
   11MOL   H701 8121   1.653   5.543   4.607 -1.2074  0.6643  0.5125
   11MOL   H702 8122   1.648   5.348   4.417  1.4958  1.7646  0.7337
   11MOL   H703 8123   1.558   5.256   4.540  2.3202 -2.0134  2.1573
   11MOL   H704 8124   1.742   5.213   4.656  0.3005 -0.3503 -0.0927
   11MOL   C705 8125   1.870   5.345   4.580 -0.7774 -0.0256  0.4628
   11MOL   O706 8126   1.903   5.413   4.482 -0.0523  0.1716 -0.5560
   11MOL   C707 8127   1.974   5.313   4.690 -0.1597 -0.4168 -0.1662
   11MOL   C708 8128   2.077   5.418   4.734  0.1518  0.2771 -0.3009
   11MOL   C709 8129   2.014   5.530   4.815 -0.0336  0.1208 -0.0189
   11MOL   C710 8130   1.927   5.486   4.937 -0.6414 -0.4486 -0.3206
   11MOL   C711 8131   1.849   5.600   5.004 -0.6666  0.7929 -0.1752
   11MOL   C712 8132   1.730   5.561   5.083  0.5507  0.0349  0.0608
   11MOL   C713 8133   1.621   5.495   5.002 -0.0772  0.1288 -0.3594
   11MOL   C714 8134   1.477   5.521   5.062  0.3180  0.3280  0.2196
   11MOL   C715 8135   1.372   5.509   4.954 -0.4965 -0.7172  0.3881
   11MOL   C716 8136   1.235   5.517   5.018 -0.3547  0.7575  0.6941
   11MOL   C717 8137   1.136   5.585   4.921  0.7416 -0.2785 -0.7880
   11MOL   N718 8138   1.018   5.600   5.006  0.5370  0.5022  0.1669
   11MOL   H719 8139   2.029   5.235   4.637  0.8635  1.3405 -1.7658
   11MOL   H720 8140   1.936   5.256   4.774 -2.1672  0.5307 -0.3963
   11MOL   H721 8141   2.152   5.361   4.790 -0.1458 -1.3468 -1.5191
   11MOL   H722 8142   2.126   5.456   4.645  2.0720 -1.5512 -0.0684
   11MOL   H723 8143   1.953   5.599   4.757 -0.6927 -0.0324  0.4881
   11MOL   H724 8144   2.094   5.599   4.842 -1.6139  1.6253  0.9136
   11MOL   H725 8145   1.851   5.413   4.911 -1.1769 -0.4662  1.2520
   11MOL   H726 8146   1.987   5.438   5.014 -0.9847  0.4630  0.5357
   11MOL   H727 8147   1.824   5.668   4.924 -1.2241  0.0091 -0.6714
   11MOL   H728 8148   1.921   5.650   5.070  1.3494 -1.8765 -0.2401
   11MOL   H729 8149   1.679   5.653   5.112 -0.0701 -0.7165  1.4036
   11MOL   H730 8150   1.756   5.525   5.183  0.5778  1.1048  0.4454
   11MOL   H731 8151   1.636   5.390   4.977 -0.7047  0.4723 -2.3081
   11MOL   H732 8152   1.618   5.548   4.906 -0.7485 -2.0754 -1.5870
   11MOL   H733 8153   1.472   5.623   5.101  2.5300  0.5206  0.0687
   11MOL   H734 8154   1.462   5.444   5.138 -2.5379  1.4085  0.8028
   11MOL   H735 8155   1.391   5.422   4.892  1.6548 -0.2954  0.4146
   11MOL   H736 8156   1.396   5.594   4.889  1.8786 -1.0617  0.7707
   11MOL   H737 8157   1.234   5.560   5.118  0.0959  3.5921 -0.4630
   11MOL   H738 8158   1.203   5.415   5.036  1.7236 -0.2810 -1.1670
   11MOL   H739 8159   1.122   5.532   4.828 -1.0593 -0.4274 -0.4383
   11MOL   H740 8160   1.177   5.681   4.890 -0.7343  0.7668  0.4362
   11MOL   H741 8161   0.951   5.660   4.960  1.5577  0.5692 -1.2524
   11MOL   H742 8162   1.032   5.652   5.092 -1.6180  2.5069 -0.6436
   12MOL     C1 8163   7.365   3.952   7.379 -0.0559  0.2534  0.1128
   12MOL     O2 8164   7.254   3.926   7.426  0.5015  0.3758 -0.2361
   12MOL     C3 8165   7.485   3.887   7.442  0.2778 -0.1316  0.0788
   12MOL     C4 8166   7.450   3.791   7.558 -0.1637 -0.2071 -0.2668
   12MOL     C5 8167   7.568   3.784   7.649 -0.0274 -0.0137 -0.0042
   12MOL     C6 8168   7.555   3.680   0.069 -0.2178  0.1679 -0.3556
   12MOL     C7 8169   7.543   3.529   0.026  0.4465  0.2270 -0.4038
   12MOL     C8 8170   7.544   3.440   0.148  0.2689  0.3043 -0.2825
   12MOL     C9 8171   7.468   3.313   0.114 -0.4951  0.6449 -0.6007
   12MOL    C10 8172   7.461   3.208   0.220 -0.1007  0.0070  0.3396
   12MOL    C11 8173   7.444   3.065   0.159 -0.3134 -0.0418 -0.2846
   12MOL    C12 8174   7.309   3.043   0.097 -0.8631 -0.9408 -0.0175
   12MOL    C13 8175   7.284   2.904   0.057 -0.2558 -0.2094 -0.1973
   12MOL    N14 8176   7.286   2.816   0.176 -0.2104  0.5374  0.0007
   12MOL    H15 8177   7.545   3.963   7.491  1.5651 -1.7113  1.0414
   12MOL    H16 8178   7.557   3.846   7.372  0.9475  2.9297 -1.0752
   12MOL    H17 8179   7.369   3.818   7.626 -1.1145  1.7776 -2.1405
   12MOL    H18 8180   7.434   3.693   7.513  1.7991 -0.7740  0.2334
   12MOL    H19 8181   7.581   3.882   0.001 -1.4697  1.2179 -2.1345
   12MOL    H20 8182   7.661   3.766   7.595 -0.1921  0.2547 -0.3785
   12MOL    H21 8183   7.645   3.678   0.131 -0.1790 -2.9708 -0.4003
   12MOL    H22 8184   7.469   3.707   0.130 -0.5458  0.2124 -0.8357
   12MOL    H23 8185   7.625   3.497   7.656  1.7755  0.4044  1.1877
   12MOL    H24 8186   7.450   3.515   7.664 -0.4344  0.8770  0.8822
   12MOL    H25 8187   7.487   3.484   0.230 -0.1115  0.4525 -0.6304
   12MOL    H26 8188   7.647   3.421   0.180  0.4188  0.9852 -0.3602
   12MOL    H27 8189   7.529   3.276   0.032  1.5932  1.8076  0.3926
   12MOL    H28 8190   7.369   3.335   0.072 -1.3319 -0.5701  0.6682
   12MOL    H29 8191   7.382   3.226   0.293  1.2150 -1.5533  2.1834
   12MOL    H30 8192   7.551   3.207   0.281  0.8574  0.0300 -1.0585
   12MOL    H31 8193   7.476   2.987   0.228  2.9411  0.4506 -1.1639
   12MOL    H32 8194   7.517   3.040   0.082 -0.8089 -1.4108 -0.3233
   12MOL    H33 8195   7.311   3.106   0.007  1.0831 -0.5855  0.2593
   12MOL    H34 8196   7.236   3.080   0.169  0.1612  1.0122  0.0505
   12MOL    H35 8197   7.358   2.870   7.678  1.0126  2.0321  0.0001
   12MOL    H36 8198   7.189   2.885   0.007  0.2983 -0.0328 -1.3256
   12MOL    H37 8199   7.264   2.863   0.263  0.4995  2.4950 -0.8469
   12MOL    H38 8200   7.387   4.019   7.296 -0.3699 -0.7433 -0.7854
   12MOL    C39 8201   7.320   2.684   0.179  0.5997  0.0244  0.4129
   12MOL    O40 8202   7.346   2.616   0.076 -0.1470 -0.4295 -0.6355
   12MOL    C41 8203   7.330   2.623   0.318 -0.1793  0.2861  0.5950
   12MOL    C42 8204   7.355   2.475   0.329 -0.7020 -0.5147  0.6491
   12MOL    C43 8205   7.255   2.376   0.276  0.1462  0.3710  0.2294
   12MOL    C44 8206   7.245   2.248   0.366 -0.4400  0.1292  0.5438
   12MOL    C45 8207   7.154   2.137   0.315 -0.7326  0.0009 -0.3464
   12MOL    C46 8208   7.202   2.061   0.187  0.2509  0.4241  0.2408
   12MOL    C47 8209   7.328   1.970   0.205  0.0992  0.3874  0.2624
   12MOL    C48 8210   7.367   1.914   0.072 -0.2171 -0.6548 -0.2294
   12MOL    C49 8211   7.498   1.838   0.097 -0.6248  0.0246  0.5146
   12MOL    C50 8212   7.473   1.694   0.153 -0.3375  0.1125 -0.4351
   12MOL    C51 8213   7.612   1.630   0.181  0.0857 -0.2043 -0.6869
   12MOL    N52 8214   7.675   1.696   0.295 -0.2411 -0.3832  0.0269
   12MOL    H53 8215   7.234   2.649   0.362 -0.6443 -0.9524  0.3477
   12MOL    H54 8216   7.412   2.675   0.367 -1.8807  2.7418  0.8937
   12MOL    H55 8217   7.446   2.449   0.274  0.2411  0.5746  1.6602
   12MOL    H56 8218   7.389   2.447   0.429  1.0078  0.6636  0.4202
   12MOL    H57 8219   7.283   2.332   0.180  0.4416  2.3036 -0.5990
   12MOL    H58 8220   7.158   2.423   0.260  0.0697 -0.2094 -1.1016
   12MOL    H59 8221   7.342   2.201   0.379 -0.1700  0.3336 -0.6122
   12MOL    H60 8222   7.211   2.277   0.465 -1.7847 -3.2843  1.1588
   12MOL    H61 8223   7.058   2.183   0.295 -0.8635  0.7899  1.9917
   12MOL    H62 8224   7.118   2.066   0.390  0.4316  2.0107  2.1684
   12MOL    H63 8225   7.212   2.131   0.105  1.6823 -0.2517 -0.1760
   12MOL    H64 8226   7.119   1.997   0.156  1.4707 -2.2006  2.1871
   12MOL    H65 8227   7.292   1.892   0.272 -0.3625  0.0000 -0.4196
   12MOL    H66 8228   7.405   2.028   0.254  0.4039  2.8933 -3.0292
   12MOL    H67 8229   7.387   1.989   7.690  0.6589 -1.3950 -0.7436
   12MOL    H68 8230   7.291   1.841   0.043  1.1085 -1.7537 -0.9906
   12MOL    H69 8231   7.563   1.894   0.164  2.6820 -1.5652 -1.2862
   12MOL    H70 8232   7.549   1.842   0.001  0.4909 -1.8910  1.0052
   12MOL    H71 8233   7.421   1.628   0.083 -2.1974 -2.0421  2.8061
   12MOL    H72 8234   7.412   1.694   0.244  1.1673  0.7371  0.5866
   12MOL    H73 8235   7.675   1.638   0.092  1.6678  0.1910  0.4517
   12MOL    H74 8236   7.602   1.522   0.198  1.6377 -0.3432 -0.5854
   12MOL    H75 8237   0.062   1.753   0.275 -0.2411 -0.1695  0.6261
   12MOL    C76 8238   7.659   1.671   0.422  0.4157  0.1976  0.4916
   12MOL    O77 8239   7.571   1.600   0.466  0.1649 -0.3996  0.4990
   12MOL    C78 8240   0.085   1.726   0.508 -1.3006  0.2916  0.8311
   12MOL    C79 8241   0.061   1.691   0.649  0.1824 -0.4884  0.0989
   12MOL    C80 8242   0.178   1.735   0.727  0.1147 -0.4631 -0.5214
   12MOL    C81 8243   0.168   1.708   0.880  0.0332 -0.0387  0.6436
   12MOL    C82 8244   0.311   1.728   0.940  0.4303  0.3311 -0.1782
   12MOL    C83 8245   0.298   1.694   1.096  0.3553  0.2537 -0.7266
   12MOL    C84 8246   0.428   1.706   1.177 -0.8517  0.1552 -0.7391
   12MOL    C85 8247   0.420   1.691   1.335  0.8876  0.4161 -0.1072
   12MOL    C86 8248   0.566   1.723   1.396 -0.1013  0.8409  0.3668
   12MOL    C87 8249   0.599   1.652   1.531 -0.1432 -0.2987  0.5781
   12MOL    C88 8250   0.739   1.695   1.580  0.0303  0.3996 -0.3746
   12MOL    N89 8251   0.739   1.826   1.651 -0.0142  0.5423  0.7546
   12MOL    H90 8252   0.093   1.833   0.491 -1.8003  0.2976  0.6247
   12MOL    H91 8253   0.178   1.680   0.474 -2.4064 -1.7457  0.4823
   12MOL    H92 8254   7.666   1.744   0.682  0.1763  0.2084 -1.0232
   12MOL    H93 8255   0.042   1.584   0.657 -0.0051 -0.5820 -1.4896
   12MOL    H94 8256   0.194   1.842   0.715  0.1517 -0.5039 -0.8390
   12MOL    H95 8257   0.267   1.695   0.677  0.9125 -0.6843  1.0538
   12MOL    H96 8258   0.094   1.780   0.914  1.4079  1.5602  0.2899
   12MOL    H97 8259   0.134   1.606   0.898 -0.3912 -0.0168 -0.0354
   12MOL    H98 8260   0.340   1.833   0.940  2.1932 -0.1299 -1.0198
   12MOL    H99 8261   0.388   1.677   0.883  1.3608  0.7372  0.7089
   12MOL   H100 8262   0.251   1.596   1.105 -1.9571  1.5289  1.4626
   12MOL   H101 8263   0.226   1.758   1.145  0.9582 -0.0373  0.5751
   12MOL   H102 8264   0.491   1.795   1.173  0.6023 -0.7948  0.7788
   12MOL   H103 8265   0.500   1.632   1.143  0.0570  1.0228 -0.7310
   12MOL   H104 8266   0.387   1.589   1.357 -0.8616  1.1058  0.5746
   12MOL   H105 8267   0.351   1.764   1.376  2.5083  1.6032  0.5896
   12MOL   H106 8268   0.579   1.830   1.416 -1.1269  0.3448  3.9745
   12MOL   H107 8269   0.638   1.687   1.323 -1.0797 -0.6588  0.1369
   12MOL   H108 8270   0.590   1.545   1.512  2.7960 -0.1733 -1.9306
   12MOL   H109 8271   0.532   1.697   1.604 -0.4364 -0.2614  0.2909
   12MOL   H110 8272   0.821   1.716   1.511  2.6484 -2.3061  1.7689
   12MOL   H111 8273   0.777   1.616   1.645 -0.0391  1.0936  0.5113
   12MOL   H112 8274   0.696   1.900   1.597 -0.7113 -0.6484 -0.3366
   12MOL   C113 8275   0.816   1.861   1.756 -0.0465 -0.5862  0.0550
   12MOL   O114 8276   0.885   1.775   1.807  0.6314 -0.4931 -0.4412
   12MOL   C115 8277   0.828   2.009   1.794 -0.6976  0.3748  0.0245
   12MOL   C116 8278   0.908   2.029   1.927  0.3819  0.2607  0.2013
   12MOL   C117 8279   0.841   1.995   2.056  0.1323  0.2096  0.5399
   12MOL   C118 8280   0.896   2.050   2.182 -0.0519 -0.5448 -0.2336
   12MOL   C119 8281   0.860   1.982   2.309  0.2551  0.2435 -0.3601
   12MOL   C120 8282   0.937   2.033   2.440 -0.5814  1.1722  0.4266
   12MOL   C121 8283   1.087   2.000   2.438 -0.0126 -0.5234 -0.3756
   12MOL   C122 8284   1.160   2.092   2.525  0.1947 -0.5950 -0.2627
   12MOL   C123 8285   1.155   2.245   2.490 -0.1385  0.0617 -0.4265
   12MOL   C124 8286   1.180   2.282   2.345 -0.3045 -0.3416 -0.8816
   12MOL   C125 8287   1.187   2.436   2.329  0.2597  0.1216 -0.1339
   12MOL   N126 8288   1.272   2.477   2.220 -0.2119  0.3969 -0.1944
   12MOL   H127 8289   0.737   2.066   1.814 -0.6421  0.0831  1.1603
   12MOL   H128 8290   0.881   2.059   1.714  2.8283 -1.0220  1.3916
   12MOL   H129 8291   0.999   1.970   1.914 -1.0153 -1.3064 -2.9927
   12MOL   H130 8292   0.950   2.129   1.938  0.6291  0.4272 -2.1125
   12MOL   H131 8293   0.829   1.888   2.067 -1.1039  0.3360  0.4445
   12MOL   H132 8294   0.736   2.023   2.054  0.1497  0.1718 -1.7352
   12MOL   H133 8295   1.004   2.046   2.166 -0.0747 -1.3269 -0.2095
   12MOL   H134 8296   0.868   2.154   2.202  0.7425 -0.2773 -0.4648
   12MOL   H135 8297   0.873   1.873   2.303 -0.2356  0.0409  1.8446
   12MOL   H136 8298   0.753   1.986   2.331 -0.1954  0.9024 -2.5306
   12MOL   H137 8299   0.889   1.979   2.521  1.4414 -1.4672 -0.0551
   12MOL   H138 8300   0.926   2.141   2.448 -0.8710  1.3839 -2.1665
   12MOL   H139 8301   1.120   1.989   2.334 -0.7459 -1.8809 -0.4721
   12MOL   H140 8302   1.099   1.903   2.486  0.9857  0.4473  1.3846
   12MOL   H141 8303   1.266   2.065   2.519  0.5209 -0.3840  3.5102
   12MOL   H142 8304   1.131   2.065   2.626  0.1004 -0.8035 -0.3460
   12MOL   H143 8305   1.237   2.293   2.544  0.7283 -1.9351  0.0664
   12MOL   H144 8306   1.057   2.285   2.519  0.3807  0.1044  1.3218
   12MOL   H145 8307   1.101   2.236   2.285  1.6411 -2.9639 -1.5272
   12MOL   H146 8308   1.270   2.231   2.313  0.3115 -1.0282  1.8199
   12MOL   H147 8309   1.241   2.471   2.417 -0.8147  0.5928  0.3475
   12MOL   H148 8310   1.089   2.483   2.324  0.5562  0.7542 -0.0622
   12MOL   H149 8311   1.264   2.421   2.136 -3.0433 -1.9922  1.5864
   12MOL   C150 8312   1.370   2.566   2.224 -1.0217  0.0364  0.4193
   12MOL   O151 8313   1.393   2.633   2.321 -0.1711 -0.1821  0.0696
   12MOL   C152 8314   1.454   2.580   2.099 -1.0126  0.3394 -0.0211
   12MOL   C153 8315   1.406   2.692   2.009  0.0937 -0.2351  0.1568
   12MOL   C154 8316   1.263   2.664   1.955  0.3214  0.3939  0.2820
   12MOL   C155 8317   1.215   2.769   1.844 -0.5236  0.0994  0.6183
   12MOL   C156 8318   1.103   2.719   1.752  0.0261 -0.2453  0.0773
   12MOL   C157 8319   1.099   2.796   1.612  0.3479  0.4247 -0.1759
   12MOL   C158 8320   1.025   2.713   1.501  0.2778 -0.0363  0.0331
   12MOL   C159 8321   0.895   2.638   1.541 -0.7940 -0.4539  0.0150
   12MOL   C160 8322   0.842   2.544   1.434 -0.7864  0.1487 -0.1011
   12MOL   C161 8323   0.710   2.478   1.482  0.4831 -0.4082  0.5365
   12MOL   C162 8324   0.725   2.361   1.584 -0.2253 -0.1576 -0.5413
   12MOL   N163 8325   0.598   2.289   1.605  0.3084 -0.0089 -0.4070
   12MOL   H164 8326   1.446   2.486   2.043 -1.4331  0.6587 -0.5097
   12MOL   H165 8327   1.562   2.594   2.102 -0.9585  0.1187 -0.7944
   12MOL   H166 8328   1.402   2.792   2.053  0.6473 -0.1929  0.1195
   12MOL   H167 8329   1.459   2.720   1.918 -0.3942 -1.0541 -0.3884
   12MOL   H168 8330   1.192   2.659   2.037  0.2901  1.7209  0.3474
   12MOL   H169 8331   1.259   2.562   1.917  1.4839  0.7244 -0.7978
   12MOL   H170 8332   1.204   2.873   1.876 -0.2757  0.5935 -0.8722
   12MOL   H171 8333   1.305   2.769   1.783  0.3038  0.5229  1.8214
   12MOL   H172 8334   1.006   2.717   1.802 -0.1403  0.2220 -0.2229
   12MOL   H173 8335   1.125   2.615   1.728  2.4709  0.4634 -0.9308
   12MOL   H174 8336   1.202   2.811   1.583  0.3582  0.7354  0.0144
   12MOL   H175 8337   1.057   2.897   1.620 -0.9973 -0.2387  1.4844
   12MOL   H176 8338   1.097   2.638   1.466  1.4679  1.2811 -0.3736
   12MOL   H177 8339   1.009   2.765   1.407 -1.9963 -1.8247 -0.6301
   12MOL   H178 8340   0.828   2.721   1.564  0.2895  0.5868 -0.4816
   12MOL   H179 8341   0.914   2.585   1.634 -1.7789 -0.9404 -0.0615
   12MOL   H180 8342   0.917   2.469   1.409 -0.5179  0.0160  1.0671
   12MOL   H181 8343   0.822   2.593   1.339 -0.1361  1.4322  0.4177
   12MOL   H182 8344   0.657   2.445   1.392  1.8578  0.1356 -0.5035
   12MOL   H183 8345   0.646   2.559   1.514 -0.4191 -0.6344 -0.6738
   12MOL   H184 8346   0.768   2.404   1.675 -1.9045 -1.5910  0.9707
   12MOL   H185 8347   0.796   2.293   1.536 -0.6627 -0.1247 -1.2424
   12MOL   H186 8348   0.521   2.338   1.648  1.2352  1.5734 -0.5198
   12MOL   C187 8349   0.573   2.160   1.579 -0.3571  0.1196 -0.1629
   12MOL   O188 8350   0.657   2.081   1.542  0.0368  0.2309 -0.3788
   12MOL   C189 8351   0.426   2.124   1.575 -0.2261  0.0763 -0.1417
   12MOL   C190 8352   0.347   2.184   1.452  0.7414  0.2665 -0.6553
   12MOL   C191 8353   0.411   2.136   1.310  0.7266 -0.5792  0.1842
   12MOL   C192 8354   0.307   2.118   1.197  0.4296 -0.2124 -0.3296
   12MOL   C193 8355   0.372   2.121   1.059  0.2807  0.2105  0.1319
   12MOL   C194 8356   0.257   2.121   0.949 -0.0339  0.0147  0.6839
   12MOL   C195 8357   0.306   2.155   0.807  0.2543 -0.4216 -0.3092
   12MOL   C196 8358   0.431   2.080   0.764  0.3361 -0.2537 -0.1470
   12MOL   C197 8359   0.423   2.037   0.619  0.2246 -0.1349 -0.5797
   12MOL   C198 8360   0.524   1.924   0.577 -0.0050 -0.1909 -0.5008
   12MOL   C199 8361   0.482   1.842   0.456 -0.1814 -0.5127 -0.3785
   12MOL   N200 8362   0.583   1.742   0.424  0.1278 -0.0983  0.5696
   12MOL   H201 8363   0.386   2.165   1.667  1.3196  3.2733 -0.7979
   12MOL   H202 8364   0.418   2.016   1.576 -2.4614  0.2334 -0.1733
   12MOL   H203 8365   0.244   2.154   1.469  0.4666  0.9641 -1.0755
   12MOL   H204 8366   0.346   2.293   1.457  0.5619  0.2950 -1.2346
   12MOL   H205 8367   0.456   2.039   1.332  0.2892 -0.7633  0.2723
   12MOL   H206 8368   0.491   2.207   1.289  1.8032 -1.3888  1.3880
   12MOL   H207 8369   0.254   2.025   1.213  1.9714 -1.0448  0.0243
   12MOL   H208 8370   0.240   2.204   1.204  0.0975 -0.5314  0.4344
   12MOL   H209 8371   0.444   2.040   1.047 -1.8626 -1.9011  0.9524
   12MOL   H210 8372   0.416   2.220   1.045 -2.5752  1.6375  0.9043
   12MOL   H211 8373   0.184   2.198   0.977 -2.1498 -1.9105  0.6423
   12MOL   H212 8374   0.210   2.023   0.938  1.3285 -0.3458 -2.2386
   12MOL   H213 8375   0.314   2.262   0.785 -1.2145 -0.2952 -0.2827
   12MOL   H214 8376   0.221   2.126   0.745 -1.0988 -1.7610  2.0871
   12MOL   H215 8377   0.438   1.990   0.825 -3.3183 -1.0998 -0.8251
   12MOL   H216 8378   0.514   2.148   0.782  0.6882 -1.3489  2.5994
   12MOL   H217 8379   0.433   2.127   0.558 -0.4179 -1.1536 -2.2112
   12MOL   H218 8380   0.328   1.993   0.591 -1.2394  1.1353  2.1816
   12MOL   H219 8381   0.551   1.853   0.655  0.3691  0.1976 -0.2728
   12MOL   H220 8382   0.618   1.972   0.550  0.8865 -1.9955 -0.6991
   12MOL   H221 8383   0.470   1.912   0.373 -0.4816 -0.5645 -0.3805
   12MOL   H222 8384   0.387   1.799   0.487  0.8853 -0.4708  3.1938
   12MOL   H223 8385   0.652   1.735   0.498 -1.1172 -0.7629  1.6799
   12MOL   C224 8386   0.562   1.638   0.344 -0.0346 -0.9795  0.3186
   12MOL   O225 8387   0.477   1.633   0.259 -0.4234 -0.4235  0.3374
   12MOL   C226 8388   0.660   1.517   0.349  0.7950  0.5100  0.5481
   12MOL   C227 8389   0.720   1.468   0.215 -0.9332  0.7849  0.5007
   12MOL   C228 8390   0.835   1.545   0.148  0.3886  0.3747 -0.4482
   12MOL   C229 8391   0.957   1.537   0.245 -0.0619 -0.1242  0.9075
   12MOL   C230 8392   1.085   1.582   0.181  0.1603 -0.2109  0.1554
   12MOL   C231 8393   1.194   1.622   0.285 -0.4507  0.1129 -0.3132
   12MOL   C232 8394   1.341   1.625   0.228  0.0543 -0.1084 -0.1878
   12MOL   C233 8395   1.441   1.677   0.337  0.3569 -1.0058  0.7523
   12MOL   C234 8396   1.579   1.703   0.270  0.1654 -0.7218 -0.8158
   12MOL   C235 8397   1.637   1.597   0.174  0.2973  0.4408  0.1829
   12MOL   C236 8398   1.792   1.618   0.145  0.1455 -0.0233  0.7848
   12MOL   N237 8399   1.843   1.505   0.065  0.1527 -0.1711  0.0438
   12MOL   H238 8400   0.619   1.431   0.402  1.0277 -0.2499 -0.5037
   12MOL   H239 8401   0.739   1.557   0.413  2.2915 -0.1789 -0.8321
   12MOL   H240 8402   0.764   1.371   0.236  0.0313  1.0067 -0.4214
   12MOL   H241 8403   0.637   1.457   0.146 -1.3976  2.3114  0.7960
   12MOL   H242 8404   0.809   1.650   0.132 -0.2080  0.4810  1.0856
   12MOL   H243 8405   0.871   1.500   0.056  1.4090  0.9157 -0.3248
   12MOL   H244 8406   0.944   1.604   0.330  1.4543  1.9435 -0.4320
   12MOL   H245 8407   0.973   1.438   0.288 -2.1333 -0.2298  1.4718
   12MOL   H246 8408   1.062   1.670   0.122 -0.7308 -1.4842 -1.4593
   12MOL   H247 8409   1.120   1.499   0.119  0.4074  0.6258 -0.8371
   12MOL   H248 8410   1.169   1.558   0.369 -0.2943 -0.4784 -0.7133
   12MOL   H249 8411   1.174   1.726   0.312 -0.8240  0.0769 -0.4555
   12MOL   H250 8412   1.361   1.682   0.137 -0.1643 -0.6279 -0.5623
   12MOL   H251 8413   1.368   1.520   0.217  2.5437  0.6778 -1.9012
   12MOL   H252 8414   1.461   1.606   0.417  1.0096 -2.6933 -0.9033
   12MOL   H253 8415   1.411   1.769   0.389 -1.7018 -1.4499  0.4192
   12MOL   H254 8416   1.638   1.719   0.360 -1.2084 -1.2059  0.1876
   12MOL   H255 8417   1.573   1.802   0.226  1.4612  0.7487  2.1880
   12MOL   H256 8418   1.584   1.579   0.080 -0.0855  1.2683  0.2395
   12MOL   H257 8419   1.640   1.501   0.227 -0.2208 -0.5945 -1.5976
   12MOL   H258 8420   1.845   1.634   0.239  1.3400 -0.0118  0.1095
   12MOL   H259 8421   1.809   1.712   0.093  0.7124 -2.1937 -3.1494
   12MOL   H260 8422   1.791   1.418   0.070  3.0023 -1.8293  1.7033
   12MOL   C261 8423   1.952   1.505   7.676  0.2853  0.6801 -0.9762
   12MOL   O262 8424   2.029   1.600   7.679 -0.0212  0.5741  0.5093
   12MOL   C263 8425   1.987   1.377   7.598 -0.2097 -0.2776 -0.3460
   12MOL   C264 8426   2.104   1.405   7.499 -0.1704 -0.3089 -0.5847
   12MOL   C265 8427   2.131   1.282   7.407 -0.2328 -0.5516 -0.3349
   12MOL   C266 8428   2.186   1.155   7.474  0.1130  0.0546  0.2116
   12MOL   C267 8429   2.164   1.035   7.375  0.2152  0.1798  0.0722
   12MOL   C268 8430   2.018   0.978   7.374 -0.2674  0.3486  0.5561
   12MOL   C269 8431   1.999   0.861   7.280 -0.4321 -0.2843 -0.0383
   12MOL   C270 8432   1.866   0.785   7.297  0.6604 -0.3301 -0.2690
   12MOL   C271 8433   1.864   0.687   7.418  0.0143 -0.0913  0.3964
   12MOL   C272 8434   1.717   0.641   7.452  0.4163  0.5653 -0.1254
   12MOL   C273 8435   1.709   0.529   7.558 -0.5637  0.0100  0.0718
   12MOL   N274 8436   1.578   0.471   7.573 -0.2000 -0.0019  0.5853
   12MOL   H275 8437   1.901   1.334   7.546 -0.9657 -1.1949  1.6278
   12MOL   H276 8438   2.018   1.298   7.666  0.9423 -0.7450 -1.4106
   12MOL   H277 8439   2.087   1.495   7.440 -2.4937  1.0665  2.0950
   12MOL   H278 8440   2.201   1.417   7.548 -0.2708  1.3342 -0.7800
   12MOL   H279 8441   2.215   1.304   7.342 -0.6622 -1.4173 -1.2097
   12MOL   H280 8442   2.040   1.269   7.348 -1.3158 -0.8998  1.3797
   12MOL   H281 8443   2.293   1.173   7.488  0.9017 -3.0789 -1.2402
   12MOL   H282 8444   2.134   1.135   7.567  2.3798 -0.8655  1.3278
   12MOL   H283 8445   2.214   0.947   7.416 -1.5712 -1.3527 -0.9584
   12MOL   H284 8446   2.198   1.059   7.274 -1.9510  2.8976 -0.0571
   12MOL   H285 8447   1.952   1.055   7.335  0.7588 -0.7434 -3.5864
   12MOL   H286 8448   1.999   0.938   7.473 -2.7277  0.0740  0.0148
   12MOL   H287 8449   2.082   0.793   7.301 -0.0029  0.2185 -0.1067
   12MOL   H288 8450   2.011   0.885   7.174 -0.7504 -0.6145 -0.1505
   12MOL   H289 8451   1.847   0.728   7.205  1.0103  0.6686 -0.9703
   12MOL   H290 8452   1.772   0.839   7.302  0.8691  0.2018 -1.6955
   12MOL   H291 8453   1.910   0.737   7.503 -0.8255 -0.0114  0.8113
   12MOL   H292 8454   1.926   0.601   7.391  1.1818  0.1788  2.1180
   12MOL   H293 8455   1.666   0.610   7.361 -2.9254  0.8960  1.5602
   12MOL   H294 8456   1.672   0.735   7.485 -0.0090  0.4955 -0.5058
   12MOL   H295 8457   1.739   0.567   7.655  0.1812  0.6197 -0.3860
   12MOL   H296 8458   1.772   0.444   7.531  0.2343  0.4540  0.5058
   12MOL   H297 8459   1.517   0.487   7.495 -0.8101 -0.8025  0.8878
   12MOL   C298 8460   1.537   0.386   7.665  0.0044  0.0453 -0.5861
   12MOL   O299 8461   1.612   0.353   0.059  0.7454  0.1666 -0.5765
   12MOL   C300 8462   1.399   0.317   7.648  0.3252 -0.5275 -0.0315
   12MOL   C301 8463   1.396   0.175   0.007  0.0651  1.0580 -0.6809
   12MOL   C302 8464   1.258   0.114   0.036  0.0583 -0.2755  0.4911
   12MOL   C303 8465   1.278   7.659   0.083  0.2841  0.7752 -0.5077
   12MOL   C304 8466   1.147   7.586   0.111 -0.1870 -1.1073  0.1896
   12MOL   C305 8467   1.187   7.460   0.192  0.4368  0.5001 -0.4862
   12MOL   C306 8468   1.220   7.336   0.096 -0.6069 -0.7629 -0.8540
   12MOL   C307 8469   1.323   7.230   0.159 -1.2751 -0.0205 -0.0706
   12MOL   C308 8470   1.352   7.117   0.062 -0.5928  0.4584 -0.8806
   12MOL   C309 8471   1.458   7.154   7.647  0.9663  0.5247 -0.0247
   12MOL   C310 8472   1.508   7.032   7.568  0.5362  0.1660 -0.3836
   12MOL   N311 8473   1.606   7.082   7.474  0.0142  0.7337  0.1766
   12MOL   H312 8474   1.373   0.300   7.544 -1.0821  0.1481  0.1904
   12MOL   H313 8475   1.321   0.375   0.003  0.7242 -1.4213  1.7233
   12MOL   H314 8476   1.446   0.107   7.633 -2.0896 -1.5232  0.2330
   12MOL   H315 8477   1.449   0.166   0.102 -0.7069  1.5299 -0.1943
   12MOL   H316 8478   1.204   0.117   7.635  1.2985 -4.0256 -0.4246
   12MOL   H317 8479   1.213   0.172   0.117 -2.0271  0.5627 -1.2216
   12MOL   H318 8480   1.320   7.593   0.007 -0.5058 -2.7339  2.0065
   12MOL   H319 8481   1.338   7.653   0.174 -0.1487  0.6753 -0.2310
   12MOL   H320 8482   1.089   7.554   0.024  1.1372 -0.6921 -0.8697
   12MOL   H321 8483   1.079   7.651   0.165  0.7452  0.9059 -0.9948
   12MOL   H322 8484   1.106   7.425   0.257  2.9009 -0.1613  2.3302
   12MOL   H323 8485   1.268   7.479   0.262  0.9998 -0.5730 -0.8280
   12MOL   H324 8486   1.252   7.369   7.691  3.2796 -0.3887  0.4524
   12MOL   H325 8487   1.124   7.298   0.060 -1.2997 -0.3693  0.5580
   12MOL   H326 8488   1.275   7.195   0.251 -1.0864  1.1492  0.4818
   12MOL   H327 8489   1.416   7.274   0.196 -0.0541 -0.8062 -2.1378
   12MOL   H328 8490   1.260   7.081   0.018 -0.3276 -1.1506 -0.1686
   12MOL   H329 8491   1.390   7.029   0.113 -2.5806  1.2163  2.0417
   12MOL   H330 8492   1.546   7.196   0.001  0.9134  1.1275 -0.4508
   12MOL   H331 8493   1.414   7.227   7.580  1.0953  0.8472  0.2397
   12MOL   H332 8494   1.421   6.993   7.515 -0.4474  0.2583  1.1415
   12MOL   H333 8495   1.540   6.962   7.645 -0.1467  1.3681  1.0167
   12MOL   H334 8496   1.589   7.068   7.375  1.0630  0.0536  0.0808
   12MOL   C335 8497   1.740   7.085   7.501 -0.6590 -0.2473  0.4165
   12MOL   O336 8498   1.786   7.061   7.610 -0.2963  0.0044  0.9823
   12MOL   C337 8499   1.840   7.132   7.393 -0.2223  0.1985 -0.3617
   12MOL   C338 8500   1.883   7.276   7.414 -0.1569 -0.2946  0.4590
   12MOL   C339 8501   1.769   7.384   7.408 -0.2771 -0.4548  0.0064
   12MOL   C340 8502   1.830   7.512   7.369  0.1791  0.4790 -0.5898
   12MOL   C341 8503   1.743   7.635   7.367  0.2912 -0.6242  0.3239
   12MOL   C342 8504   1.812   0.069   7.338  0.0181  0.2579 -0.6396
   12MOL   C343 8505   1.740   0.185   7.390  0.3534 -0.0908 -0.6632
   12MOL   C344 8506   1.592   0.205   7.340 -0.2375 -0.7565  0.1378
   12MOL   C345 8507   1.590   0.238   7.193  0.4662 -0.4769 -0.4029
   12MOL   C346 8508   1.453   0.243   7.131 -0.1854  0.2208  0.3622
   12MOL   C347 8509   1.474   0.224   6.980  0.3742 -0.1709 -1.0640
   12MOL   N348 8510   1.350   0.284   6.923  0.1787 -0.5448 -0.5743
   12MOL   H349 8511   1.803   7.109   7.293  1.3953 -0.9122 -0.7225
   12MOL   H350 8512   1.930   7.071   7.402 -0.6187 -0.4920 -1.0251
   12MOL   H351 8513   1.952   7.297   7.496  2.2578 -0.4781 -1.4911
   12MOL   H352 8514   1.936   7.291   7.320 -2.4205 -0.5278 -0.8866
   12MOL   H353 8515   1.729   7.397   7.508 -0.1119  1.1611 -0.1248
   12MOL   H354 8516   1.698   7.336   7.339 -1.9583  2.8492 -0.6795
   12MOL   H355 8517   1.925   7.526   7.419  0.2227  0.9267 -0.7902
   12MOL   H356 8518   1.876   7.513   7.270  2.3953 -1.1127  0.3999
   12MOL   H357 8519   1.699   7.629   7.467 -0.1781 -0.4703  0.1294
   12MOL   H358 8520   1.649   7.619   7.313  0.3180  0.6438 -0.0937
   12MOL   H359 8521   1.839   0.080   7.233  0.5970 -0.1557 -0.5349
   12MOL   H360 8522   1.912   0.068   7.380  0.4050 -1.0667 -1.5475
   12MOL   H361 8523   1.787   0.282   7.378  0.7928 -0.3297 -0.8879
   12MOL   H362 8524   1.726   0.176   7.497 -1.1072 -2.7218 -1.0206
   12MOL   H363 8525   1.535   0.283   7.390 -1.2850 -0.8876 -0.8280
   12MOL   H364 8526   1.534   0.116   7.364 -0.2313 -1.0042 -0.7477
   12MOL   H365 8527   1.639   0.156   7.139 -2.4313 -2.1857 -0.6062
   12MOL   H366 8528   1.653   0.323   7.167  0.0045 -0.4395 -1.4401
   12MOL   H367 8529   1.395   0.330   7.162  0.9908  1.1872 -0.0980
   12MOL   H368 8530   1.402   0.155   7.171  0.9804 -0.7201 -0.1678
   12MOL   H369 8531   1.474   0.121   6.945  0.0443 -0.2055 -0.9656
   12MOL   H370 8532   1.565   0.273   6.949  0.4702 -0.9539 -2.0386
   12MOL   H371 8533   1.289   0.334   6.986  1.4717 -0.3512  0.5389
   12MOL   C372 8534   1.305   0.252   6.802 -0.0582  0.2706 -0.7510
   12MOL   O373 8535   1.378   0.183   6.732  0.5436 -0.2872 -0.5750
   12MOL   C374 8536   1.162   0.289   6.759 -0.3860 -0.1984  0.1395
   12MOL   C375 8537   1.109   0.220   6.631  0.0260  0.3195 -0.1152
   12MOL   C376 8538   1.062   0.079   6.662 -0.2390  0.3191  0.0876
   12MOL   C377 8539   1.029   7.692   6.536  0.1647 -0.2330 -0.2900
   12MOL   C378 8540   0.975   7.554   6.577  0.2730  0.5830  0.0932
   12MOL   C379 8541   0.957   7.456   6.452 -0.2386  0.8602 -0.4945
   12MOL   C380 8542   0.901   7.324   6.503 -0.0263  0.0387 -0.0054
   12MOL   C381 8543   0.909   7.200   6.403  0.3459  0.3175  0.0198
   12MOL   C382 8544   0.910   7.069   6.478 -0.1577 -0.0908  0.6419
   12MOL   C383 8545   1.051   7.033   6.539  0.3522 -0.5760 -0.0357
   12MOL   C384 8546   1.031   6.919   6.637  0.5860 -0.3957  0.0581
   12MOL   N385 8547   0.978   6.967   6.766 -0.7526  0.2978  0.0135
   12MOL   H386 8548   1.167   0.395   6.736  0.1832 -0.2276  0.1121
   12MOL   H387 8549   1.087   0.267   6.834 -0.5144 -1.0336 -0.2314
   12MOL   H388 8550   1.037   0.289   6.588  0.6103  0.1629 -1.3633
   12MOL   H389 8551   1.191   0.206   6.561 -1.4499 -0.2204 -1.7537
   12MOL   H390 8552   0.973   0.098   6.721  0.1128 -1.4940  1.2307
   12MOL   H391 8553   1.141   0.025   6.714  2.0183  1.8475 -1.6541
   12MOL   H392 8554   0.963   0.053   6.470 -0.5133  0.7203  1.1710
   12MOL   H393 8555   1.114   7.667   6.472 -0.0653 -1.0902 -0.2686
   12MOL   H394 8556   0.880   7.554   6.632 -0.1501 -0.1725 -0.6346
   12MOL   H395 8557   1.035   7.501   6.651 -0.8136  0.3879  0.8533
   12MOL   H396 8558   1.055   7.425   6.414 -0.2341 -1.9880  1.6601
   12MOL   H397 8559   0.900   7.512   6.377 -1.0817 -0.9227 -1.2227
   12MOL   H398 8560   0.802   7.333   6.546  0.6964  3.6079  1.0648
   12MOL   H399 8561   0.961   7.295   6.589 -0.1205 -1.0478 -0.2928
   12MOL   H400 8562   0.982   7.204   6.322  0.8619  0.4507  0.4883
   12MOL   H401 8563   0.818   7.195   6.343  2.0041 -1.2488 -2.4328
   12MOL   H402 8564   0.886   6.983   6.416 -0.1334  1.3371 -1.4140
   12MOL   H403 8565   0.833   7.074   6.556 -0.3799  1.2035  0.3475
   12MOL   H404 8566   1.103   7.114   6.589  1.0813  0.5752 -2.5723
   12MOL   H405 8567   1.113   7.000   6.456 -0.6427  0.0701 -1.0505
   12MOL   H406 8568   1.111   6.846   6.650  2.2899  1.2883 -0.7478
   12MOL   H407 8569   0.947   6.854   6.614 -0.7225  0.5587  2.0533
   12MOL   H408 8570   0.877   6.967   6.765 -0.7519 -0.2184 -0.3810
   12MOL   C409 8571   1.055   7.008   6.865  0.3652  0.2600 -0.1594
   12MOL   O410 8572   1.179   6.992   6.869 -0.2688  0.1100 -0.1454
   12MOL   C411 8573   0.982   7.090   6.967  0.6971 -0.3038  0.7297
   12MOL   C412 8574   0.966   7.235   6.916  0.1495 -0.1578  0.2857
   12MOL   C413 8575   0.930   7.335   7.026  0.4541  0.1017  0.3579
   12MOL   C414 8576   0.912   7.471   6.966 -0.3209  0.1686  0.1060
   12MOL   C415 8577   0.877   7.580   7.065  1.2751  0.4185  0.3459
   12MOL   C416 8578   0.870   0.028   6.994  0.6051  0.0970 -0.4300
   12MOL   C417 8579   0.857   0.146   7.097 -0.2129 -0.3850 -0.7447
   12MOL   C418 8580   0.993   0.171   7.164 -0.0526  0.9153  0.0216
   12MOL   C419 8581   0.995   0.303   7.243  0.4056 -0.4742  0.4113
   12MOL   C420 8582   1.113   0.317   7.335 -0.6083  1.1897  0.8547
   12MOL   C421 8583   1.134   0.455   7.387 -0.4228  0.1429 -0.1540
   12MOL   N422 8584   1.194   0.545   7.294 -0.1834  0.1082 -0.1363
   12MOL   H423 8585   1.036   7.103   7.061 -2.0633  2.9115  1.9815
   12MOL   H424 8586   0.886   7.040   6.985  1.2700 -1.2855  1.0598
   12MOL   H425 8587   1.059   7.261   6.865  0.7368 -1.8812  0.4536
   12MOL   H426 8588   0.901   7.243   6.829  0.8511  3.0213 -0.0020
   12MOL   H427 8589   1.007   7.345   7.103  1.2249  0.9630 -0.5123
   12MOL   H428 8590   0.842   7.302   7.082 -1.3780  0.6357 -2.1294
   12MOL   H429 8591   1.007   7.504   6.924 -0.3573  0.9776  0.6413
   12MOL   H430 8592   0.843   7.482   6.882 -1.2627 -0.4308  0.7960
   12MOL   H431 8593   0.946   7.597   7.147  0.0710  2.3893  0.9841
   12MOL   H432 8594   0.788   7.556   7.123  0.3753  2.7417 -0.0024
   12MOL   H433 8595   0.789   0.030   6.921 -1.3217 -0.2641  1.6281
   12MOL   H434 8596   0.957   0.039   6.931  1.8863 -3.9772  0.4812
   12MOL   H435 8597   0.786   0.135   7.179 -1.1079  1.3065 -1.2537
   12MOL   H436 8598   0.834   0.241   7.048  0.3191  0.5240  0.7088
   12MOL   H437 8599   1.061   0.183   7.079  1.2151  0.4204  0.9457
   12MOL   H438 8600   1.008   0.081   7.224 -1.4336  1.0420  0.5656
   12MOL   H439 8601   0.904   0.318   7.300  0.0596  0.1553 -0.3042
   12MOL   H440 8602   0.989   0.384   7.170  0.2429 -1.1504 -0.3384
   12MOL   H441 8603   1.201   0.288   7.277 -2.0825 -0.2636 -0.7126
   12MOL   H442 8604   1.102   0.245   7.416  2.7387  0.6878  0.9095
   12MOL   H443 8605   1.194   0.455   7.478 -0.0713  1.3598 -0.3713
   12MOL   H444 8606   1.040   0.490   7.428  0.9363  0.9865  2.3204
   12MOL   H445 8607   1.130   0.572   7.221 -0.0958  1.2963  0.2023
   12MOL   C446 8608   1.325   0.566   7.276 -0.2982 -0.1553  0.0999
   12MOL   O447 8609   1.413   0.502   7.334  0.3398 -0.3694  0.2669
   12MOL   C448 8610   1.364   0.661   7.162  0.6812  0.7241 -0.9978
   12MOL   C449 8611   1.512   0.716   7.157 -0.2701 -0.7097 -0.0318
   12MOL   C450 8612   1.522   0.815   7.046 -0.4242  0.7724 -0.0106
   12MOL   C451 8613   1.617   0.775   6.940  0.4757 -0.2142  0.4821
   12MOL   C452 8614   1.600   0.861   6.808 -0.6116 -0.2175 -0.8260
   12MOL   C453 8615   1.688   0.805   6.693  0.0206 -0.1293 -0.6821
   12MOL   C454 8616   1.830   0.842   6.704  0.3095 -0.1934  0.4670
   12MOL   C455 8617   1.925   0.783   6.599 -0.4958 -0.3999  0.4771
   12MOL   C456 8618   2.064   0.844   6.606  0.1371 -0.2612 -0.0564
   12MOL   C457 8619   2.140   0.836   6.746  0.3678 -0.0013 -0.5232
   12MOL   C458 8620   2.156   0.691   6.804 -0.3254  0.2298 -0.5513
   12MOL   N459 8621   2.222   0.686   6.932  0.2463 -0.8108 -0.3724
   12MOL   H460 8622   1.293   0.743   7.166 -0.6211 -0.4526  0.5406
   12MOL   H461 8623   1.351   0.599   7.074 -1.9451 -0.3637  0.1200
   12MOL   H462 8624   1.536   0.767   7.250  0.1344 -0.9756  0.0107
   12MOL   H463 8625   1.583   0.634   7.143  1.0956  0.3818  0.3736
   12MOL   H464 8626   1.520   0.916   7.088  0.3717  1.7902 -2.3425
   12MOL   H465 8627   1.425   0.813   6.998 -1.1911 -1.0161  1.5739
   12MOL   H466 8628   1.718   0.793   6.975  0.9606  1.9445 -1.8724
   12MOL   H467 8629   1.618   0.669   6.918 -0.4120  0.0765 -1.0498
   12MOL   H468 8630   1.628   0.965   6.822  1.1232 -1.0899  2.7645
   12MOL   H469 8631   1.494   0.853   6.788 -0.6415 -0.1787 -0.6847
   12MOL   H470 8632   1.658   0.845   6.596 -0.5027  0.0179 -0.4639
   12MOL   H471 8633   1.679   0.697   6.681 -1.2862 -0.1211  0.1436
   12MOL   H472 8634   1.871   0.828   6.805  0.7639  1.6896  0.5587
   12MOL   H473 8635   1.836   0.948   6.682 -1.1370 -0.3372 -0.6566
   12MOL   H474 8636   1.880   0.810   6.503 -1.0323 -0.1860  0.7868
   12MOL   H475 8637   1.925   0.675   6.606 -0.3176 -0.6349 -2.4579
   12MOL   H476 8638   2.067   0.951   6.584  0.4121  0.0844  1.6317
   12MOL   H477 8639   2.129   0.809   6.525  0.5320 -1.4994  0.7950
   12MOL   H478 8640   2.087   0.898   6.818 -2.3073 -2.2732 -0.4208
   12MOL   H479 8641   2.242   0.867   6.726  1.2526 -1.6446  1.3076
   12MOL   H480 8642   2.202   0.629   6.727  0.2464  0.3607 -0.3103
   12MOL   H481 8643   2.057   0.646   6.808  0.2875 -1.0293  0.8489
   12MOL   H482 8644   2.173   0.729   7.008 -1.6664 -1.7530 -1.0482
   12MOL   C483 8645   2.328   0.615   6.961 -0.6431 -0.2959  0.9186
   12MOL   O484 8646   2.383   0.537   6.876  0.7586  0.0724 -0.0306
   12MOL   C485 8647   2.377   0.624   7.101 -0.2911  0.2849 -0.2420
   12MOL   C486 8648   2.511   0.690   7.095  0.5397  0.5977  0.3188
   12MOL   C487 8649   2.503   0.834   7.044  0.4932 -0.5551  0.7881
   12MOL   C488 8650   2.639   0.902   7.047  0.2013 -0.2548 -0.4977
   12MOL   C489 8651   2.707   0.897   6.911  0.1714 -0.0459 -0.5972
   12MOL   C490 8652   2.835   0.979   6.896  0.0109  0.4139  0.6759
   12MOL   C491 8653   2.946   0.943   6.998  0.0906  1.2045 -0.2050
   12MOL   C492 8654   3.070   1.037   6.987 -0.2240 -0.3083  0.3475
   12MOL   C493 8655   3.193   0.974   7.062 -0.2451  0.3646  0.1713
   12MOL   C494 8656   3.190   0.998   7.215 -0.1456 -0.0011 -0.0618
   12MOL   C495 8657   3.303   0.940   7.304  0.3386 -0.1840 -1.0944
   12MOL   N496 8658   3.288   0.975   7.449  0.5142 -0.0345 -0.8856
   12MOL   H497 8659   2.384   0.519   7.131  1.5772  0.4467 -0.0220
   12MOL   H498 8660   2.309   0.673   7.170  0.0250  0.7250 -0.2411
   12MOL   H499 8661   2.549   0.690   7.197  1.3041 -2.7660  0.1203
   12MOL   H500 8662   2.566   0.631   7.021 -1.6159 -0.5656 -0.4072
   12MOL   H501 8663   2.426   0.886   7.101 -0.2959 -0.5672 -0.2453
   12MOL   H502 8664   2.463   0.831   6.942 -1.1021 -0.2466  1.3824
   12MOL   H503 8665   2.632   1.002   7.089 -0.1895 -0.2638 -0.5352
   12MOL   H504 8666   2.700   0.854   7.124 -0.1313 -2.9156 -1.8429
   12MOL   H505 8667   2.632   0.938   6.843 -0.5558 -1.2855 -0.5501
   12MOL   H506 8668   2.731   0.793   6.890 -1.1087 -0.3767 -0.5028
   12MOL   H507 8669   2.815   1.086   6.904  0.4806  0.5348  0.2442
   12MOL   H508 8670   2.869   0.961   6.794 -1.8537 -1.0357  0.2777
   12MOL   H509 8671   2.970   0.838   6.983 -0.5337  1.2232 -1.3934
   12MOL   H510 8672   2.915   0.956   7.102 -0.7750 -0.8585 -0.1844
   12MOL   H511 8673   3.050   1.132   7.037 -1.1147 -0.4221  0.2120
   12MOL   H512 8674   3.103   1.053   6.884 -1.7919  0.0552 -0.1055
   12MOL   H513 8675   3.282   1.022   7.022  0.5914  0.8299  2.4998
   12MOL   H514 8676   3.205   0.870   7.033 -1.9102  0.8468 -2.3792
   12MOL   H515 8677   3.095   0.954   7.244  0.0614 -0.7035 -0.4321
   12MOL   H516 8678   3.187   1.107   7.223 -1.3199  0.1610 -2.4091
   12MOL   H517 8679   3.401   0.976   7.271  0.2310  0.1266 -1.0719
   12MOL   H518 8680   3.325   0.835   7.283 -3.2382 -0.8242 -1.9437
   12MOL   H519 8681   3.275   0.897   7.511 -1.7140  0.3920 -0.7880
   12MOL   C520 8682   3.315   1.092   7.503  0.6114  0.9059  0.3608
   12MOL   O521 8683   3.349   1.193   7.442  0.2069  0.1632 -0.0165
   12MOL   C522 8684   3.288   1.100   7.656 -0.8829  0.3449  0.0123
   12MOL   C523 8685   3.264   1.239   0.023 -0.2744  0.0361  0.1452
   12MOL   C524 8686   3.128   1.296   7.692  0.0201  0.0312 -0.0424
   12MOL   C525 8687   3.099   1.422   0.075 -0.0717  0.6443  0.4618
   12MOL   C526 8688   3.073   1.396   0.223  0.3070  0.4620  0.0146
   12MOL   C527 8689   2.964   1.287   0.259  0.0249  0.2312 -0.6050
   12MOL   C528 8690   2.829   1.301   0.184 -0.5652  0.1858 -0.1002
   12MOL   C529 8691   2.728   1.197   0.233 -0.1169 -0.3868 -0.4416
   12MOL   C530 8692   2.585   1.226   0.185  0.1550 -1.0380 -0.2407
   12MOL   C531 8693   2.482   1.118   0.214  0.8174 -0.2652 -0.1236
   12MOL   C532 8694   2.356   1.124   0.122  0.3783  0.2445  0.2937
   12MOL   N533 8695   2.259   1.036   0.171 -0.4600  0.4554 -0.1436
   12MOL   H534 8696   3.372   1.049   0.008 -1.3532 -0.3774  0.0899
   12MOL   H535 8697   3.194   1.046   7.671 -1.5765  1.1867 -1.1172
   12MOL   H536 8698   3.283   1.219   0.128  0.0761 -2.8382 -0.4190
   12MOL   H537 8699   3.339   1.311   7.685 -0.8237  0.2287 -0.7322
   12MOL   H538 8700   3.050   1.221   0.006  0.0465 -0.0887 -0.9346
   12MOL   H539 8701   3.132   1.321   7.586 -0.9030  2.8325  0.5400
   12MOL   H540 8702   3.178   1.492   0.046  0.7004 -1.3592 -2.5391
   12MOL   H541 8703   3.014   1.469   0.026  1.2912  1.6091 -1.0454
   12MOL   H542 8704   3.042   1.488   0.273 -0.2336 -0.2441  1.0232
   12MOL   H543 8705   3.167   1.372   0.272  0.0129 -0.9732 -0.0994
   12MOL   H544 8706   2.945   1.303   0.365 -1.6030 -0.8591 -0.7191
   12MOL   H545 8707   2.997   1.184   0.252 -0.3778 -0.0452  1.3576
   12MOL   H546 8708   2.830   1.289   0.076 -0.4420 -1.3346  0.0616
   12MOL   H547 8709   2.798   1.405   0.183  0.8804  0.6653  1.7303
   12MOL   H548 8710   2.727   1.192   0.342 -1.4276  0.8695 -0.3773
   12MOL   H549 8711   2.764   1.102   0.193  0.4429  0.4440 -1.9390
   12MOL   H550 8712   2.585   1.240   0.077 -1.0234 -0.0266 -0.1180
   12MOL   H551 8713   2.550   1.317   0.235  2.2854  0.0926 -0.7289
   12MOL   H552 8714   2.450   1.128   0.318  1.2751  2.2960 -0.1945
   12MOL   H553 8715   2.540   1.028   0.195  1.3546 -0.0191  0.3154
   12MOL   H554 8716   2.388   1.106   0.019  2.1840 -1.6688  1.1522
   12MOL   H555 8717   2.306   1.220   0.133 -0.5733 -0.5758  3.6492
   12MOL   H556 8718   2.235   1.049   0.268  1.1742  0.5837  0.2517
   12MOL   C557 8719   2.213   0.926   0.106  0.2839  0.5924  0.1728
   12MOL   O558 8720   2.242   0.899   7.682 -0.2882 -0.3565 -0.2931
   12MOL   C559 8721   2.137   0.822   0.187 -0.4181 -0.6767 -0.4248
   12MOL   C560 8722   2.143   0.682   0.129 -0.1425  0.6466  0.7815
   12MOL   C561 8723   2.077   0.575   0.222  0.1224  0.5596  0.2771
   12MOL   C562 8724   2.073   0.433   0.187 -0.0910  0.2479  0.3011
   12MOL   C563 8725   1.976   0.397   0.072 -0.4068 -0.3767  0.6895
   12MOL   C564 8726   2.012   0.255   0.012 -0.3459  0.2806  0.2135
   12MOL   C565 8727   1.940   0.142   0.094  0.3272  0.3244  1.2002
   12MOL   C566 8728   1.958   0.009   0.020  0.5328 -0.8718 -0.7974
   12MOL   C567 8729   1.907   7.584   0.110  0.1465 -0.2163  0.0851
   12MOL   C568 8730   1.931   7.446   0.055 -0.4163  0.3155 -0.7451
   12MOL   C569 8731   1.857   7.338   0.130  0.0282  0.0819 -0.0768
   12MOL   N570 8732   1.909   7.327   0.274 -0.4601  0.3415  0.2349
   12MOL   H571 8733   2.033   0.853   0.196 -0.2473  0.2436 -1.5579
   12MOL   H572 8734   2.168   0.827   0.291 -1.6655 -1.1766 -0.0212
   12MOL   H573 8735   2.087   0.684   0.036 -1.9248  2.1034  1.8452
   12MOL   H574 8736   2.248   0.663   0.105 -0.8618  0.1630 -2.1773
   12MOL   H575 8737   1.977   0.606   0.252  0.8890  2.7898  0.6560
   12MOL   H576 8738   2.130   0.593   0.316 -0.0767 -2.6395  1.0611
   12MOL   H577 8739   2.174   0.408   0.154 -1.0337 -0.1415 -2.3519
   12MOL   H578 8740   2.053   0.366   0.271  1.5715 -0.6085  0.0415
   12MOL   H579 8741   1.976   0.473   7.688 -3.8498  0.6898  1.6665
   12MOL   H580 8742   1.872   0.395   0.105 -0.5880 -1.2144  0.0715
   12MOL   H581 8743   2.120   0.241   0.006 -0.2041  0.7318  1.5407
   12MOL   H582 8744   1.974   0.251   7.604  0.0240  4.1354 -0.1612
   12MOL   H583 8745   1.833   0.158   0.102  0.2481  0.0331  0.7659
   12MOL   H584 8746   1.973   0.131   0.197 -0.4897 -0.9724  1.3401
   12MOL   H585 8747   2.064   7.684   0.005  0.5390 -0.9652 -0.6413
   12MOL   H586 8748   1.895   0.013   7.625 -1.8086  2.0082  0.8912
   12MOL   H587 8749   1.802   7.582   0.139 -0.5559 -1.0111 -2.4125
   12MOL   H588 8750   1.944   7.574   0.212  0.0864 -1.9493 -0.0407
   12MOL   H589 8751   2.040   7.440   0.050  0.0789  3.7778  3.2984
   12MOL   H590 8752   1.894   7.442   7.646  1.9177  2.2193 -1.6885
   12MOL   H591 8753   1.871   7.235   0.095 -1.6214 -0.9428  2.1318
   12MOL   H592 8754   1.750   7.355   0.130 -0.0134  0.1538  3.1296
   12MOL   H593 8755   2.003   7.353   0.298 -0.4416 -1.2132  1.9436
   12MOL   C594 8756   1.830   7.313   0.381  0.0888 -0.0130  0.3210
   12MOL   O595 8757   1.711   7.298   0.376  0.0668  0.3605 -0.2976
   12MOL   C596 8758   1.903   7.322   0.518 -0.0660  0.4541 -0.1269
   12MOL   C597 8759   1.835   7.253   0.637 -0.0003 -0.7364  0.1759
   12MOL   C598 8760   1.839   7.100   0.638 -0.6191 -0.1173 -0.8238
   12MOL   C599 8761   1.804   7.030   0.779 -0.1052  0.5126 -0.1894
   12MOL   C600 8762   1.848   6.881   0.785 -0.1168 -0.0063  0.2967
   12MOL   C601 8763   1.826   6.813   0.922  0.5331 -0.0003  0.2572
   12MOL   C602 8764   1.848   6.660   0.911 -0.5535 -0.0513  0.4258
   12MOL   C603 8765   1.957   6.600   1.003  0.5246 -0.5668 -0.6121
   12MOL   C604 8766   2.095   6.629   0.945  0.8799  0.6259  0.6047
   12MOL   C605 8767   2.200   6.532   0.998  0.0763  0.0126  0.1861
   12MOL   C606 8768   2.344   6.562   0.955  0.1155 -0.2802  0.9925
   12MOL   N607 8769   2.396   6.689   1.014 -0.5999  0.4302  0.3992
   12MOL   H608 8770   1.911   7.429   0.537  1.2869  0.3264  0.1131
   12MOL   H609 8771   2.007   7.291   0.505 -0.9036 -2.0430 -1.2397
   12MOL   H610 8772   1.875   7.293   0.730 -1.7213 -0.5343  0.8319
   12MOL   H611 8773   1.730   7.279   0.627  0.2152  0.5795  1.2484
   12MOL   H612 8774   1.936   7.063   0.603  0.5214  2.3561 -0.3800
   12MOL   H613 8775   1.771   7.060   0.564 -2.0840 -1.3118  1.1239
   12MOL   H614 8776   1.867   7.086   0.848  2.0350 -0.3655 -1.3848
   12MOL   H615 8777   1.699   7.048   0.801 -0.5291 -2.4553  0.3808
   12MOL   H616 8778   1.954   6.885   0.758 -0.2511  1.5139 -0.0403
   12MOL   H617 8779   1.789   6.837   0.704 -0.9145  1.9054 -0.1893
   12MOL   H618 8780   1.725   6.821   0.962  0.0377  1.5066 -1.2323
   12MOL   H619 8781   1.888   6.862   0.996  1.0091  1.1647 -0.8929
   12MOL   H620 8782   1.875   6.639   0.808  1.2938  0.2582  0.8348
   12MOL   H621 8783   1.754   6.610   0.932  0.0119 -1.6569 -0.8112
   12MOL   H622 8784   1.950   6.492   0.993 -1.4249 -0.3668 -1.4945
   12MOL   H623 8785   1.954   6.614   1.111  0.5141 -3.2628 -0.2329
   12MOL   H624 8786   2.123   6.732   0.967 -1.3341  1.1593  0.9842
   12MOL   H625 8787   2.097   6.606   0.838  0.1217  0.0790  0.7087
   12MOL   H626 8788   2.176   6.430   0.969 -3.2547  0.4348  1.2404
   12MOL   H627 8789   2.200   6.525   1.107  0.1397  1.0556  0.2555
   12MOL   H628 8790   2.328   6.579   0.849  1.1352 -1.8553  0.5782
   12MOL   H629 8791   2.401   6.471   0.974  2.6281  0.8968 -0.7327
   12MOL   H630 8792   2.331   6.763   1.036 -2.1369 -1.1088  1.1842
   12MOL   C631 8793   2.517   6.706   1.072  0.7011 -0.0981  0.7045
   12MOL   O632 8794   2.610   6.627   1.062  0.4778  0.0512  0.7647
   12MOL   C633 8795   2.537   6.838   1.139 -0.1488  0.4727  0.5603
   12MOL   C634 8796   2.663   6.843   1.231  0.8588  0.1609 -0.5283
   12MOL   C635 8797   2.636   6.771   1.364 -0.2229  0.6615 -0.4380
   12MOL   C636 8798   2.681   6.844   1.485  0.0451 -0.1564  0.4449
   12MOL   C637 8799   2.651   6.777   1.620  0.3873  0.4769 -0.0475
   12MOL   C638 8800   2.708   6.846   1.739 -0.6260  0.2054  0.3217
   12MOL   C639 8801   2.637   6.820   1.873  0.6900  0.4404  0.4353
   12MOL   C640 8802   2.700   6.890   1.995  0.2652 -0.0003 -0.7456
   12MOL   C641 8803   2.619   6.863   2.119 -0.3856  0.5680  0.1657
   12MOL   C642 8804   2.491   6.956   2.130  0.0541  0.1861 -1.1762
   12MOL   C643 8805   2.403   6.912   2.242  0.4076  0.4304  0.1697
   12MOL   N644 8806   2.474   6.896   2.365 -0.0472 -0.3129 -0.2661
   12MOL   H645 8807   2.454   6.863   1.205 -1.2876  1.9622 -1.3983
   12MOL   H646 8808   2.529   6.918   1.066  0.8141  1.3987  1.4431
   12MOL   H647 8809   2.754   6.798   1.190  1.1941  0.1646  0.2032
   12MOL   H648 8810   2.682   6.947   1.255  0.9504  0.1593 -0.5900
   12MOL   H649 8811   2.677   6.670   1.368 -0.8982  0.4248  0.7721
   12MOL   H650 8812   2.530   6.751   1.382 -0.5792  0.5705 -2.4848
   12MOL   H651 8813   2.785   6.877   1.479  0.2583 -0.3972  2.4691
   12MOL   H652 8814   2.626   6.939   1.485 -2.8128 -1.7354 -1.7541
   12MOL   H653 8815   2.692   6.676   1.626  2.2782  1.0222 -2.6300
   12MOL   H654 8816   2.545   6.759   1.635  0.4111  0.9805  0.7586
   12MOL   H655 8817   2.679   6.947   1.711 -1.4017 -0.5509 -1.6604
   12MOL   H656 8818   2.816   6.845   1.748 -0.4246 -0.6610 -1.8972
   12MOL   H657 8819   2.610   6.716   1.891 -1.9312  1.2522  1.4217
   12MOL   H658 8820   2.537   6.859   1.853  0.8639  0.2283 -0.8453
   12MOL   H659 8821   2.698   6.998   1.979  2.4781  0.1472 -0.1499
   12MOL   H660 8822   2.806   6.868   2.005  0.4697  1.2358 -0.0784
   12MOL   H661 8823   2.689   6.881   2.200 -0.3524  0.0958  0.2423
   12MOL   H662 8824   2.595   6.758   2.136 -0.2351  0.6838  1.1263
   12MOL   H663 8825   2.430   6.966   2.039  0.8965 -1.7603 -1.9685
   12MOL   H664 8826   2.527   7.056   2.154 -0.0042  0.2438 -1.3251
   12MOL   H665 8827   2.372   6.811   2.217  0.6375  0.0162  1.5408
   12MOL   H666 8828   2.318   6.979   2.256  1.1098  1.0531  1.5220
   12MOL   H667 8829   2.459   6.810   2.415 -2.1866  1.0551  1.5199
   12MOL   C668 8830   2.534   6.988   2.443  0.0856  0.1922  0.2479
   12MOL   O669 8831   2.517   7.108   2.423  0.0580 -0.0456  0.4825
   12MOL   C670 8832   2.600   6.941   2.573 -0.5640  0.8208 -0.0137
   12MOL   C671 8833   2.579   7.029   2.692 -0.1060 -0.3078  0.4083
   12MOL   C672 8834   2.691   7.016   2.789  0.4914  0.4893 -0.3022
   12MOL   C673 8835   2.660   7.097   2.919 -0.1794  0.7447  0.2370
   12MOL   C674 8836   2.762   7.087   3.034 -0.1358  0.5830 -0.3861
   12MOL   C675 8837   2.891   7.164   3.018 -0.6789 -0.4350 -0.0625
   12MOL   C676 8838   2.974   7.174   3.151  0.3212 -0.5276  0.0807
   12MOL   C677 8839   3.095   7.269   3.130 -0.0649  0.5405 -0.5571
   12MOL   C678 8840   3.145   7.332   3.261  0.1743  0.0932  0.1917
   12MOL   C679 8841   3.283   7.403   3.241  0.4129 -0.7893  1.0640
   12MOL   C680 8842   3.340   7.463   3.376  0.0519 -0.1843 -0.7189
   12MOL   N681 8843   3.445   7.567   3.345 -0.0634 -0.2974  0.3761
   12MOL   H682 8844   2.705   6.928   2.548 -0.2451 -2.2084  2.5463
   12MOL   H683 8845   2.558   6.843   2.596 -1.1754  1.1018  0.0760
   12MOL   H684 8846   2.569   7.134   2.665 -0.3982 -0.5473 -0.4441
   12MOL   H685 8847   2.486   6.986   2.728 -0.1267  0.5191  1.3541
   12MOL   H686 8848   2.788   7.048   2.750  0.7059  2.1185  1.4765
   12MOL   H687 8849   2.698   6.909   2.806 -2.8596 -0.3745 -3.9518
   12MOL   H688 8850   2.658   7.205   2.905  0.1988  0.9278  1.5361
   12MOL   H689 8851   2.561   7.062   2.948 -0.5953  2.1888  0.5678
   12MOL   H690 8852   2.790   6.983   3.049  0.2282  0.5007 -1.5866
   12MOL   H691 8853   2.728   7.136   3.126  0.0309  2.6512 -1.3950
   12MOL   H692 8854   2.870   7.267   2.990 -2.1486  0.0712  2.6464
   12MOL   H693 8855   2.939   7.121   2.930 -0.2623  1.1172 -0.6193
   12MOL   H694 8856   3.001   7.074   3.186  1.2166  0.1591  1.4051
   12MOL   H695 8857   2.916   7.210   3.236 -0.2372 -1.7196  0.2053
   12MOL   H696 8858   3.069   7.347   3.058  0.8255  0.3186 -1.1301
   12MOL   H697 8859   3.178   7.229   3.072  0.1283  0.7399 -0.4223
   12MOL   H698 8860   3.157   7.263   3.345  1.2363  0.0621  0.0134
   12MOL   H699 8861   3.064   7.397   3.295 -0.2916 -0.6943  0.5930
   12MOL   H700 8862   3.261   7.480   3.167  0.4313 -2.3899 -0.6456
   12MOL   H701 8863   3.359   7.334   3.206 -0.1353 -0.0791 -1.6392
   12MOL   H702 8864   3.372   7.381   3.440  2.8569  0.6080 -1.0417
   12MOL   H703 8865   3.263   7.518   3.430  1.3429 -0.2201  1.1925
   12MOL   H704 8866   3.527   7.535   3.295 -0.3362  0.5007 -0.5968
   12MOL   C705 8867   3.425   0.004   3.326 -0.2976 -0.2611 -0.9703
   12MOL   O706 8868   3.322   0.064   3.363 -0.1315 -0.3072  0.2367
   12MOL   C707 8869   3.531   0.086   3.261 -0.5317  0.0842 -0.2122
   12MOL   C708 8870   3.505   0.112   3.114 -0.1829 -0.2159 -0.2080
   12MOL   C709 8871   3.383   0.193   3.066 -0.1182 -0.4062 -0.0646
   12MOL   C710 8872   3.333   0.153   2.930  0.3476  0.2345 -0.5001
   12MOL   C711 8873   3.268   0.016   2.925 -0.1085 -0.4709 -0.0057
   12MOL   C712 8874   3.224   7.671   2.778  0.1817 -0.0761  0.5983
   12MOL   C713 8875   3.171   7.526   2.770  0.6218  1.3309 -0.2386
   12MOL   C714 8876   3.128   7.481   2.627 -0.5940 -0.0337 -0.8609
   12MOL   C715 8877   3.079   7.333   2.629 -0.2351  0.2613  0.0812
   12MOL   C716 8878   2.998   7.293   2.503 -0.8099 -0.2329 -0.0683
   12MOL   C717 8879   2.978   7.141   2.476 -0.0029 -0.1369 -0.1554
   12MOL   N718 8880   2.926   7.111   2.350  0.2805  0.3804  0.2434
   12MOL   H719 8881   3.620   0.025   3.273  0.4076  1.5648  0.5153
   12MOL   H720 8882   3.544   0.179   3.317 -0.7832 -0.8819  1.4654
   12MOL   H721 8883   3.595   0.156   3.071 -1.3166  2.3015 -0.0863
   12MOL   H722 8884   3.496   0.011   3.073  1.5527 -0.9130  1.0344
   12MOL   H723 8885   3.411   0.299   3.066 -1.5205 -0.0304 -1.1753
   12MOL   H724 8886   3.311   0.190   3.148 -1.1005 -0.4093 -0.9242
   12MOL   H725 8887   3.261   0.225   2.892  0.4853  1.4384  1.4187
   12MOL   H726 8888   3.418   0.142   2.862 -1.0328  0.1025 -2.2360
   12MOL   H727 8889   3.183   0.018   2.992  0.4134 -0.5859  0.6619
   12MOL   H728 8890   3.332   7.630   2.963 -1.4487 -0.9457  1.3034
   12MOL   H729 8891   3.320   7.678   2.727 -0.4274  1.3201 -0.3809
   12MOL   H730 8892   3.157   0.052   2.737  2.2366  2.1773  1.2737
   12MOL   H731 8893   3.083   7.518   2.834 -0.3183  0.1346 -1.6601
   12MOL   H732 8894   3.247   7.465   2.818 -0.0935  1.2633  0.8151
   12MOL   H733 8895   3.207   7.487   2.553  0.3101  0.0518  0.0897
   12MOL   H734 8896   3.042   7.543   2.601 -0.6311  0.2856 -0.0176
   12MOL   H735 8897   3.012   7.303   2.709  0.6269 -1.6046  0.1350
   12MOL   H736 8898   3.167   7.269   2.636 -2.7696 -3.3891 -0.3784
   12MOL   H737 8899   3.046   7.349   2.423 -2.6264  2.0224  0.3622
   12MOL   H738 8900   2.904   7.347   2.512 -0.2058  0.6566  0.9734
   12MOL   H739 8901   2.906   7.095   2.545 -1.8210 -0.2647 -2.1103
   12MOL   H740 8902   3.076   7.091   2.477  0.1832  0.2228  1.9522
   12MOL   H741 8903   2.987   7.133   2.273 -0.4374 -1.9628 -1.0260
   12MOL   H742 8904   2.831   7.145   2.338 -0.3131 -1.2961  0.1279
   13MOL     C1 8905   6.696   0.076   2.297 -0.0315  0.2564 -0.0303
   13MOL     O2 8906   6.796   0.152   2.325 -0.0959  0.5138  0.2724
   13MOL     C3 8907   6.590   0.132   2.208  1.0006 -0.5433 -0.0174
   13MOL     C4 8908   6.648   0.237   2.111 -0.2695  0.1235 -0.3578
   13MOL     C5 8909   6.749   0.183   2.012 -0.4266  0.3132  0.0575
   13MOL     C6 8910   6.775   0.289   1.903 -0.2850 -0.3544 -0.8751
   13MOL     C7 8911   6.862   0.241   1.792 -0.4413  0.0292 -0.3456
   13MOL     C8 8912   6.857   0.315   1.661  0.4351  0.1734  0.0297
   13MOL     C9 8913   6.958   0.261   1.557 -0.4185  0.0213 -0.4833
   13MOL    C10 8914   6.914   0.154   1.460  0.3291 -0.5160 -0.4145
   13MOL    C11 8915   7.026   0.085   1.389 -0.7934 -0.3932 -0.7500
   13MOL    C12 8916   6.987   7.651   1.322  0.7095  0.3863 -0.4028
   13MOL    C13 8917   7.108   7.564   1.283 -0.4308  0.2626  0.0274
   13MOL    N14 8918   7.136   7.600   1.147  0.1525 -0.2369 -0.1899
   13MOL    H15 8919   6.516   0.181   2.270  2.6316  1.2253  0.5539
   13MOL    H16 8920   6.549   0.051   2.147  0.2864 -1.8118  2.1207
   13MOL    H17 8921   6.563   0.283   2.062  0.5433  0.7554 -1.1940
   13MOL    H18 8922   6.682   0.329   2.158 -1.0732 -0.3883  1.2323
   13MOL    H19 8923   6.683   0.114   1.958 -1.0243  1.5617 -0.8396
   13MOL    H20 8924   6.832   0.123   2.047 -0.5254 -0.1977 -0.5700
   13MOL    H21 8925   6.677   0.297   1.855 -0.1791 -1.6417 -1.3361
   13MOL    H22 8926   6.811   0.381   1.948 -1.4040 -0.7568  0.8870
   13MOL    H23 8927   6.844   0.134   1.778 -0.4985 -0.1155  0.7321
   13MOL    H24 8928   6.965   0.243   1.828 -0.8591  1.8921  0.7886
   13MOL    H25 8929   6.880   0.418   1.687  0.0466 -0.2571  2.1843
   13MOL    H26 8930   6.758   0.307   1.615 -0.2996  1.3271  1.3589
   13MOL    H27 8931   7.034   0.220   1.622 -2.5024 -2.5770  0.4127
   13MOL    H28 8932   7.001   0.348   1.506  2.7747 -0.5651  1.1275
   13MOL    H29 8933   6.829   0.184   1.399 -0.5775 -1.5487  0.3128
   13MOL    H30 8934   6.868   0.081   1.527  0.9372 -2.3473 -1.9406
   13MOL    H31 8935   7.103   0.060   1.462 -1.0334 -0.1118 -0.3999
   13MOL    H32 8936   7.058   0.148   1.306  1.7056 -2.1047 -1.1571
   13MOL    H33 8937   6.918   7.675   1.241 -1.1638 -0.9376  0.7402
   13MOL    H34 8938   6.940   7.584   1.394  1.4647 -0.7327 -0.9239
   13MOL    H35 8939   7.081   7.459   1.276 -0.2809  0.1082  1.6007
   13MOL    H36 8940   7.196   7.567   1.346 -0.2488  0.9821 -0.2513
   13MOL    H37 8941   7.073   7.562   1.079 -1.4997  3.0851 -0.6217
   13MOL    H38 8942   6.686   7.666   2.328 -0.1323 -0.1336 -1.3534
   13MOL    C39 8943   7.249   7.657   1.103  0.1098 -0.2144  0.0928
   13MOL    O40 8944   7.342   7.688   1.182 -0.3717 -0.4011  0.0809
   13MOL    C41 8945   7.260   7.669   0.952 -0.4503 -0.2020  0.0988
   13MOL    C42 8946   7.326   0.104   0.916 -0.4895 -0.3665 -0.6476
   13MOL    C43 8947   7.321   0.145   0.767 -0.2272 -0.3972 -0.4749
   13MOL    C44 8948   7.374   0.285   0.730 -0.1895  0.5486 -0.1322
   13MOL    C45 8949   7.527   0.295   0.729 -0.2026  0.0272  0.1817
   13MOL    C46 8950   7.572   0.433   0.706  0.7447  0.3674 -0.0296
   13MOL    C47 8951   0.032   0.458   0.719 -0.4250  0.1686  0.0195
   13MOL    C48 8952   0.063   0.609   0.738  0.3028  0.1111 -0.1850
   13MOL    C49 8953   0.205   0.638   0.776 -0.9439  0.2926  0.2548
   13MOL    C50 8954   0.302   0.647   0.659  0.0604 -0.1858  0.7202
   13MOL    C51 8955   0.299   0.782   0.587  0.1759 -0.6398 -0.7592
   13MOL    N52 8956   0.342   0.897   0.658  0.2051 -0.2904  0.0632
   13MOL    H53 8957   7.163   7.657   0.902  0.1883 -2.7475 -0.6319
   13MOL    H54 8958   7.318   7.581   0.923 -0.4037 -0.6408  1.4904
   13MOL    H55 8959   7.267   0.178   0.970 -0.6385 -2.2103  1.8312
   13MOL    H56 8960   7.431   0.103   0.947 -0.8368 -0.1972  0.5652
   13MOL    H57 8961   7.217   0.137   0.735 -0.1504 -1.4059 -0.4836
   13MOL    H58 8962   7.373   0.064   0.716  0.4031 -1.2944  1.5072
   13MOL    H59 8963   7.338   0.315   0.632 -0.4633 -0.3582 -0.3101
   13MOL    H60 8964   7.330   0.361   0.795 -0.4050 -0.5668  1.0558
   13MOL    H61 8965   7.574   0.221   0.664 -0.7565  0.9309 -1.2717
   13MOL    H62 8966   7.565   0.266   0.827 -1.4577  0.8626  0.9312
   13MOL    H63 8967   7.525   0.492   0.785  1.0647 -1.8357  1.8460
   13MOL    H64 8968   7.531   0.468   0.611  1.2249  0.4045 -0.2236
   13MOL    H65 8969   0.089   0.421   0.634 -1.4260  0.1382 -0.6440
   13MOL    H66 8970   0.064   0.399   0.805 -2.0103 -0.0899  0.4621
   13MOL    H67 8971   0.009   0.649   0.824  0.9567  0.8865 -0.1322
   13MOL    H68 8972   0.033   0.664   0.649  0.4757  1.7626  0.7578
   13MOL    H69 8973   0.250   0.561   0.839  2.3756  0.8173 -1.3856
   13MOL    H70 8974   0.220   0.728   0.835  0.5861  0.9269 -1.0507
   13MOL    H71 8975   0.297   0.569   0.583  0.6167 -1.3960  1.9136
   13MOL    H72 8976   0.405   0.647   0.693  0.7485  1.9768 -1.2374
   13MOL    H73 8977   0.192   0.787   0.564  0.2435  1.3085 -0.7216
   13MOL    H74 8978   0.365   0.772   0.501 -0.7741 -1.8970 -1.3696
   13MOL    H75 8979   0.271   0.966   0.680  0.2871  0.4558 -1.9554
   13MOL    C76 8980   0.469   0.916   0.686  0.2531  0.1253  0.2185
   13MOL    O77 8981   0.554   0.830   0.661 -0.0752 -0.4511  0.2851
   13MOL    C78 8982   0.513   1.041   0.761  0.2119  0.2524  0.5939
   13MOL    C79 8983   0.661   1.089   0.737  0.5932 -0.7081 -0.5954
   13MOL    C80 8984   0.763   1.039   0.835 -0.1735 -0.8679 -0.2556
   13MOL    C81 8985   0.901   1.077   0.783  0.2958 -0.1059  0.0644
   13MOL    C82 8986   1.013   1.050   0.884  0.0062  1.1353  0.2631
   13MOL    C83 8987   1.156   1.082   0.828  0.4313 -0.0887  0.1887
   13MOL    C84 8988   1.272   1.071   0.929 -0.1153  0.8407 -0.2976
   13MOL    C85 8989   1.414   1.130   0.886  0.3272 -0.6835 -0.3388
   13MOL    C86 8990   1.413   1.279   0.866 -0.1151  0.1608 -0.2149
   13MOL    C87 8991   1.406   1.360   1.000 -0.3931 -0.4521 -0.2466
   13MOL    C88 8992   1.372   1.508   0.959 -0.4369  0.7710 -0.7855
   13MOL    N89 8993   1.344   1.598   1.073 -0.5352 -0.3187 -0.1602
   13MOL    H90 8994   0.491   1.042   0.868 -2.5022 -1.5509  0.1075
   13MOL    H91 8995   0.454   1.125   0.727 -1.5316 -1.0135  0.4568
   13MOL    H92 8996   0.681   1.061   0.633 -2.9994 -0.4777 -1.4143
   13MOL    H93 8997   0.667   1.197   0.737  2.7540 -0.7757 -3.5876
   13MOL    H94 8998   0.743   0.933   0.852  1.3344 -1.1618 -0.3227
   13MOL    H95 8999   0.732   1.083   0.930  3.1065  2.0053 -0.4479
   13MOL    H96 9000   0.921   1.023   0.691  0.4194  1.6309 -0.9502
   13MOL    H97 9001   0.895   1.183   0.757  0.3091 -0.0091  0.4494
   13MOL    H98 9002   1.013   0.950   0.926  1.3103  0.8893 -0.3136
   13MOL    H99 9003   0.985   1.107   0.974 -0.4407  0.5980  0.4660
   13MOL   H100 9004   1.153   1.184   0.791  1.3739 -0.6620 -1.5486
   13MOL   H101 9005   1.187   1.024   0.741  0.5326  1.9688 -1.1666
   13MOL   H102 9006   1.303   0.968   0.948  0.3430  1.0852  0.2665
   13MOL   H103 9007   1.254   1.102   1.031  1.5658 -0.5450  0.4423
   13MOL   H104 9008   1.436   1.070   0.798 -0.5132 -0.9130 -0.3980
   13MOL   H105 9009   1.498   1.121   0.955 -0.6569 -2.0226  0.7109
   13MOL   H106 9010   1.339   1.311   0.794  0.2132  0.1844 -0.5417
   13MOL   H107 9011   1.500   1.316   0.812  0.1814 -0.8903 -0.4732
   13MOL   H108 9012   1.496   1.365   1.062 -1.5807  0.8778  1.4356
   13MOL   H109 9013   1.323   1.326   1.062 -0.3731  0.8104  0.4938
   13MOL   H110 9014   1.287   1.515   0.891 -1.2333  1.5839  0.2680
   13MOL   H111 9015   1.456   1.557   0.908 -0.7522  0.5478 -1.5286
   13MOL   H112 9016   1.412   1.602   1.148 -0.8493  0.0349  0.1109
   13MOL   C113 9017   1.229   1.669   1.096 -0.0318 -0.3144  0.0582
   13MOL   O114 9018   1.145   1.680   1.008 -0.1803 -0.1263  0.8649
   13MOL   C115 9019   1.214   1.752   1.226 -0.8289  0.6759 -0.1166
   13MOL   C116 9020   1.076   1.721   1.310 -0.6334 -0.4597 -0.1259
   13MOL   C117 9021   1.082   1.575   1.368 -0.5869  0.3760 -0.3646
   13MOL   C118 9022   1.036   1.462   1.271 -0.4244 -0.0165 -0.4375
   13MOL   C119 9023   1.084   1.328   1.327  0.9579  0.6184 -0.2198
   13MOL   C120 9024   1.046   1.196   1.245 -0.0642 -0.2409 -0.1687
   13MOL   C121 9025   1.045   1.077   1.334  0.5580  0.2281 -0.6631
   13MOL   C122 9026   1.058   0.947   1.251  0.5827  0.3251 -0.1583
   13MOL   C123 9027   1.045   0.817   1.326 -0.2730  0.1190  0.0767
   13MOL   C124 9028   1.074   0.687   1.238  0.0784  0.2140  0.2337
   13MOL   C125 9029   1.075   0.558   1.332 -0.1444 -0.4657 -0.2200
   13MOL   N126 9030   1.133   0.456   1.255 -0.5971  0.2364  0.2029
   13MOL   H127 9031   1.223   1.857   1.197 -2.1805  1.0605  0.8354
   13MOL   H128 9032   1.302   1.726   1.284 -0.2367 -0.7392 -1.5935
   13MOL   H129 9033   1.077   1.789   1.396  2.0092  1.0833 -1.3144
   13MOL   H130 9034   0.980   1.730   1.259 -0.9804 -1.8527  0.2600
   13MOL   H131 9035   1.017   1.578   1.455  0.9526  2.9176  0.7319
   13MOL   H132 9036   1.187   1.567   1.398 -0.6934 -0.0564 -0.1057
   13MOL   H133 9037   0.930   1.459   1.247 -0.1334  0.5517 -1.8712
   13MOL   H134 9038   1.096   1.477   1.181  0.1285  0.6221  0.0381
   13MOL   H135 9039   1.036   1.332   1.425  1.3799  0.9223 -0.0207
   13MOL   H136 9040   1.189   1.326   1.355  1.1231 -1.3412 -0.9337
   13MOL   H137 9041   1.118   1.180   1.165  0.5795  1.8300 -0.0250
   13MOL   H138 9042   0.945   1.209   1.206 -0.2984 -1.1180  0.1374
   13MOL   H139 9043   0.949   1.074   1.386  1.1946 -1.2127  0.4792
   13MOL   H140 9044   1.124   1.094   1.408 -0.8249  1.4300  0.5685
   13MOL   H141 9045   1.150   0.943   1.193  0.3844 -1.6681 -0.3632
   13MOL   H142 9046   0.978   0.953   1.177 -1.0972  0.7885  1.6386
   13MOL   H143 9047   0.950   0.809   1.380 -0.8806 -0.9319 -1.1135
   13MOL   H144 9048   1.113   0.810   1.411  0.6243  1.1781 -0.5530
   13MOL   H145 9049   1.166   0.704   1.181  1.1097  1.3709  2.1583
   13MOL   H146 9050   1.001   0.678   1.159 -1.9071 -1.0535  2.1572
   13MOL   H147 9051   0.972   0.539   1.363  0.0822  0.5059  1.1806
   13MOL   H148 9052   1.142   0.574   1.417  0.1505 -2.3208 -0.0826
   13MOL   H149 9053   1.111   0.475   1.158 -0.0181  0.5697  0.1407
   13MOL   C150 9054   1.230   0.373   1.297 -1.2782 -0.7434  0.0004
   13MOL   O151 9055   1.246   0.359   1.414  0.6529 -0.3587 -0.2898
   13MOL   C152 9056   1.309   0.278   1.205  1.1943 -0.0700 -0.1786
   13MOL   C153 9057   1.441   0.330   1.153 -0.2810  0.3243  0.1946
   13MOL   C154 9058   1.491   0.244   1.034  0.2911 -0.1977 -0.0469
   13MOL   C155 9059   1.604   0.313   0.963  0.1750 -0.0871  0.2107
   13MOL   C156 9060   1.739   0.312   1.039 -0.2132 -0.6841  0.5222
   13MOL   C157 9061   1.860   0.354   0.957  0.2607  0.3074 -0.0074
   13MOL   C158 9062   1.987   0.352   1.050 -0.6325  0.1619 -0.4791
   13MOL   C159 9063   1.995   0.474   1.141  0.5803  0.0105  0.6583
   13MOL   C160 9064   2.118   0.478   1.233 -0.3784  0.1403 -0.4155
   13MOL   C161 9065   2.105   0.378   1.353 -0.5667  0.6711  0.0596
   13MOL   C162 9066   2.219   0.369   1.459  0.5653  0.9325  0.3727
   13MOL   N163 9067   2.188   0.266   1.561 -0.0599  0.4077  0.0579
   13MOL   H164 9068   1.239   0.282   1.122  0.6779  0.3672  0.2725
   13MOL   H165 9069   1.310   0.175   1.239  0.4463  0.2342  0.7906
   13MOL   H166 9070   1.442   0.438   1.141 -1.8518  0.2652 -0.5566
   13MOL   H167 9071   1.515   0.320   1.233 -0.4226  0.0447  0.2919
   13MOL   H168 9072   1.409   0.238   0.963  0.0689  1.2320  0.0803
   13MOL   H169 9073   1.528   0.145   1.061 -0.6618 -0.3197  0.8474
   13MOL   H170 9074   1.600   0.268   0.864 -1.3624  1.7886 -0.6129
   13MOL   H171 9075   1.577   0.418   0.950  2.6389  0.7400  1.3307
   13MOL   H172 9076   1.760   0.205   1.051 -3.4939 -1.3444  0.8582
   13MOL   H173 9077   1.718   0.353   1.137  0.7546 -0.0697  0.4855
   13MOL   H174 9078   1.839   0.448   0.907  0.6643  0.4917  0.1688
   13MOL   H175 9079   1.884   0.287   0.874  2.2743  1.5126 -0.4412
   13MOL   H176 9080   2.075   0.356   0.986  1.1813 -0.5436  1.8913
   13MOL   H177 9081   2.003   0.264   1.112  1.4224 -0.3115 -1.6639
   13MOL   H178 9082   1.909   0.481   1.208  0.3218 -2.8403  0.6872
   13MOL   H179 9083   2.010   0.565   1.084 -1.3818 -1.5216 -2.4435
   13MOL   H180 9084   2.153   0.578   1.260  0.5902 -0.5343  0.8644
   13MOL   H181 9085   2.201   0.444   1.170 -0.9193 -0.4817 -0.7956
   13MOL   H182 9086   2.088   0.278   1.311  1.3798  0.1861  0.4013
   13MOL   H183 9087   2.012   0.408   1.402 -0.7564  0.0673  0.0815
   13MOL   H184 9088   2.231   0.463   1.513 -0.9786  1.4677 -0.1961
   13MOL   H185 9089   2.320   0.345   1.425  1.3359  0.6147  2.7542
   13MOL   H186 9090   2.235   0.177   1.554 -2.1133 -0.7380  0.4366
   13MOL   C187 9091   2.106   0.281   1.666 -0.1891  0.4519  0.5768
   13MOL   O188 9092   2.038   0.384   1.688 -0.6390  0.1393  0.1721
   13MOL   C189 9093   2.102   0.157   1.759  1.0573  0.3782 -0.2324
   13MOL   C190 9094   1.986   0.057   1.718 -0.4043 -0.0161 -0.4723
   13MOL   C191 9095   1.843   0.111   1.751  0.2393 -0.1800 -0.7941
   13MOL   C192 9096   1.817   0.168   1.889 -0.4700 -0.6078 -0.4009
   13MOL   C193 9097   1.829   0.074   2.008 -0.8634 -0.0756  0.5056
   13MOL   C194 9098   1.796   0.135   2.142 -0.9743 -0.6014 -0.1101
   13MOL   C195 9099   1.653   0.104   2.185  1.3009  0.6278 -0.0988
   13MOL   C196 9100   1.602   0.180   2.298  0.3578 -0.0037 -1.0933
   13MOL   C197 9101   1.444   0.171   2.328  0.2917 -0.7058  0.2215
   13MOL   C198 9102   1.359   0.225   2.219 -0.5425 -0.6585  0.4739
   13MOL   C199 9103   1.213   0.200   2.252  0.2643  0.3300 -0.3255
   13MOL   N200 9104   1.115   0.264   2.161 -0.0473  1.0295  0.9772
   13MOL   H201 9105   2.090   0.180   1.865 -2.1386 -3.4522  0.3934
   13MOL   H202 9106   2.199   0.110   1.746  1.3043  0.8849 -0.1997
   13MOL   H203 9107   1.993   0.035   1.611 -1.0902  0.5320 -0.6325
   13MOL   H204 9108   2.008   7.652   1.758  0.4175  0.7377  0.9695
   13MOL   H205 9109   1.783   0.021   1.740 -0.6762  0.1954  0.9130
   13MOL   H206 9110   1.811   0.189   1.683  0.8194 -0.2788 -1.1791
   13MOL   H207 9111   1.874   0.260   1.899 -2.0601  0.2065  1.8952
   13MOL   H208 9112   1.718   0.213   1.880 -0.0307  0.0371 -2.1113
   13MOL   H209 9113   1.928   0.029   2.020 -1.6186 -1.7002  0.7118
   13MOL   H210 9114   1.763   7.682   1.998  0.3589 -0.9632 -0.1453
   13MOL   H211 9115   1.815   0.242   2.138  0.7396 -0.8987 -0.7735
   13MOL   H212 9116   1.861   0.096   2.220  1.9904  0.6375 -1.8553
   13MOL   H213 9117   1.643   7.690   2.194 -1.1127  0.8386  0.2045
   13MOL   H214 9118   1.588   0.124   2.100 -0.8243  0.7180  1.5100
   13MOL   H215 9119   1.637   0.280   2.273 -0.4600  0.8415  1.0784
   13MOL   H216 9120   1.657   0.158   2.389  1.0684  0.0923 -1.4998
   13MOL   H217 9121   1.428   0.223   2.423  1.8128 -1.3846  0.8874
   13MOL   H218 9122   1.412   0.069   2.352 -1.6927 -0.1442  0.0123
   13MOL   H219 9123   1.380   0.181   2.121  0.5596 -0.2886  0.5280
   13MOL   H220 9124   1.386   0.331   2.212 -3.3224  0.0050 -0.7304
   13MOL   H221 9125   1.184   0.228   2.353  1.7509 -1.2057  0.5278
   13MOL   H222 9126   1.192   0.093   2.252  3.2143 -0.2851 -0.9326
   13MOL   H223 9127   1.139   0.327   2.086  0.3537 -0.6577 -0.3482
   13MOL   C224 9128   0.983   0.264   2.185 -0.5961 -0.2819  0.2545
   13MOL   O225 9129   0.936   0.195   2.276  0.7772  0.2899 -0.7534
   13MOL   C226 9130   0.897   0.347   2.087  0.8099 -0.7469  0.7385
   13MOL   C227 9131   0.794   0.418   2.173 -0.3753 -0.6574 -0.1426
   13MOL   C228 9132   0.703   0.517   2.095 -0.0480  0.2267  0.5779
   13MOL   C229 9133   0.625   0.455   1.979 -0.2651 -0.7448 -0.4830
   13MOL   C230 9134   0.540   0.333   2.021 -1.0534 -0.8487 -0.3526
   13MOL   C231 9135   0.436   0.294   1.914 -0.2109  0.1014  0.1908
   13MOL   C232 9136   0.325   0.198   1.970  0.2524 -0.1193  0.1728
   13MOL   C233 9137   0.246   0.120   1.856  0.0372  0.1817  0.7900
   13MOL   C234 9138   0.327   0.009   1.789 -0.2195  0.0505 -0.5965
   13MOL   C235 9139   0.260   7.645   1.658  0.6139 -0.7774  0.0283
   13MOL   C236 9140   0.328   7.517   1.599 -0.2776  0.3602 -0.4013
   13MOL   N237 9141   0.320   7.407   1.693  0.1281  0.0307  0.6219
   13MOL   H238 9142   0.854   0.278   2.014 -0.2658 -0.8403  1.4389
   13MOL   H239 9143   0.956   0.420   2.033  0.1204 -0.2680  0.6250
   13MOL   H240 9144   0.723   0.352   2.223 -0.7224  1.2943  2.0335
   13MOL   H241 9145   0.844   0.462   2.259 -2.3455 -0.4243  0.9163
   13MOL   H242 9146   0.767   0.597   2.056  0.7605 -2.1364 -3.2405
   13MOL   H243 9147   0.639   0.558   2.173  0.7852  1.0568  0.8465
   13MOL   H244 9148   0.565   0.528   1.924  1.1458 -2.3041 -4.2450
   13MOL   H245 9149   0.696   0.443   1.897 -1.2969  0.7353 -1.6221
   13MOL   H246 9150   0.493   0.344   2.119 -0.0233  1.5619 -0.0846
   13MOL   H247 9151   0.618   0.257   2.019  0.2904  0.4638  0.3091
   13MOL   H248 9152   0.493   0.251   1.832 -0.7795 -1.7522  0.7333
   13MOL   H249 9153   0.374   0.378   1.882 -2.1419 -1.1105  0.6280
   13MOL   H250 9154   0.252   0.256   2.026 -1.5762  0.0287 -2.2682
   13MOL   H251 9155   0.372   0.124   2.034 -1.0510  0.6497  2.0808
   13MOL   H252 9156   0.214   0.190   1.779  1.9342  0.2166 -0.0068
   13MOL   H253 9157   0.153   0.077   1.892 -0.9452 -0.0692 -1.9343
   13MOL   H254 9158   0.360   7.629   1.862  1.0381  2.1815  1.0480
   13MOL   H255 9159   0.423   0.047   1.755  0.8259 -0.5979  1.5727
   13MOL   H256 9160   0.265   0.031   1.584  0.0021 -1.7095 -1.0237
   13MOL   H257 9161   0.154   7.625   1.672  1.1509 -2.7384  1.5470
   13MOL   H258 9162   0.431   7.547   1.585  0.2370  0.2639  2.8288
   13MOL   H259 9163   0.283   7.483   1.506 -1.1156 -0.4851  0.3019
   13MOL   H260 9164   0.234   7.379   1.737 -0.6066  0.1891 -0.7035
   13MOL   C261 9165   0.432   7.342   1.734  0.7147  0.2707 -0.4709
   13MOL   O262 9166   0.545   7.374   1.693 -0.1072  0.7236 -0.6834
   13MOL   C263 9167   0.414   7.237   1.845 -0.3416  0.3619 -0.1925
   13MOL   C264 9168   0.500   7.267   1.958  0.9523  1.2645  0.1678
   13MOL   C265 9169   0.455   7.395   2.025 -0.4717 -0.1907 -0.4011
   13MOL   C266 9170   0.515   7.420   2.166 -0.7569  0.2339  0.2093
   13MOL   C267 9171   0.533   7.569   2.191  0.2949  0.5684 -0.3344
   13MOL   C268 9172   0.572   7.596   2.337  1.1977 -0.0984  0.2468
   13MOL   C269 9173   0.592   0.052   2.359 -0.4623 -0.3194  0.1246
   13MOL   C270 9174   0.597   0.103   2.505  1.0011  0.0795 -0.0495
   13MOL   C271 9175   0.662   0.240   2.528 -0.4029 -0.7771 -0.0396
   13MOL   C272 9176   0.580   0.364   2.493 -0.3669 -0.0446 -0.3757
   13MOL   C273 9177   0.643   0.499   2.512  0.3253 -0.2446  0.7642
   13MOL   N274 9178   0.544   0.605   2.520  0.1917 -0.5063 -0.5653
   13MOL   H275 9179   0.433   7.144   1.792 -1.7639 -1.0479  1.7108
   13MOL   H276 9180   0.309   7.229   1.872 -0.3826 -2.9354 -1.2025
   13MOL   H277 9181   0.501   7.186   2.031 -3.6140 -0.9460 -2.0668
   13MOL   H278 9182   0.605   7.276   1.929  0.4877  0.8433 -1.6460
   13MOL   H279 9183   0.348   7.412   2.034 -0.4574 -0.8193  0.9892
   13MOL   H280 9184   0.475   7.482   1.961 -1.0112 -0.6384 -1.1832
   13MOL   H281 9185   0.443   7.373   2.232 -1.2762 -0.2080 -0.6584
   13MOL   H282 9186   0.612   7.372   2.177 -0.2087  0.9218 -1.3438
   13MOL   H283 9187   0.443   7.623   2.160  0.6056 -0.6848 -3.6395
   13MOL   H284 9188   0.618   7.603   2.132  0.0580 -2.8240 -2.7426
   13MOL   H285 9189   0.661   7.536   2.357  2.0894  0.8027 -0.9184
   13MOL   H286 9190   0.489   7.563   2.399  0.9849 -1.1686 -0.5757
   13MOL   H287 9191   0.503   0.100   2.317 -0.6109 -0.1650  0.6174
   13MOL   H288 9192   0.676   0.093   2.303  1.2446 -1.4588  1.7913
   13MOL   H289 9193   0.678   0.038   2.537  1.1842  0.0130 -0.6294
   13MOL   H290 9194   0.503   0.088   2.558  1.7809  1.0836  1.6421
   13MOL   H291 9195   0.753   0.245   2.469  0.3207  1.5698  1.2025
   13MOL   H292 9196   0.686   0.246   2.634 -1.1087  0.7142  0.0575
   13MOL   H293 9197   0.487   0.363   2.551 -1.4168  0.3377 -2.0051
   13MOL   H294 9198   0.542   0.357   2.391 -1.3157 -1.9019  0.0788
   13MOL   H295 9199   0.691   0.508   2.414 -0.3621 -0.3348  0.4131
   13MOL   H296 9200   0.724   0.500   2.584  1.7260  1.6158 -0.7708
   13MOL   H297 9201   0.489   0.612   2.436  0.4398 -0.7863 -0.7523
   13MOL   C298 9202   0.525   0.682   2.621  0.0329 -0.0373 -0.0354
   13MOL   O299 9203   0.595   0.680   2.721  0.0602 -0.0096 -0.1394
   13MOL   C300 9204   0.431   0.800   2.603 -0.1381 -0.1224 -0.2029
   13MOL   C301 9205   0.508   0.937   2.615 -0.0440 -0.1331  0.1852
   13MOL   C302 9206   0.429   1.069   2.570 -0.0182 -0.1849  0.0636
   13MOL   C303 9207   0.510   1.182   2.513  0.1065  0.0714 -0.0786
   13MOL   C304 9208   0.613   1.245   2.611 -0.3721  0.7034  0.7181
   13MOL   C305 9209   0.706   1.349   2.533 -0.2493 -0.7254  0.6245
   13MOL   C306 9210   0.827   1.398   2.617 -0.1249  0.1471  0.0114
   13MOL   C307 9211   0.786   1.504   2.734 -0.1122 -0.0528  0.4070
   13MOL   C308 9212   0.702   1.623   2.680  0.1804 -0.3777 -0.3564
   13MOL   C309 9213   0.711   1.750   2.771  0.1505 -0.1926  0.2744
   13MOL   C310 9214   0.625   1.859   2.696 -0.2952  0.6334 -0.6765
   13MOL   N311 9215   0.636   1.981   2.769  0.3555 -0.4868 -0.1294
   13MOL   H312 9216   0.340   0.795   2.663 -0.4211 -0.7220 -0.6608
   13MOL   H313 9217   0.381   0.802   2.506  2.2016  0.7764 -1.4271
   13MOL   H314 9218   0.556   0.944   2.712  0.9923  0.8056 -0.3844
   13MOL   H315 9219   0.596   0.932   2.551  2.1586  1.0330  3.0105
   13MOL   H316 9220   0.359   1.099   2.648 -1.1966 -0.7787 -0.7361
   13MOL   H317 9221   0.369   1.031   2.487 -1.3417 -0.5495  1.1547
   13MOL   H318 9222   0.555   1.141   2.422  2.4179  0.1361  0.9958
   13MOL   H319 9223   0.434   1.258   2.495 -0.0268 -0.3735 -1.4509
   13MOL   H320 9224   0.675   1.189   2.681  1.3352  5.0968  2.9338
   13MOL   H321 9225   0.561   1.314   2.678 -0.3868  1.2067  0.1931
   13MOL   H322 9226   0.644   1.432   2.499 -1.1481 -1.3848  0.6397
   13MOL   H323 9227   0.741   1.303   2.441  1.8761  1.2131  0.4164
   13MOL   H324 9228   0.903   1.431   2.546 -0.9216  2.1337  0.0601
   13MOL   H325 9229   0.874   1.310   2.662 -0.5021  1.2291  2.5956
   13MOL   H326 9230   0.869   1.533   2.797 -0.6124 -0.6708  1.3661
   13MOL   H327 9231   0.724   1.455   2.809 -0.4726  2.5135  1.8430
   13MOL   H328 9232   0.598   1.595   2.673  0.7509 -3.3120  1.8291
   13MOL   H329 9233   0.723   1.649   2.577 -1.3733 -0.9121 -0.8153
   13MOL   H330 9234   0.816   1.776   2.781 -0.1951  1.6016 -0.5975
   13MOL   H331 9235   0.669   1.732   2.870  1.2788 -0.2689  0.7423
   13MOL   H332 9236   0.519   1.835   2.698 -0.6108  1.9122 -1.6409
   13MOL   H333 9237   0.663   1.883   2.597  2.1304 -0.3679 -0.0350
   13MOL   H334 9238   0.619   1.976   2.868  0.0116 -0.6379 -0.1943
   13MOL   C335 9239   0.653   2.100   2.711 -0.7996  0.5870 -0.5625
   13MOL   O336 9240   0.661   2.131   2.594  0.1950  0.1131  0.3423
   13MOL   C337 9241   0.653   2.220   2.804  0.3672  0.5727  0.0748
   13MOL   C338 9242   0.804   2.273   2.814 -0.0524  0.1909  0.2797
   13MOL   C339 9243   0.907   2.179   2.873 -0.5957  0.3966  0.2247
   13MOL   C340 9244   0.881   2.130   3.014  0.0484 -0.6900  0.9478
   13MOL   C341 9245   0.904   2.241   3.122 -0.6070 -0.2047  0.1518
   13MOL   C342 9246   0.902   2.194   3.271 -0.0325 -0.5408  0.4337
   13MOL   C343 9247   0.774   2.123   3.317 -0.0613 -0.3312  0.3294
   13MOL   C344 9248   0.788   2.045   3.452  0.1511 -0.0940 -0.5539
   13MOL   C345 9249   0.665   1.965   3.492 -0.0842  0.2054  0.1280
   13MOL   C346 9250   0.674   1.903   3.631  0.2476 -0.5243  0.0522
   13MOL   C347 9251   0.573   1.798   3.654  0.4335  0.4770 -0.1710
   13MOL   N348 9252   0.435   1.846   3.663 -0.0106  0.0041 -0.1252
   13MOL   H349 9253   0.612   2.197   2.902 -0.6331 -2.0382 -0.9197
   13MOL   H350 9254   0.582   2.295   2.769 -2.5701 -1.3162  1.9004
   13MOL   H351 9255   0.834   2.316   2.718 -2.0510 -0.6083 -0.7370
   13MOL   H352 9256   0.810   2.353   2.888 -0.3525  1.1442 -0.7117
   13MOL   H353 9257   0.998   2.240   2.871 -0.1431 -0.2876 -0.0817
   13MOL   H354 9258   0.938   2.093   2.813  0.5789  0.3074  0.9444
   13MOL   H355 9259   0.783   2.084   3.021 -0.6418  0.2668 -1.8456
   13MOL   H356 9260   0.954   2.049   3.024 -0.2011 -1.4035 -2.4196
   13MOL   H357 9261   0.817   2.307   3.115 -0.1267  0.2350 -1.7748
   13MOL   H358 9262   0.994   2.301   3.112 -0.0169 -1.0816  0.2129
   13MOL   H359 9263   0.943   2.263   3.345  2.5314 -1.9765  0.4189
   13MOL   H360 9264   0.972   2.110   3.270  0.8988  0.2047  1.7899
   13MOL   H361 9265   0.743   2.043   3.249  0.4559 -0.5936  0.3962
   13MOL   H362 9266   0.688   2.188   3.335 -0.7340 -0.3517 -2.5979
   13MOL   H363 9267   0.824   2.112   3.530  1.7718 -1.6833  0.1050
   13MOL   H364 9268   0.876   1.982   3.437  0.4895  0.6433 -1.7746
   13MOL   H365 9269   0.657   1.877   3.428 -2.6029 -1.8688  3.1871
   13MOL   H366 9270   0.575   2.023   3.471  0.2551  1.2061  1.4278
   13MOL   H367 9271   0.670   1.986   3.702 -2.3576 -1.2041  0.7617
   13MOL   H368 9272   0.770   1.855   3.648  0.1335 -0.5968  0.5027
   13MOL   H369 9273   0.598   1.749   3.748  0.7500 -1.0428 -1.0094
   13MOL   H370 9274   0.590   1.712   3.589  0.7312  1.4130 -1.3461
   13MOL   H371 9275   0.413   1.889   3.751 -0.7372 -2.7840  1.1014
   13MOL   C372 9276   0.344   1.844   3.566 -0.0776 -0.0601  0.6123
   13MOL   O373 9277   0.364   1.787   3.457 -0.0780 -0.0811 -0.1639
   13MOL   C374 9278   0.203   1.900   3.596  0.0714 -0.1522 -0.8167
   13MOL   C375 9279   0.107   1.788   3.644 -0.3338  0.1476  0.8099
   13MOL   C376 9280   0.148   1.720   3.769 -0.0030 -0.1599 -0.5200
   13MOL   C377 9281   0.035   1.624   3.814  0.3404 -0.2077  0.2832
   13MOL   C378 9282   0.071   1.542   3.946 -0.1611 -0.7192  0.3773
   13MOL   C379 9283   7.678   1.419   3.952 -0.2950  1.1131  0.9240
   13MOL   C380 9284   0.004   1.345   4.086 -0.3248 -0.1338  0.4702
   13MOL   C381 9285   7.631   1.416   4.212 -0.7169  0.0828 -0.1649
   13MOL   C382 9286   7.658   1.345   4.342 -0.9313 -0.5287  0.0186
   13MOL   C383 9287   7.555   1.388   4.448  0.1926 -0.1638  0.6383
   13MOL   C384 9288   7.568   1.330   4.589  0.6004 -0.6463  0.5506
   13MOL   N385 9289   7.446   1.361   4.666 -0.1579  0.2078 -0.0349
   13MOL   H386 9290   0.168   1.951   3.506  3.0929  1.5198 -1.1226
   13MOL   H387 9291   0.205   1.976   3.674  1.0428  0.6946 -1.6479
   13MOL   H388 9292   0.008   1.832   3.655 -0.1267  0.7057  0.4928
   13MOL   H389 9293   0.107   1.720   3.559 -1.2578 -0.6640  1.4376
   13MOL   H390 9294   0.156   1.799   3.843 -0.3332 -1.1016  0.5403
   13MOL   H391 9295   0.246   1.674   3.759  0.3744  0.8248 -1.3662
   13MOL   H392 9296   7.637   1.679   3.833  1.0532  1.4997 -1.0467
   13MOL   H393 9297   0.002   1.549   3.742  1.1551 -1.4481  1.1873
   13MOL   H394 9298   0.048   1.606   4.032 -1.4417 -0.1600 -0.3598
   13MOL   H395 9299   0.174   1.510   3.958 -0.3712 -1.7094 -0.4173
   13MOL   H396 9300   0.008   1.354   3.869  0.8551 -1.8762  3.5020
   13MOL   H397 9301   7.572   1.446   3.947 -0.9744 -1.6079  0.1204
   13MOL   H398 9302   0.107   1.329   4.118  0.3643 -0.6740 -1.9346
   13MOL   H399 9303   7.652   1.246   4.090  1.4103 -0.9028  1.8884
   13MOL   H400 9304   7.523   1.415   4.199 -0.8093  1.8340  0.4114
   13MOL   H401 9305   7.667   1.519   4.210  0.5656 -0.3308  0.8979
   13MOL   H402 9306   0.063   1.351   4.388 -2.1592 -1.7685  2.9220
   13MOL   H403 9307   7.646   1.238   4.325 -1.0591 -0.8694  2.2171
   13MOL   H404 9308   7.452   1.371   4.416  0.5769 -2.5569  0.5573
   13MOL   H405 9309   7.572   1.496   4.452  1.5693 -0.4205  1.9553
   13MOL   H406 9310   7.661   1.360   4.637  1.7651 -2.0118 -0.8055
   13MOL   H407 9311   7.569   1.222   4.577  2.1933 -0.4044 -1.7536
   13MOL   H408 9312   7.391   1.431   4.619  0.0429 -0.3104 -1.0502
   13MOL   C409 9313   7.420   1.303   4.783  0.1400  0.1005 -0.7688
   13MOL   O410 9314   7.494   1.227   4.836  0.3303  0.3117 -0.3194
   13MOL   C411 9315   7.287   1.348   4.841 -0.1501  0.3064  0.1488
   13MOL   C412 9316   7.242   1.271   4.968  0.7338  0.2663  0.5618
   13MOL   C413 9317   7.122   1.326   5.046  0.1434  0.1639  0.0450
   13MOL   C414 9318   7.063   1.237   5.153 -0.7891 -0.1441  0.4238
   13MOL   C415 9319   6.934   1.297   5.216 -1.1541  0.1515  0.5896
   13MOL   C416 9320   6.951   1.416   5.314  0.5354 -0.5193 -0.2694
   13MOL   C417 9321   7.034   1.389   5.440 -0.0494 -0.3311 -0.1983
   13MOL   C418 9322   7.017   1.492   5.549  0.2611 -0.1621  0.1801
   13MOL   C419 9323   7.074   1.629   5.521  0.0064 -0.6011 -0.5756
   13MOL   C420 9324   7.052   1.732   5.632 -0.1751 -0.1233  0.8402
   13MOL   C421 9325   7.120   1.869   5.593  0.4087  0.0816  0.3207
   13MOL   N422 9326   7.121   1.950   5.712 -0.0875 -0.3809  0.3942
   13MOL   H423 9327   7.211   1.339   4.763 -1.5697 -0.8867  1.6321
   13MOL   H424 9328   7.285   1.452   4.874 -2.0637  0.4503 -0.3545
   13MOL   H425 9329   7.218   1.167   4.944 -0.9886  0.8754 -0.5039
   13MOL   H426 9330   7.316   1.275   5.047  1.7550 -0.3370 -0.3544
   13MOL   H427 9331   7.043   1.361   4.979  1.9578 -2.5048 -3.6368
   13MOL   H428 9332   7.165   1.407   5.106  1.6150 -1.4180  1.1527
   13MOL   H429 9333   7.041   1.142   5.103  2.3225 -0.8570  0.2976
   13MOL   H430 9334   7.141   1.224   5.228  0.3820 -1.6724 -1.0258
   13MOL   H431 9335   6.879   1.217   5.265  0.6949 -1.7464 -0.3490
   13MOL   H432 9336   6.858   1.317   5.141 -1.0409 -2.0418 -0.1322
   13MOL   H433 9337   6.852   1.441   5.351 -0.3188 -2.4629 -1.1795
   13MOL   H434 9338   6.978   1.508   5.262  0.5881 -0.1339  0.4304
   13MOL   H435 9339   7.136   1.387   5.401  0.1733 -0.1784  0.3752
   13MOL   H436 9340   7.007   1.292   5.482 -0.2749 -0.4297 -0.5627
   13MOL   H437 9341   7.068   1.452   5.637 -0.7703  1.9971  1.8096
   13MOL   H438 9342   6.913   1.515   5.573  1.4476  3.5948  2.0706
   13MOL   H439 9343   7.035   1.674   5.430  0.9200 -0.9580 -1.1482
   13MOL   H440 9344   7.181   1.615   5.505 -0.3099 -0.5663 -2.8522
   13MOL   H441 9345   7.100   1.710   5.728  0.3059 -1.3895  0.3159
   13MOL   H442 9346   6.946   1.754   5.645 -0.5620  0.0704 -2.4300
   13MOL   H443 9347   7.068   1.916   5.509 -0.0121 -0.5749  0.2130
   13MOL   H444 9348   7.226   1.856   5.567  0.2326 -0.1919 -0.2762
   13MOL   H445 9349   7.065   1.914   5.788 -1.2252  1.0463  0.2510
   13MOL   C446 9350   7.176   2.077   5.714  0.4128  0.6992  0.6379
   13MOL   O447 9351   7.222   2.127   5.613 -0.0518 -0.0905  0.2083
   13MOL   C448 9352   7.179   2.148   5.851 -0.3371 -0.3817 -0.2892
   13MOL   C449 9353   7.038   2.186   5.899  0.0369 -0.6992 -0.1705
   13MOL   C450 9354   6.970   2.289   5.803 -0.1545 -0.5872 -0.2590
   13MOL   C451 9355   6.863   2.368   5.876  0.4684 -0.0524  0.3584
   13MOL   C452 9356   6.768   2.444   5.786 -0.1180 -0.6056 -0.3102
   13MOL   C453 9357   6.637   2.476   5.855 -0.1675 -0.0941 -0.3686
   13MOL   C454 9358   6.529   2.543   5.757 -0.4164  0.1080 -0.3336
   13MOL   C455 9359   6.402   2.584   5.835  0.3794 -0.1615 -0.4901
   13MOL   C456 9360   6.306   2.685   5.762  0.5829  0.1246  0.4554
   13MOL   C457 9361   6.185   2.698   5.867  0.8099  0.0350  0.1249
   13MOL   C458 9362   6.058   2.782   5.831  0.5037 -0.9527 -0.1855
   13MOL   N459 9363   5.963   2.795   5.942 -0.2785  0.3142  0.1273
   13MOL   H460 9364   7.240   2.238   5.842  1.1943 -1.4028 -0.3772
   13MOL   H461 9365   7.238   2.094   5.926  0.8044 -0.2856 -1.1052
   13MOL   H462 9366   6.982   2.092   5.900 -0.5490 -0.3673 -1.2868
   13MOL   H463 9367   7.044   2.223   6.002 -2.7984  0.9172 -0.5037
   13MOL   H464 9368   6.922   2.231   5.724 -0.1596 -2.9582  1.4144
   13MOL   H465 9369   7.041   2.363   5.767 -2.9843  2.5573  0.3378
   13MOL   H466 9370   6.800   2.299   5.933  2.0700 -0.8183  1.2162
   13MOL   H467 9371   6.891   2.445   5.949  0.2133 -0.3640  0.7914
   13MOL   H468 9372   6.735   2.384   5.702  2.3787 -2.1264 -0.2779
   13MOL   H469 9373   6.829   2.520   5.736  0.5441 -0.4211  0.7458
   13MOL   H470 9374   6.647   2.528   5.951 -2.5637 -0.6362  0.2172
   13MOL   H471 9375   6.600   2.380   5.892 -1.6937 -0.2370 -2.1807
   13MOL   H472 9376   6.496   2.461   5.693 -0.8912  0.0404 -0.0084
   13MOL   H473 9377   6.579   2.621   5.699 -2.1074 -0.6191 -2.8602
   13MOL   H474 9378   6.427   2.634   5.929 -0.1152  0.9737 -0.9528
   13MOL   H475 9379   6.338   2.500   5.860  1.6961 -0.5510  1.7339
   13MOL   H476 9380   6.280   2.654   5.660 -2.7664  3.6731  0.1075
   13MOL   H477 9381   6.364   2.777   5.764  0.4143  0.2486 -0.2871
   13MOL   H478 9382   6.222   2.732   5.963  1.4048  0.5843 -0.3005
   13MOL   H479 9383   6.150   2.598   5.895  0.4471 -0.5280 -2.1851
   13MOL   H480 9384   6.017   2.735   5.742  0.0173 -2.0334  0.6015
   13MOL   H481 9385   6.096   2.881   5.808 -1.7494  0.3100  1.3528
   13MOL   H482 9386   5.946   2.711   5.995 -0.2904 -0.6088 -1.3264
   13MOL   C483 9387   5.870   2.886   5.955 -0.3642  0.3258 -0.1515
   13MOL   O484 9388   5.872   2.990   5.889 -0.3563 -0.0244  0.2221
   13MOL   C485 9389   5.755   2.857   6.051  0.1924  0.2835  0.3797
   13MOL   C486 9390   5.689   2.985   6.111  0.2520  0.1476  0.7406
   13MOL   C487 9391   5.564   2.968   6.204 -1.0170 -0.5890 -0.1724
   13MOL   C488 9392   5.610   2.942   6.348 -0.1001 -0.0507 -0.3982
   13MOL   C489 9393   5.489   2.898   6.424  0.0481  0.4784 -0.6344
   13MOL   C490 9394   5.529   2.887   6.573 -0.6591 -0.2457 -0.0427
   13MOL   C491 9395   5.414   2.826   6.655 -0.0171  0.0158 -0.0885
   13MOL   C492 9396   5.445   2.816   6.806  0.4562 -0.3436 -0.5088
   13MOL   C493 9397   5.335   2.744   6.889  0.1865 -0.1069  0.5045
   13MOL   C494 9398   5.228   2.846   6.927  1.6215 -0.0450 -0.4004
   13MOL   C495 9399   5.101   2.782   6.995 -0.0305 -0.6052 -0.0446
   13MOL   N496 9400   4.997   2.875   7.035  0.3846 -0.7486  0.0042
   13MOL   H497 9401   5.782   2.789   6.131 -0.4110  0.0137  0.3557
   13MOL   H498 9402   5.681   2.812   5.984  0.6158 -0.4646  0.4151
   13MOL   H499 9403   5.762   3.048   6.161  0.3537 -0.2101  1.0511
   13MOL   H500 9404   5.671   3.053   6.029  1.0006  0.9139  1.2039
   13MOL   H501 9405   5.501   2.891   6.159  0.0910 -0.3861 -2.1241
   13MOL   H502 9406   5.506   3.060   6.199 -0.9319 -0.4999  0.4227
   13MOL   H503 9407   5.684   2.862   6.348  0.5240  0.5195 -0.7046
   13MOL   H504 9408   5.647   3.033   6.396 -0.6010 -0.6908  1.2610
   13MOL   H505 9409   5.452   2.800   6.396 -0.9346  1.0634 -1.4343
   13MOL   H506 9410   5.417   2.979   6.408 -0.6204 -0.1911 -1.0115
   13MOL   H507 9411   5.544   2.988   6.612 -0.0305 -0.3176 -0.0835
   13MOL   H508 9412   5.622   2.832   6.587 -0.4330  0.4042  1.0950
   13MOL   H509 9413   5.383   2.727   6.621  2.4281 -1.1876  1.0631
   13MOL   H510 9414   5.324   2.887   6.646 -0.6463 -0.9355 -0.3195
   13MOL   H511 9415   5.473   2.912   6.849 -0.2168 -0.9707  1.3741
   13MOL   H512 9416   5.534   2.753   6.817  0.4990  0.0133  1.2318
   13MOL   H513 9417   5.379   2.706   6.980 -2.0100 -3.5999  0.2174
   13MOL   H514 9418   5.289   2.660   6.836  2.1978 -0.2594 -1.0675
   13MOL   H515 9419   5.192   2.904   6.842 -2.0934  0.3329  1.3361
   13MOL   H516 9420   5.273   2.917   6.996  1.3385 -2.1411  2.0040
   13MOL   H517 9421   5.141   2.729   7.081  2.0015  2.0625  0.6944
   13MOL   H518 9422   5.052   2.714   6.925  0.2393 -0.7145 -0.1273
   13MOL   H519 9423   4.959   2.926   6.956  1.3385  1.5649  0.9835
   13MOL   C520 9424   4.904   2.856   7.132 -0.0088  0.0392  0.2787
   13MOL   O521 9425   4.919   2.767   7.215 -0.1577 -0.4877 -0.8906
   13MOL   C522 9426   4.779   2.935   7.114  0.0722  0.1339 -0.2588
   13MOL   C523 9427   4.688   2.943   7.234  0.9091  0.6685 -0.2909
   13MOL   C524 9428   4.755   3.013   7.357  0.4101 -0.0215 -0.9035
   13MOL   C525 9429   4.658   3.077   7.454 -0.2502  0.3085  0.0851
   13MOL   C526 9430   4.598   3.220   7.423 -0.5155  0.1149 -0.6009
   13MOL   C527 9431   4.701   3.327   7.412 -0.0035 -0.2875  0.1980
   13MOL   C528 9432   4.654   3.463   7.365  0.2383 -0.0203  0.2625
   13MOL   C529 9433   4.553   3.525   7.467  0.0178 -0.1920 -0.2321
   13MOL   C530 9434   4.405   3.501   7.438 -1.6123 -0.3107  0.6243
   13MOL   C531 9435   4.318   3.540   7.558  0.6044 -0.1433  0.5708
   13MOL   C532 9436   4.166   3.522   7.527 -0.1998  0.1870  0.4869
   13MOL   N533 9437   4.123   3.610   7.424  0.3703  0.3670  0.6936
   13MOL   H534 9438   4.730   2.874   7.038  0.5428 -0.9699  0.3124
   13MOL   H535 9439   4.802   3.035   7.075  0.8944  0.5525  1.2688
   13MOL   H536 9440   4.598   2.997   7.204 -0.8785 -1.4846  1.0178
   13MOL   H537 9441   4.664   2.838   7.254 -0.7539  0.8658 -1.1238
   13MOL   H538 9442   4.834   3.079   7.321  1.1101 -0.2872  0.1375
   13MOL   H539 9443   4.808   2.934   7.409  0.0264  0.9799  1.0702
   13MOL   H540 9444   4.576   3.009   7.475  0.0256 -0.0403  0.0306
   13MOL   H541 9445   4.713   3.076   7.548 -2.2515  0.3688  1.2927
   13MOL   H542 9446   4.529   3.246   7.503  1.4462  1.9396  0.5280
   13MOL   H543 9447   4.538   3.221   7.331  0.7704  1.4511 -1.4435
   13MOL   H544 9448   4.781   3.292   7.346 -1.9459 -1.9905 -1.3280
   13MOL   H545 9449   4.752   3.332   7.508 -0.4910  2.6756  0.3634
   13MOL   H546 9450   4.622   3.442   7.263  0.8743 -0.3609  0.1330
   13MOL   H547 9451   4.741   3.529   7.364  1.7066 -1.9138  2.0130
   13MOL   H548 9452   4.563   3.634   7.464  0.4340 -0.2150  0.2209
   13MOL   H549 9453   4.577   3.486   7.566 -1.9307 -0.6360  0.0903
   13MOL   H550 9454   4.393   3.393   7.425  1.2390 -0.5004 -1.0411
   13MOL   H551 9455   4.373   3.547   7.344  2.7234  3.6793  0.9465
   13MOL   H552 9456   4.344   3.645   7.573  1.3853 -0.4970  1.7727
   13MOL   H553 9457   4.353   3.478   7.640 -1.1143  1.1221  2.3034
   13MOL   H554 9458   4.124   3.548   7.625 -0.1058  0.2023  0.5222
   13MOL   H555 9459   4.140   3.419   7.500 -0.3421  0.1002  0.9414
   13MOL   H556 9460   4.186   3.642   7.352  1.2107 -2.3149  0.1586
   13MOL   C557 9461   4.000   3.664   7.431 -0.0373  0.2676 -0.7561
   13MOL   O558 9462   3.913   3.625   7.504 -0.3736 -0.0664  0.4073
   13MOL   C559 9463   3.969   3.772   7.320 -0.0106  0.3159 -0.4107
   13MOL   C560 9464   3.899   3.891   7.359 -0.7272  0.3319 -0.9267
   13MOL   C561 9465   3.744   3.874   7.381 -0.3569  0.2112  0.5979
   13MOL   C562 9466   3.698   3.937   7.512 -0.0311 -0.0307  0.8145
   13MOL   C563 9467   3.553   3.905   7.547  0.1145 -0.9148  0.8499
   13MOL   C564 9468   3.462   3.968   7.446  1.1464  0.0136  0.9772
   13MOL   C565 9469   3.313   3.953   7.468  0.5380  0.0908  0.0480
   13MOL   C566 9470   3.231   4.008   7.351  0.4212  0.4117  0.6513
   13MOL   C567 9471   3.081   4.004   7.375 -0.0524  0.1316  0.4622
   13MOL   C568 9472   2.989   4.011   7.253  0.0472 -0.2971 -0.2768
   13MOL   C569 9473   2.842   4.004   7.277  0.3482 -0.7662 -0.0364
   13MOL   N570 9474   2.806   3.888   7.354 -0.0636 -0.2493 -0.0883
   13MOL   H571 9475   3.913   3.728   7.238 -0.6124  1.2185 -0.4907
   13MOL   H572 9476   4.060   3.817   7.280  1.2763 -1.1527  0.7632
   13MOL   H573 9477   3.946   3.936   7.446  0.3930 -0.7869 -0.9409
   13MOL   H574 9478   3.887   3.964   7.279  0.6169 -1.7934 -3.1223
   13MOL   H575 9479   3.721   3.769   7.396 -0.7902  0.1441 -0.4970
   13MOL   H576 9480   3.679   3.908   7.299  0.7126  0.7604 -0.0335
   13MOL   H577 9481   3.767   3.891   7.583 -1.1850  0.0054  1.9688
   13MOL   H578 9482   3.722   4.044   7.513  3.2082 -0.6714 -0.4196
   13MOL   H579 9483   3.517   3.950   7.639 -0.9779 -0.6001  0.2847
   13MOL   H580 9484   3.542   3.797   7.550  2.3610 -1.2188 -0.6951
   13MOL   H581 9485   3.482   3.921   7.349 -0.4928 -0.2638  0.7480
   13MOL   H582 9486   3.489   4.073   7.435 -1.3406  0.6572  0.6920
   13MOL   H583 9487   3.277   4.009   7.554 -1.2485 -0.9231  0.0101
   13MOL   H584 9488   3.276   3.854   7.496  1.1147 -0.8788 -2.4555
   13MOL   H585 9489   3.254   3.949   7.262  1.4928  2.2379 -0.3225
   13MOL   H586 9490   3.264   4.105   7.313 -0.4597  0.6712  0.5346
   13MOL   H587 9491   3.057   4.083   7.446 -2.2346 -0.6021  0.5854
   13MOL   H588 9492   3.059   3.911   7.428  0.1555  0.1063  0.5051
   13MOL   H589 9493   3.019   3.933   7.183 -1.5452 -0.0320 -1.3011
   13MOL   H590 9494   3.015   4.102   7.199  0.2923 -1.0163 -1.4151
   13MOL   H591 9495   2.785   4.003   7.183  1.8512 -1.0521 -0.9556
   13MOL   H592 9496   2.813   4.099   7.321 -0.9474 -0.8745 -0.6215
   13MOL   H593 9497   2.762   3.898   7.445  0.3933 -2.4899  0.4118
   13MOL   C594 9498   2.817   3.764   7.309  0.2191  0.3346 -0.3089
   13MOL   O595 9499   2.838   3.733   7.189 -0.0673  0.2955  0.3760
   13MOL   C596 9500   2.778   3.651   7.402  0.2523 -0.0100  0.4653
   13MOL   C597 9501   2.897   3.586   7.466 -0.8396  0.5674  0.5550
   13MOL   C598 9502   2.998   3.511   7.368  0.3176  0.2774 -0.6955
   13MOL   C599 9503   3.110   3.448   7.456  0.4334 -0.0343 -0.1111
   13MOL   C600 9504   3.205   3.354   7.381  1.0630  0.5101  0.6791
   13MOL   C601 9505   3.342   3.328   7.444 -0.4698  0.4531 -0.0905
   13MOL   C602 9506   3.439   3.241   7.369 -0.0632  0.8137  0.1048
   13MOL   C603 9507   3.588   3.246   7.424  0.3709 -0.2208  0.5015
   13MOL   C604 9508   3.685   3.179   7.320  0.6183  0.5261 -0.5740
   13MOL   C605 9509   3.827   3.189   7.382 -0.0713  0.3615 -0.5672
   13MOL   C606 9510   3.941   3.178   7.271 -0.4309 -0.0064 -0.5713
   13MOL   N607 9511   3.950   3.041   7.214  0.4721  0.0830 -0.4111
   13MOL   H608 9512   2.736   3.574   7.338 -1.0087  0.0941  1.1577
   13MOL   H609 9513   2.709   3.700   7.471  0.4155  1.7441 -0.5768
   13MOL   H610 9514   2.951   3.662   7.522  0.6972 -0.0189 -0.1024
   13MOL   H611 9515   2.849   3.512   7.530  0.5444  0.3727  1.3745
   13MOL   H612 9516   3.040   3.585   7.300 -0.5388  2.8199  1.4662
   13MOL   H613 9517   2.944   3.432   7.315 -2.5436  3.3299 -2.5509
   13MOL   H614 9518   3.182   3.516   7.501 -0.1614 -0.0407  0.8688
   13MOL   H615 9519   3.064   3.392   7.538 -0.2128 -2.6490 -2.1861
   13MOL   H616 9520   3.220   3.386   7.278  2.9249 -0.4890  0.6154
   13MOL   H617 9521   3.146   3.262   7.372 -0.9759  1.8654 -0.3154
   13MOL   H618 9522   3.341   3.282   7.543  0.4101 -0.4948 -0.5153
   13MOL   H619 9523   3.401   3.418   7.455  1.2444 -0.2920 -2.6557
   13MOL   H620 9524   3.438   3.267   7.263  1.7522 -2.3686 -0.7571
   13MOL   H621 9525   3.413   3.136   7.361 -0.3955  1.0407 -2.2209
   13MOL   H622 9526   3.598   3.197   7.521 -1.9423 -1.5179  0.1308
   13MOL   H623 9527   3.626   3.345   7.448  0.6056 -0.2246  0.1511
   13MOL   H624 9528   3.681   3.229   7.223  4.5994  1.1142 -0.5227
   13MOL   H625 9529   3.660   3.074   7.305  0.1301  0.7420 -1.3168
   13MOL   H626 9530   3.848   3.127   7.469  3.1282  1.0030 -0.8151
   13MOL   H627 9531   3.847   3.293   7.409  0.2192  0.3597 -0.7653
   13MOL   H628 9532   4.042   3.193   7.308 -0.8958 -0.7922  1.0982
   13MOL   H629 9533   3.938   3.252   7.192 -0.6513 -0.8883 -1.3966
   13MOL   H630 9534   4.004   2.969   7.261 -2.4283 -2.5927 -1.0118
   13MOL   C631 9535   3.885   2.998   7.105  0.5459  0.2106  0.0115
   13MOL   O632 9536   3.836   3.082   7.032 -0.1588  0.2171 -0.3281
   13MOL   C633 9537   3.880   2.843   7.078  0.2813  0.1026 -0.6145
   13MOL   C634 9538   3.897   2.796   6.934  0.1822  0.9720  0.1754
   13MOL   C635 9539   4.046   2.809   6.888  0.8286  0.3268  0.4369
   13MOL   C636 9540   4.050   2.739   6.747  0.8147  0.2617 -0.2337
   13MOL   C637 9541   4.179   2.769   6.670 -0.1971 -0.1570  0.3343
   13MOL   C638 9542   4.291   2.686   6.739  0.4878 -0.1284 -0.2555
   13MOL   C639 9543   4.404   2.669   6.637  0.2340  0.3456 -0.8028
   13MOL   C640 9544   4.525   2.604   6.699  0.7965 -0.1112  0.8584
   13MOL   C641 9545   4.622   2.702   6.761  0.0445  0.0212  0.4004
   13MOL   C642 9546   4.734   2.630   6.835  0.0641 -0.1858  0.2898
   13MOL   C643 9547   4.697   2.561   6.969 -0.5961  0.1725 -0.6312
   13MOL   N644 9548   4.811   2.540   7.054  0.0040 -0.2300 -0.7524
   13MOL   H645 9549   3.785   2.804   7.113  0.5082 -0.4066 -0.5645
   13MOL   H646 9550   3.952   2.794   7.143 -1.2157  1.1159  1.8913
   13MOL   H647 9551   3.866   2.694   6.914 -1.6061  1.3530  0.9243
   13MOL   H648 9552   3.831   2.855   6.871 -0.8864  0.5800  0.9157
   13MOL   H649 9553   4.118   2.753   6.948  1.5071 -1.3743 -1.9089
   13MOL   H650 9554   4.076   2.913   6.876  2.5393 -0.3956 -1.9631
   13MOL   H651 9555   4.043   2.631   6.748 -1.3285  0.3702 -0.6153
   13MOL   H652 9556   3.966   2.778   6.690  0.4250  0.6601  0.6061
   13MOL   H653 9557   4.202   2.873   6.650  0.9994  0.0138  2.4811
   13MOL   H654 9558   4.165   2.734   6.567 -0.6812 -0.5080  0.5146
   13MOL   H655 9559   4.258   2.587   6.770  1.0761 -1.1322 -2.7184
   13MOL   H656 9560   4.331   2.750   6.817  0.6911 -1.8721  1.1129
   13MOL   H657 9561   4.445   2.752   6.580 -1.9090  1.4940 -0.7103
   13MOL   H658 9562   4.366   2.602   6.561 -2.4814  0.3717  0.4815
   13MOL   H659 9563   4.581   2.559   6.617  0.0927 -2.2612  1.5103
   13MOL   H660 9564   4.505   2.526   6.773  2.5836 -1.7891 -0.3714
   13MOL   H661 9565   4.569   2.770   6.827 -1.4256 -0.5105 -0.2302
   13MOL   H662 9566   4.659   2.771   6.684  0.1622  2.2866  2.4120
   13MOL   H663 9567   4.792   2.717   6.865 -0.0994 -0.4050  1.2699
   13MOL   H664 9568   4.789   2.565   6.766 -0.8712  1.3617 -1.9581
   13MOL   H665 9569   4.651   2.464   6.954  1.6699 -1.4114  2.1880
   13MOL   H666 9570   4.619   2.622   7.015 -0.7892 -0.7423  0.2817
   13MOL   H667 9571   4.824   2.608   7.127 -0.9508  1.7851 -2.4048
   13MOL   C668 9572   4.877   2.428   7.058 -0.2400 -0.1136 -0.1142
   13MOL   O669 9573   4.858   2.334   6.980 -0.3315  0.1699 -0.3533
   13MOL   C670 9574   4.967   2.409   7.179 -0.5524  0.4695 -0.0919
   13MOL   C671 9575   5.098   2.313   7.157 -0.7124  0.1156  0.8396
   13MOL   C672 9576   5.213   2.392   7.084  0.0475  0.1251  0.3107
   13MOL   C673 9577   5.342   2.309   7.084 -0.1744  0.1922  0.8201
   13MOL   C674 9578   5.455   2.376   7.002 -0.5948 -0.5573  0.3866
   13MOL   C675 9579   5.437   2.366   6.854 -0.1347 -0.4993 -0.5143
   13MOL   C676 9580   5.549   2.438   6.774 -0.1896 -0.2758 -0.1442
   13MOL   C677 9581   5.554   2.395   6.628  0.5453 -0.2744  0.1237
   13MOL   C678 9582   5.652   2.483   6.543  0.2455 -0.2245 -0.1473
   13MOL   C679 9583   5.666   2.417   6.406 -0.2661  0.3555  0.2015
   13MOL   C680 9584   5.747   2.498   6.300  0.1288  0.3246 -0.5165
   13MOL   N681 9585   5.775   2.404   6.193  0.2702  0.4471 -0.6078
   13MOL   H682 9586   4.904   2.363   7.256  0.8006 -1.5873 -0.1765
   13MOL   H683 9587   5.006   2.505   7.211  0.6605  0.2742 -0.9617
   13MOL   H684 9588   5.132   2.284   7.256 -0.0515 -2.3512 -0.0804
   13MOL   H685 9589   5.070   2.224   7.101  0.0160  0.4830 -0.1198
   13MOL   H686 9590   5.238   2.486   7.132  1.3520  0.9589 -1.9327
   13MOL   H687 9591   5.179   2.427   6.986  2.0416 -0.8677 -0.7543
   13MOL   H688 9592   5.380   2.295   7.185  1.8015  1.5740  0.3046
   13MOL   H689 9593   5.330   2.213   7.033  0.1792  1.0699 -0.9596
   13MOL   H690 9594   5.550   2.337   7.038 -0.8280  0.6458  2.3678
   13MOL   H691 9595   5.468   2.482   7.026  0.9674 -0.7762  0.5329
   13MOL   H692 9596   5.341   2.401   6.815 -0.8489 -0.0213  1.5961
   13MOL   H693 9597   5.430   2.262   6.821  2.0453 -1.2670  1.2787
   13MOL   H694 9598   5.642   2.412   6.824  1.1062  2.6588 -0.9286
   13MOL   H695 9599   5.541   2.547   6.778 -1.4538 -0.3521 -0.2698
   13MOL   H696 9600   5.459   2.415   6.579  0.8176  0.8099  0.0166
   13MOL   H697 9601   5.590   2.293   6.611  0.2008 -0.3820  0.0331
   13MOL   H698 9602   5.749   2.496   6.591 -0.2857  0.5233  0.7382
   13MOL   H699 9603   5.613   2.585   6.544  1.3147  0.1809  1.5305
   13MOL   H700 9604   5.572   2.398   6.355 -0.8668 -0.6233  1.6398
   13MOL   H701 9605   5.720   2.324   6.421  0.6115  0.8184 -0.0346
   13MOL   H702 9606   5.828   2.558   6.342  0.0772  2.4325 -3.3131
   13MOL   H703 9607   5.672   2.568   6.264 -1.1578 -0.8292 -0.1217
   13MOL   H704 9608   5.737   2.311   6.195  0.2729  0.4240 -1.5344
   13MOL   C705 9609   5.832   2.443   6.084  0.5145 -0.9523  0.5043
   13MOL   O706 9610   5.880   2.559   6.066  0.1825  0.1952 -0.1529
   13MOL   C707 9611   5.842   2.341   5.969 -1.1463  0.0942 -0.0942
   13MOL   C708 9612   5.991   2.285   5.961  0.3198 -0.2373 -0.0295
   13MOL   C709 9613   6.011   2.187   6.077  0.3879 -0.5428  0.1806
   13MOL   C710 9614   6.159   2.141   6.088 -0.4971 -0.1676  0.1359
   13MOL   C711 9615   6.170   1.995   6.143  0.3954 -0.2530 -0.4410
   13MOL   C712 9616   6.313   1.938   6.133  0.0334 -0.8557  0.9692
   13MOL   C713 9617   6.324   1.800   6.201  0.2402  0.4293 -0.0476
   13MOL   C714 9618   6.455   1.710   6.180  0.2644 -0.2482  0.5697
   13MOL   C715 9619   6.473   1.596   6.287 -0.4325 -0.1856  0.1090
   13MOL   C716 9620   6.579   1.486   6.254 -0.5095  0.3001 -0.4878
   13MOL   C717 9621   6.733   1.534   6.253 -0.4601  0.0964 -0.5448
   13MOL   N718 9622   6.805   1.422   6.190 -0.1395  0.9969 -0.3707
   13MOL   H719 9623   5.830   2.391   5.873 -1.0256 -2.3636 -1.4367
   13MOL   H720 9624   5.765   2.266   5.987 -0.1248 -1.0356 -0.3657
   13MOL   H721 9625   6.015   2.232   5.868  0.2283 -2.0389  0.9524
   13MOL   H722 9626   6.058   2.370   5.960 -0.8743  0.7183  0.1767
   13MOL   H723 9627   5.947   2.102   6.051  0.9050 -1.3587  1.5364
   13MOL   H724 9628   5.990   2.238   6.172  0.6074 -2.8917  1.5201
   13MOL   H725 9629   6.213   2.124   5.995 -1.4507 -2.0750 -0.1087
   13MOL   H726 9630   6.214   2.213   6.147  1.6873 -0.5156 -1.4112
   13MOL   H727 9631   6.091   1.944   6.088 -0.6132  1.7174 -0.8586
   13MOL   H728 9632   6.128   2.004   6.243 -0.5676  1.1901 -0.9583
   13MOL   H729 9633   6.382   2.012   6.172  0.0440 -0.8529  0.9442
   13MOL   H730 9634   6.343   1.927   6.028 -0.3614 -0.1984  0.7827
   13MOL   H731 9635   6.237   1.741   6.171 -1.0074  0.7641  2.7124
   13MOL   H732 9636   6.304   1.808   6.308 -1.7343 -1.4780 -0.2336
   13MOL   H733 9637   6.538   1.781   6.178 -0.3397  0.5004  1.5334
   13MOL   H734 9638   6.459   1.681   6.075  5.0973 -0.6464  0.7391
   13MOL   H735 9639   6.385   1.532   6.293 -0.8834  0.0910 -2.6875
   13MOL   H736 9640   6.498   1.631   6.387  0.1605 -0.7887  0.1713
   13MOL   H737 9641   6.556   1.447   6.155 -1.2360  0.7487 -0.4963
   13MOL   H738 9642   6.560   1.401   6.320  0.8762 -0.4129 -0.9976
   13MOL   H739 9643   6.761   1.556   6.356  0.2075 -0.7571 -0.5444
   13MOL   H740 9644   6.742   1.624   6.192  0.7406  0.5059  0.2230
   13MOL   H741 9645   6.787   1.421   6.091  0.2879  0.9107 -0.4448
   13MOL   H742 9646   6.755   1.340   6.223 -2.0336  0.6700 -3.7970
   14MOL     C1 9647   0.412   5.892   2.498  0.2559 -0.2171 -0.2109
   14MOL     O2 9648   0.367   5.785   2.460  0.9660 -0.1832  0.3584
   14MOL     C3 9649   0.320   6.017   2.533  0.2204 -0.1723  0.2803
   14MOL     C4 9650   0.278   6.075   2.398 -0.1561  0.4080  0.0288
   14MOL     C5 9651   0.184   6.197   2.411  0.7882 -0.2851  0.3254
   14MOL     C6 9652   0.153   6.273   2.278  0.6916  0.0483  0.3269
   14MOL     C7 9653   0.057   6.388   2.326 -0.5510  0.3572 -0.2511
   14MOL     C8 9654   0.010   6.473   2.207 -0.4499  0.5424  0.4573
   14MOL     C9 9655   0.108   6.589   2.202 -0.1095  0.0613 -0.1631
   14MOL    C10 9656   0.106   6.681   2.070 -0.0306  0.1288  0.2905
   14MOL    C11 9657   0.197   6.804   2.094 -0.1058  0.0708  0.0158
   14MOL    C12 9658   0.210   6.899   1.978  0.1733  0.4810 -0.0083
   14MOL    C13 9659   0.282   6.845   1.848  0.0323 -0.2336 -0.2184
   14MOL    N14 9660   0.276   6.946   1.746  0.0300 -0.5079  0.0625
   14MOL    H15 9661   0.387   6.086   2.585  0.7775 -0.9048  0.5539
   14MOL    H16 9662   0.233   5.981   2.587  1.1968 -2.5898  0.3125
   14MOL    H17 9663   0.361   6.098   2.332  0.1758 -0.6114  0.0856
   14MOL    H18 9664   0.224   5.995   2.347 -2.0404  1.2721  0.6273
   14MOL    H19 9665   0.219   6.275   2.479 -1.4690 -0.2618  1.5096
   14MOL    H20 9666   0.094   6.153   2.455  1.7357 -1.3486  1.2018
   14MOL    H21 9667   0.246   6.302   2.231  0.8722 -1.5179 -0.3251
   14MOL    H22 9668   0.103   6.206   2.208  1.1970  0.5352 -0.4967
   14MOL    H23 9669   0.111   6.449   2.400 -0.7588  1.7107 -1.1898
   14MOL    H24 9670   7.661   6.347   2.371 -1.9253  1.8488 -1.5633
   14MOL    H25 9671   7.602   6.507   2.226 -0.9315 -0.9416  0.5412
   14MOL    H26 9672   0.004   6.416   2.115  0.2022 -0.6970  1.1770
   14MOL    H27 9673   0.212   6.559   2.215 -0.4576 -0.3846  1.6702
   14MOL    H28 9674   0.083   6.650   2.288  0.1604  1.2350 -0.8934
   14MOL    H29 9675   0.009   6.726   2.050 -0.7786 -1.6818 -0.3228
   14MOL    H30 9676   0.140   6.624   1.983 -1.2164  0.8419 -0.6625
   14MOL    H31 9677   0.297   6.765   2.113 -0.7264 -2.3827 -1.5339
   14MOL    H32 9678   0.193   6.865   2.185  2.8313  0.9784 -0.4016
   14MOL    H33 9679   0.287   6.971   2.009  1.9469 -1.5177  0.3062
   14MOL    H34 9680   0.121   6.960   1.963 -0.2687  0.1253  1.0883
   14MOL    H35 9681   0.221   6.765   1.806 -2.7132  1.4390  0.4370
   14MOL    H36 9682   0.383   6.805   1.857  0.0040 -0.6545 -1.6879
   14MOL    H37 9683   0.220   7.025   1.774  1.2863  0.1236  0.8390
   14MOL    H38 9684   0.517   5.919   2.510 -0.0267  0.6178  0.4597
   14MOL    C39 9685   0.342   6.929   1.623  0.0921 -0.5673  0.2190
   14MOL    O40 9686   0.412   6.833   1.603 -0.1039  0.0903 -0.0237
   14MOL    C41 9687   0.316   7.035   1.517  0.2397  0.0515 -0.4458
   14MOL    C42 9688   0.352   6.984   1.377  0.4240 -0.4189  0.4402
   14MOL    C43 9689   0.264   7.058   1.272 -0.6319 -0.3386  0.8089
   14MOL    C44 9690   0.294   7.205   1.269  0.2635  0.2798 -0.4232
   14MOL    C45 9691   0.230   7.281   1.147 -0.6165 -0.3532  0.0064
   14MOL    C46 9692   0.245   7.435   1.149 -0.6952  0.0225  0.5128
   14MOL    C47 9693   0.169   7.506   1.032  0.4739 -0.7761 -0.2075
   14MOL    C48 9694   0.197   7.655   1.013 -0.5719  0.0937 -0.4420
   14MOL    C49 9695   0.141   0.013   0.882  1.0174 -0.1656  0.3657
   14MOL    C50 9696   0.145   0.158   0.865 -0.2829 -0.1570  0.3328
   14MOL    C51 9697   0.288   0.228   0.866  0.8653  0.3255  0.4543
   14MOL    N52 9698   0.382   0.172   0.773  0.4596 -0.6095  0.2776
   14MOL    H53 9699   0.361   7.130   1.547  0.1508 -0.4108  1.2029
   14MOL    H54 9700   0.209   7.052   1.511  0.3162  0.3624 -0.9203
   14MOL    H55 9701   0.458   7.004   1.365 -0.0479  2.1659  0.2209
   14MOL    H56 9702   0.336   6.876   1.373 -1.4020 -0.2210  1.4588
   14MOL    H57 9703   0.158   7.052   1.294 -0.6586  0.5339  0.9127
   14MOL    H58 9704   0.285   7.007   1.178 -2.3184 -2.8145  1.7367
   14MOL    H59 9705   0.242   7.233   1.361  1.0139 -1.2282  0.4848
   14MOL    H60 9706   0.401   7.214   1.284 -0.0970  2.3590  1.0946
   14MOL    H61 9707   0.131   7.242   1.122 -0.7083  0.1185 -0.3627
   14MOL    H62 9708   0.278   7.249   1.055 -4.1182 -0.6431 -1.8274
   14MOL    H63 9709   0.350   7.461   1.135 -0.5588  0.2194  1.8399
   14MOL    H64 9710   0.217   7.476   1.246  2.0059  1.6926  0.6532
   14MOL    H65 9711   0.062   7.494   1.050  0.1040 -0.6133 -2.1680
   14MOL    H66 9712   0.188   7.462   0.934 -0.2062 -2.0369  0.2163
   14MOL    H67 9713   0.303   7.666   1.034 -0.4482 -0.7351 -0.6243
   14MOL    H68 9714   0.142   0.021   1.085  0.2860  3.4963 -2.4988
   14MOL    H69 9715   0.038   7.674   0.879  1.4778 -1.6660  0.6906
   14MOL    H70 9716   0.185   7.648   0.801  0.9659  1.2509 -0.7228
   14MOL    H71 9717   0.079   0.201   0.940 -1.6774  0.3513 -1.1650
   14MOL    H72 9718   0.086   0.171   0.775 -1.7296 -1.0461  1.1315
   14MOL    H73 9719   0.325   0.217   0.968 -0.2437  1.6375  1.0208
   14MOL    H74 9720   0.289   0.335   0.843 -0.6804  0.0941 -0.7771
   14MOL    H75 9721   0.352   0.090   0.721 -0.3836  1.1026 -1.9977
   14MOL    C76 9722   0.500   0.223   0.756  0.1136 -0.5147 -0.1533
   14MOL    O77 9723   0.539   0.328   0.808  0.3470  0.1940 -0.2934
   14MOL    C78 9724   0.599   0.131   0.686 -0.2588  0.0624  0.7397
   14MOL    C79 9725   0.635   0.008   0.778 -0.6754  0.0414 -0.2889
   14MOL    C80 9726   0.557   7.574   0.739 -0.5716  0.4947  0.8108
   14MOL    C81 9727   0.595   7.455   0.839  0.0559  0.2861  0.5194
   14MOL    C82 9728   0.592   7.320   0.768 -0.0293 -0.0873 -0.3623
   14MOL    C83 9729   0.617   7.205   0.871  0.5951 -0.0477  0.5172
   14MOL    C84 9730   0.740   7.215   0.961  0.2828 -0.5236 -0.2842
   14MOL    C85 9731   0.782   7.076   1.021 -0.2537 -0.1149  0.3413
   14MOL    C86 9732   0.927   7.063   1.055  0.3194  0.2392 -0.2387
   14MOL    C87 9733   0.971   6.930   1.128  0.6397  0.2182  0.1796
   14MOL    C88 9734   1.108   6.946   1.203 -0.4552 -0.0215 -0.6956
   14MOL    N89 9735   1.123   6.846   1.310  0.0385 -0.3027  0.1856
   14MOL    H90 9736   0.695   0.179   0.666 -0.3838  0.2005  0.4557
   14MOL    H91 9737   0.561   0.107   0.586 -1.3279 -0.1032  1.1850
   14MOL    H92 9738   0.741   7.676   0.775 -0.3413  0.9434  2.3577
   14MOL    H93 9739   0.617   0.037   0.882  2.5603 -0.5351  0.5160
   14MOL    H94 9740   0.576   7.547   0.636 -0.3151  1.5682  0.5683
   14MOL    H95 9741   0.451   7.590   0.757 -0.2031  2.9733  0.9513
   14MOL    H96 9742   0.692   7.468   0.887 -1.2649  1.5549  2.9148
   14MOL    H97 9743   0.520   7.454   0.917 -0.2794  1.0027  0.2149
   14MOL    H98 9744   0.658   7.315   0.682  0.4537 -1.4640  0.0749
   14MOL    H99 9745   0.491   7.310   0.728 -1.2122  0.0934  2.4422
   14MOL   H100 9746   0.613   7.114   0.811  0.5236  0.4903 -0.3044
   14MOL   H101 9747   0.526   7.211   0.931 -0.4932 -0.3865 -1.0534
   14MOL   H102 9748   0.725   7.287   1.042  0.5222 -0.9185  0.1115
   14MOL   H103 9749   0.823   7.245   0.897  0.6089  2.2532  1.3216
   14MOL   H104 9750   0.755   7.001   0.947 -2.5598  0.9173  0.0842
   14MOL   H105 9751   0.722   7.046   1.107  0.1687 -1.4352  0.1874
   14MOL   H106 9752   0.948   7.148   1.121  0.9665  0.3887 -0.6348
   14MOL   H107 9753   0.980   7.077   0.961  0.0848  0.2914 -0.3635
   14MOL   H108 9754   0.966   6.834   1.076 -1.2707  0.2379  0.2965
   14MOL   H109 9755   0.887   6.920   1.197  1.2208 -1.5073  0.6678
   14MOL   H110 9756   1.124   7.041   1.254  1.1096 -0.6662  0.0729
   14MOL   H111 9757   1.184   6.953   1.125  1.7415 -1.4584  1.2444
   14MOL   H112 9758   1.055   6.851   1.385 -0.3922 -0.0114 -0.2200
   14MOL   C113 9759   1.209   6.747   1.311 -0.0759 -0.2124 -1.0873
   14MOL   O114 9760   1.291   6.724   1.219 -0.0192 -0.1051 -0.0380
   14MOL   C115 9761   1.211   6.657   1.436 -0.3149 -0.8655 -0.0013
   14MOL   C116 9762   1.113   6.537   1.411  0.4780 -0.1165 -0.6317
   14MOL   C117 9763   1.117   6.436   1.532  0.1850  0.2069  0.5461
   14MOL   C118 9764   1.261   6.374   1.555  0.0247 -0.3627 -0.1695
   14MOL   C119 9765   1.247   6.231   1.598 -0.0625  0.1221 -0.2310
   14MOL   C120 9766   1.379   6.170   1.650  0.3858 -0.1796 -0.3862
   14MOL   C121 9767   1.367   6.021   1.697 -0.7922 -0.4879 -0.1817
   14MOL   C122 9768   1.316   5.928   1.586 -0.6631  0.4266 -1.2310
   14MOL   C123 9769   1.275   5.791   1.633  0.9334  0.5920 -0.1581
   14MOL   C124 9770   1.242   5.692   1.519 -0.3926  0.4307  0.2844
   14MOL   C125 9771   1.212   5.562   1.587 -0.6488 -0.1702 -0.9553
   14MOL   N126 9772   1.163   5.447   1.519 -0.1308  0.1634 -0.1774
   14MOL   H127 9773   1.172   6.722   1.514 -1.3420 -0.6687 -0.6583
   14MOL   H128 9774   1.312   6.624   1.462  0.3922  1.7157  0.6311
   14MOL   H129 9775   1.013   6.580   1.405  0.5031 -0.0881 -0.8501
   14MOL   H130 9776   1.149   6.479   1.326 -0.4138 -1.0588 -0.3794
   14MOL   H131 9777   1.052   6.352   1.508  0.6573 -0.6547  2.2344
   14MOL   H132 9778   1.072   6.479   1.621  1.8494 -1.3202  2.1417
   14MOL   H133 9779   1.323   6.384   1.465 -0.3498  0.0204 -0.3871
   14MOL   H134 9780   1.315   6.440   1.623 -0.8933 -0.2794  0.4786
   14MOL   H135 9781   1.204   6.172   1.517 -1.4675 -1.0877  1.3618
   14MOL   H136 9782   1.170   6.224   1.674  0.5761 -0.9789  0.3303
   14MOL   H137 9783   1.415   6.236   1.728  1.4407 -1.1591 -0.0219
   14MOL   H138 9784   1.469   6.172   1.588 -0.5787  3.3052 -1.7652
   14MOL   H139 9785   1.297   6.029   1.781  1.1741  2.1635  1.2818
   14MOL   H140 9786   1.457   5.988   1.748 -0.4475  1.2894  0.4077
   14MOL   H141 9787   1.401   5.903   1.523 -2.0139 -2.6677 -1.9500
   14MOL   H142 9788   1.241   5.963   1.515 -1.1610 -0.8112 -1.3399
   14MOL   H143 9789   1.191   5.810   1.700  2.0612  0.1439  1.4092
   14MOL   H144 9790   1.342   5.746   1.706  0.5948 -0.7454 -0.6550
   14MOL   H145 9791   1.313   5.673   1.439  0.5256  0.7455  1.0050
   14MOL   H146 9792   1.150   5.718   1.468 -1.2521 -0.4044  1.3850
   14MOL   H147 9793   1.157   5.578   1.680  0.4466 -1.6815 -0.0163
   14MOL   H148 9794   1.304   5.522   1.630 -3.1731 -3.4413  1.5738
   14MOL   H149 9795   1.216   5.361   1.523  1.3723  1.1122  1.3519
   14MOL   C150 9796   1.035   5.433   1.470 -0.2923 -0.2836 -0.6762
   14MOL   O151 9797   0.954   5.528   1.464 -0.1384 -0.1987  0.4045
   14MOL   C152 9798   1.004   5.289   1.424  0.0333 -0.4059 -0.1687
   14MOL   C153 9799   0.881   5.305   1.328  0.3380  0.3494 -0.8389
   14MOL   C154 9800   0.852   5.185   1.238  0.5052  0.3449 -0.4411
   14MOL   C155 9801   0.703   5.178   1.220  1.1420  0.8180  0.2286
   14MOL   C156 9802   0.668   5.052   1.143  0.1731  0.2687  0.2865
   14MOL   C157 9803   0.519   5.056   1.104 -0.2147 -0.2426 -0.5946
   14MOL   C158 9804   0.478   4.919   1.059  0.0797  1.0270 -0.0086
   14MOL   C159 9805   0.474   4.797   1.163 -0.0213  0.1487  0.5952
   14MOL   C160 9806   0.431   4.671   1.091 -0.2443 -0.9156 -0.3259
   14MOL   C161 9807   0.452   4.546   1.180  0.0589 -0.2817 -0.4145
   14MOL   C162 9808   0.423   4.401   1.111 -0.6079 -0.3813 -0.5876
   14MOL   N163 9809   0.470   4.296   1.207 -0.6107 -0.6561 -0.3154
   14MOL   H164 9810   0.993   5.246   1.523  0.5084  0.4002  0.2329
   14MOL   H165 9811   1.084   5.248   1.363 -1.1201  0.3700 -2.2877
   14MOL   H166 9812   0.792   5.316   1.389 -0.2775 -0.7683 -1.5236
   14MOL   H167 9813   0.896   5.390   1.262 -2.3066  1.9747  0.5882
   14MOL   H168 9814   0.887   5.099   1.295  2.9152  0.2655 -1.9357
   14MOL   H169 9815   0.908   5.190   1.144  0.9045  0.3687 -0.2016
   14MOL   H170 9816   0.658   5.172   1.319  1.7287 -1.1374  0.4132
   14MOL   H171 9817   0.660   5.271   1.184 -0.6438 -0.2088 -0.4011
   14MOL   H172 9818   0.680   4.970   1.214 -2.8275  2.0086  2.9388
   14MOL   H173 9819   0.735   5.018   1.064 -0.3936 -1.7021  0.6065
   14MOL   H174 9820   0.499   5.132   1.028  0.2019  1.0860  0.5974
   14MOL   H175 9821   0.457   5.084   1.189  1.3919 -1.9195  1.1853
   14MOL   H176 9822   0.552   4.894   0.983 -2.5681  0.1244 -2.3612
   14MOL   H177 9823   0.374   4.921   1.026  0.4386 -1.1232 -1.3499
   14MOL   H178 9824   0.397   4.822   1.236 -1.1037 -1.1306 -0.0931
   14MOL   H179 9825   0.569   4.772   1.212 -0.3876 -1.8143  0.3229
   14MOL   H180 9826   0.500   4.657   1.008 -0.9495  0.2843 -1.1183
   14MOL   H181 9827   0.338   4.693   1.039 -0.7310 -2.7280 -0.2814
   14MOL   H182 9828   0.383   4.550   1.265 -0.0066 -1.2663 -0.4100
   14MOL   H183 9829   0.551   4.534   1.224  0.8531  0.1156 -2.0789
   14MOL   H184 9830   0.481   4.404   1.018 -0.7456  0.3470 -0.6567
   14MOL   H185 9831   0.323   4.382   1.070 -0.3255 -0.8971 -1.0484
   14MOL   H186 9832   0.499   4.327   1.298 -2.2683 -0.4038  0.1563
   14MOL   C187 9833   0.454   4.161   1.182  0.2603  0.0923 -0.1351
   14MOL   O188 9834   0.421   4.126   1.074 -0.0879  0.3485  0.5633
   14MOL   C189 9835   0.477   4.056   1.292 -0.1358 -0.4084  0.5307
   14MOL   C190 9836   0.363   3.961   1.318  0.0208  0.3206 -0.1913
   14MOL   C191 9837   0.228   4.030   1.348 -0.3201 -0.1351 -0.4014
   14MOL   C192 9838   0.143   3.932   1.425 -0.6209  0.4249 -0.0373
   14MOL   C193 9839   7.689   3.982   1.443  0.1900 -0.2680 -0.3452
   14MOL   C194 9840   7.683   4.129   1.513 -0.1613  0.1626 -0.2428
   14MOL   C195 9841   7.541   4.160   1.558 -0.1082  0.1843 -0.1400
   14MOL   C196 9842   7.514   4.307   1.602 -0.0453  0.4755  0.2688
   14MOL   C197 9843   7.593   4.321   1.735  0.2290 -0.0235  0.3337
   14MOL   C198 9844   7.583   4.466   1.798 -0.0302  0.4379  0.5450
   14MOL   C199 9845   7.692   4.476   1.901 -0.0891  0.3194 -0.5770
   14MOL   N200 9846   7.684   4.610   1.956 -0.6502  0.0301  0.1112
   14MOL   H201 9847   0.511   4.107   1.382  0.1986  2.3087 -1.0903
   14MOL   H202 9848   0.553   3.996   1.241 -0.6067 -1.3212  0.8948
   14MOL   H203 9849   0.350   3.904   1.226 -1.6432 -0.6813  0.6558
   14MOL   H204 9850   0.393   3.897   1.401 -1.5568 -0.2269 -0.0218
   14MOL   H205 9851   0.180   4.070   1.259 -1.3449 -1.3385 -0.4047
   14MOL   H206 9852   0.242   4.125   1.400  1.7547 -0.4393 -0.3588
   14MOL   H207 9853   0.132   3.842   1.365  0.0830  1.4179 -1.6653
   14MOL   H208 9854   0.201   3.910   1.515 -0.6071  3.4267  0.7242
   14MOL   H209 9855   7.634   3.902   1.493  1.6491 -0.0801  1.6422
   14MOL   H210 9856   7.643   3.993   1.345 -1.8177  1.3387  0.7368
   14MOL   H211 9857   0.014   4.202   1.436  1.7504  0.9316  1.0849
   14MOL   H212 9858   0.059   4.137   1.596 -1.1300  0.4335  0.5625
   14MOL   H213 9859   7.498   4.088   1.628 -0.1266  1.1971  0.8981
   14MOL   H214 9860   7.473   4.130   1.479  0.4802 -2.4628  0.3121
   14MOL   H215 9861   7.411   4.338   1.621  0.4173  1.0274  2.0634
   14MOL   H216 9862   7.548   4.373   1.522 -0.9409  0.4819 -0.1019
   14MOL   H217 9863   0.005   4.298   1.725 -0.0973 -1.0892 -0.7656
   14MOL   H218 9864   7.561   4.247   1.807 -0.9855  0.9942  0.8631
   14MOL   H219 9865   7.478   4.472   1.828 -0.6206 -3.5072 -0.3987
   14MOL   H220 9866   7.593   4.541   1.719 -1.3337  0.5066  0.4325
   14MOL   H221 9867   0.099   4.460   1.863 -0.5177 -1.0198 -1.1879
   14MOL   H222 9868   7.675   4.401   1.978  0.4340 -1.0963 -1.8170
   14MOL   H223 9869   7.603   4.659   1.922 -0.3350  0.4756  0.0007
   14MOL   C224 9870   0.076   4.651   2.052  0.7180  0.0068  0.4530
   14MOL   O225 9871   0.165   4.587   2.103 -0.5768 -0.1262  0.1942
   14MOL   C226 9872   0.054   4.795   2.110  0.1826  0.5475  0.1227
   14MOL   C227 9873   0.091   4.905   2.008 -0.3276  0.7864  0.0367
   14MOL   C228 9874   0.234   4.891   1.957  0.3855 -0.4225 -0.2776
   14MOL   C229 9875   0.284   4.988   1.844 -0.5314 -0.9234  0.8998
   14MOL   C230 9876   0.431   4.958   1.809 -0.8981 -0.3292 -0.8218
   14MOL   C231 9877   0.492   5.051   1.702  0.4619  0.7147 -0.1056
   14MOL   C232 9878   0.621   4.983   1.638 -0.2449 -0.6288 -0.6265
   14MOL   C233 9879   0.603   4.848   1.562  0.0842  0.0229  0.3671
   14MOL   C234 9880   0.745   4.797   1.533 -0.0308 -0.0091 -0.3099
   14MOL   C235 9881   0.743   4.671   1.445  0.3631  0.0042 -0.4815
   14MOL   C236 9882   0.873   4.587   1.436 -0.2678 -0.3443 -0.6068
   14MOL   N237 9883   0.846   4.453   1.390  0.3358  0.1027 -0.2883
   14MOL   H238 9884   0.102   4.798   2.208 -0.0526  0.3306  0.2478
   14MOL   H239 9885   7.643   4.804   2.138  0.5369  0.1717  1.5991
   14MOL   H240 9886   0.019   4.896   1.927 -0.5516 -0.0823  0.3201
   14MOL   H241 9887   0.090   5.008   2.044 -0.8716  1.2115 -1.1755
   14MOL   H242 9888   0.257   4.792   1.918  0.4733 -0.3500 -0.4084
   14MOL   H243 9889   0.299   4.910   2.042 -0.3371 -1.3786  0.4955
   14MOL   H244 9890   0.224   4.977   1.753  2.1086 -0.8317 -0.8968
   14MOL   H245 9891   0.263   5.093   1.869  1.4682 -0.0979 -0.7499
   14MOL   H246 9892   0.451   4.855   1.780  0.3719  0.2854 -2.1784
   14MOL   H247 9893   0.486   4.976   1.901  0.0399  0.3312 -1.5113
   14MOL   H248 9894   0.526   5.141   1.754 -0.3859  1.0933 -0.1833
   14MOL   H249 9895   0.418   5.084   1.628 -0.7946  0.1939  0.9008
   14MOL   H250 9896   0.669   4.955   1.732 -0.9820  0.8715  0.2123
   14MOL   H251 9897   0.682   5.052   1.581 -0.0514 -0.4853 -0.2448
   14MOL   H252 9898   0.551   4.857   1.466  0.3095  0.1318  0.2548
   14MOL   H253 9899   0.559   4.770   1.624  3.3321 -2.0792  0.1366
   14MOL   H254 9900   0.803   4.774   1.623 -0.4418 -1.9641 -0.5286
   14MOL   H255 9901   0.796   4.877   1.479  0.9805 -0.4707 -0.0555
   14MOL   H256 9902   0.699   4.689   1.347  1.6028 -0.2438 -1.0911
   14MOL   H257 9903   0.668   4.606   1.491 -0.6134  1.7906  0.4813
   14MOL   H258 9904   0.928   4.595   1.530 -0.0888 -2.6295 -0.4870
   14MOL   H259 9905   0.945   4.629   1.366 -0.1404  2.2787  1.0348
   14MOL   H260 9906   0.755   4.423   1.360 -0.2327  1.3907  0.1280
   14MOL   C261 9907   0.945   4.363   1.361  0.3882 -0.6707  0.3159
   14MOL   O262 9908   1.062   4.394   1.358 -0.1649  0.1492  0.7892
   14MOL   C263 9909   0.888   4.233   1.302 -0.1457 -0.7057  0.3450
   14MOL   C264 9910   0.968   4.191   1.177  0.4126  0.0009 -0.3971
   14MOL   C265 9911   0.897   4.086   1.089 -0.4663  0.1500  0.4580
   14MOL   C266 9912   0.974   4.034   0.967  0.8570 -0.0054  0.4187
   14MOL   C267 9913   0.893   3.937   0.880  0.2822 -0.2017 -0.1220
   14MOL   C268 9914   0.967   3.876   0.758  0.5821  0.0891 -0.1782
   14MOL   C269 9915   0.876   3.793   0.665  0.1803 -0.5651  0.0817
   14MOL   C270 9916   0.784   3.872   0.570  0.5141  0.5762 -0.3979
   14MOL   C271 9917   0.714   3.769   0.463  0.2033 -0.3530 -0.2087
   14MOL   C272 9918   0.606   3.850   0.393  0.7188  0.4058 -0.6095
   14MOL   C273 9919   0.549   3.782   0.273  0.8058  0.1806 -0.1116
   14MOL   N274 9920   0.465   3.663   0.317  0.3936 -0.6805 -0.3520
   14MOL   H275 9921   0.784   4.257   1.280 -0.6108 -1.8261  1.2525
   14MOL   H276 9922   0.882   4.156   1.379 -0.9392 -0.7288  0.2636
   14MOL   H277 9923   0.990   4.277   1.114  0.1751 -0.7600 -1.5480
   14MOL   H278 9924   1.066   4.145   1.191  1.0816  1.7523  0.8299
   14MOL   H279 9925   0.824   4.149   1.039  1.5766  1.6748 -0.6873
   14MOL   H280 9926   0.848   4.010   1.150 -0.0593 -0.1657  0.3944
   14MOL   H281 9927   1.012   4.112   0.901  0.1667 -0.0800 -0.0768
   14MOL   H282 9928   1.053   3.973   1.008 -1.1633 -2.5910  0.6078
   14MOL   H283 9929   0.806   3.993   0.846  0.6976  1.2183  1.1390
   14MOL   H284 9930   0.862   3.854   0.944  0.1485  0.5824  0.8280
   14MOL   H285 9931   1.043   3.815   0.806  2.6355  3.1022  0.5853
   14MOL   H286 9932   1.026   3.943   0.695  0.9024  0.4291  0.4773
   14MOL   H287 9933   0.827   3.719   0.729  1.3727 -0.8514  0.6882
   14MOL   H288 9934   0.942   3.737   0.598  0.0554 -0.1365 -0.3978
   14MOL   H289 9935   0.841   3.948   0.516 -0.1155 -0.4665 -2.6029
   14MOL   H290 9936   0.711   3.925   0.630 -1.2714  0.4655 -2.4031
   14MOL   H291 9937   0.668   3.689   0.521 -0.8539  0.9896  0.8561
   14MOL   H292 9938   0.786   3.735   0.389 -0.4033 -0.4522 -0.7473
   14MOL   H293 9939   0.641   3.945   0.352 -1.1833  0.4156 -2.2549
   14MOL   H294 9940   0.530   3.875   0.468  1.2870 -0.2369  0.1976
   14MOL   H295 9941   0.628   3.753   0.203  0.5610  0.3750 -0.4696
   14MOL   H296 9942   0.482   3.851   0.223 -0.3703 -0.1349  0.9963
   14MOL   H297 9943   0.498   3.641   0.410  1.4973  1.2287 -0.2649
   14MOL   C298 9944   0.375   3.609   0.236  0.3735 -0.2877  0.0293
   14MOL   O299 9945   0.358   3.645   0.120 -0.0222 -0.2751  0.3170
   14MOL   C300 9946   0.290   3.491   0.294 -0.1810 -0.6649  0.2075
   14MOL   C301 9947   0.165   3.548   0.360 -0.1053  0.5962  0.1377
   14MOL   C302 9948   0.088   3.460   0.454  1.0061  0.1881  0.5184
   14MOL   C303 9949   0.004   3.549   0.547  0.7037 -0.2850 -0.2988
   14MOL   C304 9950   7.622   3.467   0.658 -0.4447 -0.0050 -0.3331
   14MOL   C305 9951   0.010   3.423   0.771 -1.1586  0.0514  0.3343
   14MOL   C306 9952   7.624   3.367   0.886 -0.2093 -0.6075  0.1202
   14MOL   C307 9953   0.004   3.271   0.976  0.2343  0.5220 -0.6739
   14MOL   C308 9954   7.617   3.249   1.107  0.9496 -0.4107  0.1930
   14MOL   C309 9955   7.666   3.139   1.192  0.3059  0.5722  0.2224
   14MOL   C310 9956   7.576   3.088   1.314  0.4909  0.0409  0.8946
   14MOL   N311 9957   7.530   3.199   1.405  0.2774 -0.6384 -0.3268
   14MOL   H312 9958   0.355   3.432   0.358 -1.8049 -0.0613  2.4614
   14MOL   H313 9959   0.258   3.427   0.211  2.0597 -3.3248  1.2785
   14MOL   H314 9960   0.192   3.641   0.410 -1.1548  0.6956  0.5279
   14MOL   H315 9961   0.095   3.587   0.286  0.5114  0.4815 -0.5247
   14MOL   H316 9962   0.148   3.413   0.531 -0.8335 -1.1613  1.1741
   14MOL   H317 9963   0.017   3.393   0.406 -0.8878  1.2916  1.6853
   14MOL   H318 9964   0.055   3.629   0.600  1.6692 -0.3711 -1.0997
   14MOL   H319 9965   7.630   3.595   0.475 -0.6779  0.0361  1.1864
   14MOL   H320 9966   7.572   3.380   0.616 -0.2586 -0.6640  0.8068
   14MOL   H321 9967   7.546   3.540   0.687 -0.1874  0.7364 -1.4832
   14MOL   H322 9968   0.070   3.504   0.811 -0.2414 -0.8723  0.8531
   14MOL   H323 9969   0.078   3.344   0.739 -0.8469  0.0448  1.0112
   14MOL   H324 9970   7.532   3.325   0.846 -0.3062 -0.4672  0.1966
   14MOL   H325 9971   7.580   3.450   0.942 -2.9345 -0.2148 -2.5129
   14MOL   H326 9972   0.098   3.318   1.005 -1.6323  2.3179  2.6983
   14MOL   H327 9973   0.008   3.177   0.920 -2.4551  1.2900 -2.2548
   14MOL   H328 9974   7.511   3.238   1.086  0.9034  2.1968 -1.1728
   14MOL   H329 9975   7.633   3.344   1.160 -0.2752 -0.6917  1.0967
   14MOL   H330 9976   0.072   3.156   1.232  0.2786 -1.5932  1.2312
   14MOL   H331 9977   0.003   3.054   1.132  0.8495  0.7444  0.2582
   14MOL   H332 9978   7.617   3.005   1.371  0.4457 -0.3648  0.3362
   14MOL   H333 9979   7.487   3.036   1.280 -0.3121  1.8133  0.2422
   14MOL   H334 9980   7.430   3.214   1.414  0.4520 -0.0341  0.6740
   14MOL   C335 9981   7.609   3.266   1.487 -0.5976 -0.4643 -0.3086
   14MOL   O336 9982   0.034   3.247   1.495  0.1717  0.0209  0.0265
   14MOL   C337 9983   7.546   3.376   1.570 -0.5258  0.4688 -0.5138
   14MOL   C338 9984   7.623   3.507   1.602  0.3239  0.4651  0.9254
   14MOL   C339 9985   0.049   3.496   1.700 -0.7867 -0.1126  0.1097
   14MOL   C340 9986   0.114   3.630   1.752 -0.6816 -0.3998  0.1950
   14MOL   C341 9987   0.027   3.710   1.850 -0.3236  0.0319 -0.0580
   14MOL   C342 9988   0.106   3.838   1.880  0.3337 -0.7685  0.2284
   14MOL   C343 9989   0.001   3.938   1.954 -0.5730  0.3661  0.5308
   14MOL   C344 9990   0.055   4.083   1.976  0.1191 -0.5859  0.3130
   14MOL   C345 9991   0.169   4.095   2.076  0.0828 -0.6531  0.7926
   14MOL   C346 9992   0.200   4.236   2.127  0.0369  0.0444 -0.0500
   14MOL   C347 9993   0.360   4.253   2.120 -0.2512  0.6682 -0.0333
   14MOL   N348 9994   0.396   4.391   2.116  0.2733  0.8736 -0.1345
   14MOL   H349 9995   7.535   3.340   1.673  0.1186 -0.4271 -0.7568
   14MOL   H350 9996   7.450   3.399   1.523  0.7768 -0.4772 -3.7575
   14MOL   H351 9997   7.666   3.553   1.513 -1.3056 -1.9401 -1.1835
   14MOL   H352 9998   7.545   3.576   1.634  1.4982  1.3950  1.8097
   14MOL   H353 9999   0.126   3.437   1.651 -0.4241 -1.0027  1.6897
   14MOL   H35410000   0.013   3.442   1.788  0.0881 -2.6226 -1.0294
   14MOL   H35510001   0.211   3.611   1.797  0.2662  0.3498 -1.4888
   14MOL   H35610002   0.139   3.690   1.664  2.1101 -0.6642  0.7690
   14MOL   H35710003   7.683   3.662   1.941 -1.4083 -1.0687 -1.0784
   14MOL   H35810004   7.641   3.751   1.789 -0.2186 -1.4207 -1.1895
   14MOL   H35910005   0.132   3.892   1.789 -1.6965  2.5777  1.5355
   14MOL   H36010006   0.192   3.820   1.944  1.4926 -0.8995 -1.3264
   14MOL   H36110007   7.658   3.908   2.052 -0.8696  0.3596  0.4202
   14MOL   H36210008   7.608   3.952   1.890  0.4041  0.9814 -0.6758
   14MOL   H36310009   7.662   4.131   2.020  0.6008  1.1767 -0.6113
   14MOL   H36410010   0.081   4.114   1.875  1.2086 -1.0390  0.4483
   14MOL   H36510011   0.257   4.036   2.048  0.2438 -1.0890  2.1940
   14MOL   H36610012   0.121   4.048   2.161 -3.3217  1.2793  0.0261
   14MOL   H36710013   0.151   4.257   2.222 -0.5825 -0.3678 -0.2771
   14MOL   H36810014   0.141   4.297   2.059  0.5988  0.2467 -0.3668
   14MOL   H36910015   0.401   4.197   2.037 -2.3653 -0.9039 -0.0676
   14MOL   H37010016   0.413   4.213   2.206 -1.2881 -0.6039  0.0229
   14MOL   H37110017   0.346   4.457   2.175 -1.0470  0.6125 -0.9535
   14MOL   C37210018   0.497   4.446   2.057  0.3951 -0.2124  0.3459
   14MOL   O37310019   0.577   4.377   1.990  0.3283 -0.3522 -0.4485
   14MOL   C37410020   0.509   4.597   2.076  0.1792  0.1957 -0.6241
   14MOL   C37510021   0.617   4.665   1.990 -0.1116 -0.2470 -0.0669
   14MOL   C37610022   0.762   4.649   2.040 -0.4714  0.1403  0.6669
   14MOL   C37710023   0.857   4.729   1.945  0.1936  0.6733  0.3234
   14MOL   C37810024   1.001   4.730   2.008 -0.0340 -0.3589  0.2789
   14MOL   C37910025   1.103   4.790   1.916  0.0628  0.1910  0.1177
   14MOL   C38010026   1.124   4.687   1.799 -0.8569 -0.1705 -0.3328
   14MOL   C38110027   1.251   4.716   1.714 -0.2847  0.3187  0.3244
   14MOL   C38210028   1.258   4.625   1.594  0.1108 -0.0951 -0.6693
   14MOL   C38310029   1.394   4.610   1.529  0.6994  0.1266 -0.7252
   14MOL   C38410030   1.382   4.532   1.395 -0.5628 -0.6432 -0.1439
   14MOL   N38510031   1.319   4.397   1.412  0.3071  0.7600 -0.0937
   14MOL   H38610032   0.531   4.609   2.182  1.4117 -3.1388 -0.4318
   14MOL   H38710033   0.414   4.647   2.060 -0.5200 -1.1117 -0.5829
   14MOL   H38810034   0.613   4.634   1.885  0.8709  1.4053 -0.6006
   14MOL   H38910035   0.594   4.771   1.982 -3.0540 -0.9689 -2.2867
   14MOL   H39010036   0.799   4.547   2.051  2.8097  1.1436 -0.3466
   14MOL   H39110037   0.769   4.676   2.145  0.7790 -0.6635  0.8012
   14MOL   H39210038   0.859   4.674   1.851  3.3700 -0.6020  1.0660
   14MOL   H39310039   0.831   4.835   1.939  0.1720  0.6422 -0.1250
   14MOL   H39410040   1.049   4.639   2.045  0.2414 -0.3923 -0.1489
   14MOL   H39510041   1.013   4.799   2.091 -1.3183  1.2096 -0.8172
   14MOL   H39610042   1.200   4.815   1.959  0.0042  0.5136  0.0655
   14MOL   H39710043   1.065   4.883   1.873  0.0517  2.0025  3.7968
   14MOL   H39810044   1.035   4.692   1.736 -0.2254  3.0968 -1.0753
   14MOL   H39910045   1.137   4.585   1.833  3.9383  0.2411 -0.6583
   14MOL   H40010046   1.340   4.705   1.776  0.9049  0.1124 -1.3904
   14MOL   H40110047   1.260   4.821   1.687  0.7460  0.1000 -0.2098
   14MOL   H40210048   1.187   4.666   1.522  0.0877  1.8171  0.4079
   14MOL   H40310049   1.216   4.528   1.620 -0.7467  0.5269  0.2902
   14MOL   H40410050   1.472   4.585   1.601 -0.4401 -0.9931  0.1400
   14MOL   H40510051   1.430   4.711   1.510  1.8814 -0.1111  0.2253
   14MOL   H40610052   1.477   4.522   1.343 -1.3034 -0.8962 -1.4552
   14MOL   H40710053   1.324   4.582   1.318 -0.8394 -2.1372 -0.9203
   14MOL   H40810054   1.220   4.404   1.394  0.6219 -1.0188 -2.7028
   14MOL   C40910055   1.392   4.288   1.449 -0.1420  0.3424  0.1850
   14MOL   O41010056   1.518   4.297   1.468  0.1025  0.5365  0.0175
   14MOL   C41110057   1.313   4.168   1.497  0.5455  0.2494 -0.1058
   14MOL   C41210058   1.318   4.052   1.396 -0.4037 -0.1758 -0.6395
   14MOL   C41310059   1.239   3.932   1.432 -0.4226  0.5935 -0.4544
   14MOL   C41410060   1.216   3.840   1.308  0.0779  0.6285 -0.0433
   14MOL   C41510061   1.134   3.712   1.340 -0.5691 -0.2903  0.3987
   14MOL   C41610062   1.122   3.603   1.226 -0.9187  0.2096 -0.0360
   14MOL   C41710063   1.061   3.650   1.094  0.2960  0.1422  0.1040
   14MOL   C41810064   1.077   3.545   0.976  0.7173 -0.5553  0.1086
   14MOL   C41910065   1.026   3.403   1.009 -0.0714 -0.0134 -0.1402
   14MOL   C42010066   0.886   3.390   1.069 -0.3427  0.6019 -0.5749
   14MOL   C42110067   0.828   3.245   1.067 -0.1605  0.8284  0.0730
   14MOL   N42210068   0.907   3.160   1.165  0.3533 -1.3667  0.7641
   14MOL   H42310069   1.208   4.189   1.516  0.8221 -0.0050  1.9085
   14MOL   H42410070   1.343   4.143   1.599  1.5239  1.6182 -0.0451
   14MOL   H42510071   1.270   4.099   1.309  0.0966  0.5235 -0.5408
   14MOL   H42610072   1.415   4.016   1.362  0.0668  0.8098 -0.3432
   14MOL   H42710073   1.138   3.958   1.466  0.1831  1.9163  0.3634
   14MOL   H42810074   1.286   3.891   1.522 -0.0156  0.5062 -0.7071
   14MOL   H42910075   1.166   3.893   1.227 -1.9147 -3.7671 -1.8755
   14MOL   H43010076   1.317   3.819   1.271 -0.4408  1.2165 -1.8766
   14MOL   H43110077   1.033   3.739   1.370 -0.6419  0.1713 -0.2559
   14MOL   H43210078   1.178   3.667   1.429  0.6550 -1.4740 -0.7817
   14MOL   H43310079   1.075   3.510   1.261 -0.8952  0.0283 -0.4823
   14MOL   H43410080   1.225   3.569   1.210 -1.0243  0.3786 -1.0922
   14MOL   H43510081   1.119   3.736   1.059  2.1152 -1.4814 -0.9288
   14MOL   H43610082   0.953   3.660   1.100 -0.0179  0.3916 -4.2325
   14MOL   H43710083   1.175   3.531   0.929  0.0557 -0.5106 -1.3069
   14MOL   H43810084   1.009   3.578   0.898  0.2641 -0.5019  0.5251
   14MOL   H43910085   1.097   3.350   1.071 -1.9399  0.7195  2.7028
   14MOL   H44010086   1.027   3.344   0.917 -2.2055  0.7309 -0.6943
   14MOL   H44110087   0.820   3.456   1.012 -0.4943  1.2949  0.3765
   14MOL   H44210088   0.891   3.440   1.166  0.3307 -1.1084  0.2993
   14MOL   H44310089   0.825   3.211   0.964  0.3153  0.8012  0.0644
   14MOL   H44410090   0.724   3.230   1.096  0.3622 -0.4536  1.3305
   14MOL   H44510091   0.893   3.161   1.265 -0.4622 -1.5132  0.6506
   14MOL   C44610092   1.013   3.089   1.108 -0.5307  0.4381 -0.4758
   14MOL   O44710093   1.044   3.080   0.990  0.4551 -0.2968 -0.0045
   14MOL   C44810094   1.105   3.018   1.212  0.2657 -0.2703 -0.3121
   14MOL   C44910095   1.243   3.077   1.227  0.5051  0.6203 -0.6352
   14MOL   C45010096   1.250   3.203   1.317  0.1535 -0.5028  0.2787
   14MOL   C45110097   1.390   3.268   1.332 -0.2723  0.1228  0.6866
   14MOL   C45210098   1.398   3.387   1.439  0.5408  0.2814 -0.3024
   14MOL   C45310099   1.530   3.468   1.442 -0.3659  0.3292 -0.0271
   14MOL   C45410100   1.515   3.578   1.538 -0.0189 -0.3073 -0.6764
   14MOL   C45510101   1.607   3.696   1.503 -0.1133  0.1245 -0.0808
   14MOL   C45610102   1.591   3.799   1.615 -0.0749  0.2542 -0.2826
   14MOL   C45710103   1.662   3.930   1.570 -0.4660  0.3943 -0.4088
   14MOL   C45810104   1.673   4.035   1.678 -0.5643 -0.2175 -0.5878
   14MOL   N45910105   1.715   4.158   1.630 -0.0167 -0.3682  0.2478
   14MOL   H46010106   1.120   2.913   1.188 -2.3802 -0.8442  0.2951
   14MOL   H46110107   1.061   3.013   1.311 -0.2003  0.2798 -0.4898
   14MOL   H46210108   1.296   3.000   1.282  0.9509  1.7821  0.5852
   14MOL   H46310109   1.298   3.079   1.133  0.9910 -1.5268 -0.4141
   14MOL   H46410110   1.224   3.172   1.418  1.7354 -0.1634  0.8165
   14MOL   H46510111   1.187   3.281   1.274  1.2212  0.8149  1.0727
   14MOL   H46610112   1.460   3.186   1.349  1.2272  1.2003 -0.1246
   14MOL   H46710113   1.418   3.322   1.241 -0.3452  0.3566  0.8014
   14MOL   H46810114   1.393   3.345   1.540 -1.2915 -0.3611 -0.6294
   14MOL   H46910115   1.303   3.440   1.429  0.0280  0.2972  3.5384
   14MOL   H47010116   1.540   3.501   1.339  0.8348 -0.3570 -0.1436
   14MOL   H47110117   1.621   3.409   1.452  0.6101  1.8100  0.0513
   14MOL   H47210118   1.516   3.548   1.643 -0.4122  1.8389 -0.0338
   14MOL   H47310119   1.411   3.606   1.528 -0.0439  0.1274  0.6561
   14MOL   H47410120   1.574   3.738   1.408 -2.9126  0.5713  1.0446
   14MOL   H47510121   1.710   3.662   1.507  0.0452  0.2729 -2.3032
   14MOL   H47610122   1.634   3.769   1.711  0.0794  1.4847  0.0442
   14MOL   H47710123   1.487   3.820   1.638  0.2891 -0.4614  2.1493
   14MOL   H47810124   1.616   3.955   1.474  0.1478 -0.8193 -1.0198
   14MOL   H47910125   1.762   3.910   1.533 -0.3878 -0.0133  0.0271
   14MOL   H48010126   1.737   4.007   1.761  1.2184  1.9046 -1.2241
   14MOL   H48110127   1.573   4.056   1.718  0.3456 -2.5533  3.1690
   14MOL   H48210128   1.645   4.220   1.592 -0.7194 -1.3025  0.0125
   14MOL   C48310129   1.832   4.223   1.644 -0.0844  0.1356 -0.5971
   14MOL   O48410130   1.943   4.172   1.671 -0.1609 -0.8389 -0.2717
   14MOL   C48510131   1.817   4.376   1.627  0.1530  0.1130 -0.3158
   14MOL   C48610132   1.816   4.445   1.765 -0.5044  0.4791 -0.1678
   14MOL   C48710133   1.714   4.399   1.869  0.1087 -0.1240  0.2611
   14MOL   C48810134   1.561   4.418   1.839  0.1314  1.0245 -0.0449
   14MOL   C48910135   1.471   4.348   1.937 -0.2387  0.1844 -0.0515
   14MOL   C49010136   1.323   4.377   1.911 -0.9235  0.2835 -0.1395
   14MOL   C49110137   1.236   4.281   1.996  0.3115  0.0480  0.3926
   14MOL   C49210138   1.086   4.306   1.981  0.8177  0.3381  0.3631
   14MOL   C49310139   1.029   4.276   1.841  0.1944 -0.4167  0.3658
   14MOL   C49410140   0.873   4.309   1.828  0.5849  0.5740 -0.4066
   14MOL   C49510141   0.811   4.275   1.689 -0.7706 -0.2955  0.1072
   14MOL   N49610142   0.668   4.308   1.707 -0.5092 -1.1335 -0.0746
   14MOL   H49710143   1.719   4.397   1.585 -0.0795 -0.7698 -0.2349
   14MOL   H49810144   1.892   4.417   1.559  1.1237 -0.6493  0.2789
   14MOL   H49910145   1.916   4.431   1.806 -0.4893  1.4559  0.1447
   14MOL   H50010146   1.800   4.547   1.730 -0.7167  0.1691 -1.0049
   14MOL   H50110147   1.736   4.436   1.970 -1.6250  1.9440 -0.0735
   14MOL   H50210148   1.736   4.292   1.869 -0.1733 -0.1820  0.2605
   14MOL   H50310149   1.528   4.522   1.838  1.9324  1.6182 -0.3150
   14MOL   H50410150   1.532   4.404   1.735 -0.2229 -1.9565  0.3940
   14MOL   H50510151   1.495   4.388   2.035  0.8107 -2.9321  1.0218
   14MOL   H50610152   1.484   4.240   1.931  0.9593  0.3809 -1.3134
   14MOL   H50710153   1.301   4.374   1.804  0.5932 -2.3586 -0.4118
   14MOL   H50810154   1.308   4.477   1.952  0.9376  0.1499  0.9008
   14MOL   H50910155   1.261   4.296   2.101 -0.3694 -0.2057  0.5942
   14MOL   H51010156   1.257   4.180   1.960 -2.1323  0.3708 -2.0884
   14MOL   H51110157   1.065   4.408   2.015 -0.8926  0.5484 -1.2181
   14MOL   H51210158   1.023   4.242   2.042  0.7203 -1.1501 -1.2658
   14MOL   H51310159   1.049   4.175   1.806 -0.2680  0.0597 -1.3000
   14MOL   H51410160   1.085   4.344   1.775 -1.1867 -0.1379 -0.5372
   14MOL   H51510161   0.860   4.414   1.854  0.3465  0.7554 -1.2286
   14MOL   H51610162   0.817   4.262   1.908  0.7346  1.9987  0.5507
   14MOL   H51710163   0.829   4.171   1.663 -0.8380 -1.2474  3.6272
   14MOL   H51810164   0.866   4.331   1.614 -0.1300 -0.9439  0.0973
   14MOL   H51910165   0.640   4.314   1.803  1.9416 -0.4079  0.6374
   14MOL   C52010166   0.582   4.336   1.616 -0.0281 -0.4871 -0.3945
   14MOL   O52110167   0.614   4.330   1.499  0.4943 -0.7499 -0.1333
   14MOL   C52210168   0.439   4.372   1.660 -0.5785  0.1047  0.0298
   14MOL   C52310169   0.388   4.487   1.580  0.8727 -0.6029  0.2861
   14MOL   C52410170   0.237   4.496   1.557  0.1921 -0.4503  0.6013
   14MOL   C52510171   0.176   4.619   1.485  0.4752  0.1726  0.2832
   14MOL   C52610172   0.210   4.759   1.550  0.2850  0.0714  0.3462
   14MOL   C52710173   0.141   4.872   1.471 -0.2304 -0.1543 -0.0631
   14MOL   C52810174   7.674   4.871   1.481  0.1485  0.0315 -0.2884
   14MOL   C52910175   7.623   4.910   1.617 -0.0987 -0.4496  0.0080
   14MOL   C53010176   7.467   4.899   1.614 -0.6868 -0.8573  0.0224
   14MOL   C53110177   7.415   4.761   1.643  0.1048 -0.1654 -0.3125
   14MOL   C53210178   7.264   4.747   1.594 -0.1789 -0.8511  0.1884
   14MOL   N53310179   7.206   4.615   1.604 -0.5171  0.1459 -0.0066
   14MOL   H53410180   0.443   4.407   1.763  2.5272  2.2414 -0.7401
   14MOL   H53510181   0.387   4.277   1.647 -1.3531  0.7501 -1.7707
   14MOL   H53610182   0.425   4.576   1.631 -2.2672 -0.4883  2.5378
   14MOL   H53710183   0.437   4.495   1.483  1.2099 -1.4137  0.3881
   14MOL   H53810184   0.192   4.493   1.656 -0.2434 -0.2014  0.4109
   14MOL   H53910185   0.203   4.409   1.501 -0.1246 -0.3639  0.6565
   14MOL   H54010186   0.198   4.618   1.378  1.3155  3.2837  0.3878
   14MOL   H54110187   0.067   4.608   1.484  0.6486 -1.5113 -0.9407
   14MOL   H54210188   0.318   4.762   1.537  0.9386 -4.2266  3.6046
   14MOL   H54310189   0.184   4.771   1.655 -0.9365 -1.1162  0.1880
   14MOL   H54410190   0.176   4.868   1.367  1.7782  0.3993  0.5605
   14MOL   H54510191   0.182   4.963   1.513 -0.5336 -0.6250  1.2932
   14MOL   H54610192   7.626   4.780   1.444 -1.8347  0.7307  0.4403
   14MOL   H54710193   7.647   4.941   1.403  0.6092 -0.0661 -0.5372
   14MOL   H54810194   7.660   5.010   1.643  0.7736 -0.5475 -0.8288
   14MOL   H54910195   7.647   4.846   1.701 -3.7147 -0.0927  1.4003
   14MOL   H55010196   7.420   4.934   1.522  0.8318 -1.2387 -0.9159
   14MOL   H55110197   7.429   4.969   1.689 -2.2313 -2.9829  1.2987
   14MOL   H55210198   7.419   4.734   1.749  1.0069 -0.8844 -0.5331
   14MOL   H55310199   7.475   4.688   1.591 -1.5346 -1.4338 -0.4649
   14MOL   H55410200   7.259   4.776   1.490 -1.1242 -0.4745  0.3329
   14MOL   H55510201   7.204   4.818   1.651 -0.6651  0.0958 -1.4852
   14MOL   H55610202   7.197   4.569   1.515  0.6097 -0.1855  0.0362
   14MOL   C55710203   7.199   4.541   1.716  0.6000  0.3488  0.0739
   14MOL   O55810204   7.254   4.567   1.824 -0.2696  0.0626  0.0207
   14MOL   C55910205   7.119   4.416   1.703 -0.4189  0.6189  0.1436
   14MOL   C56010206   7.105   4.320   1.825 -0.1891 -0.1212 -0.1388
   14MOL   C56110207   7.242   4.261   1.863  0.3639  0.7865 -0.1590
   14MOL   C56210208   7.226   4.152   1.974 -0.6448  0.3288  0.5773
   14MOL   C56310209   7.358   4.107   2.028  0.6332  0.1978 -0.1122
   14MOL   C56410210   7.348   3.990   2.133 -0.3041  1.3374  0.0132
   14MOL   C56510211   7.232   4.006   2.238 -0.7085  0.1738 -0.2535
   14MOL   C56610212   7.208   3.875   2.318  0.5293  0.4077  0.3675
   14MOL   C56710213   7.108   3.889   2.431  0.4280  0.1612  0.1094
   14MOL   C56810214   7.072   3.762   2.508  0.2525  0.5957  0.3121
   14MOL   C56910215   6.989   3.666   2.422 -0.5920 -0.3882  0.3370
   14MOL   N57010216   6.919   3.568   2.504  0.0321  0.2311  0.5769
   14MOL   H57110217   7.161   4.356   1.622  0.2586 -0.3452  1.1920
   14MOL   H57210218   7.021   4.451   1.672 -0.3454 -1.2835 -2.4308
   14MOL   H57310219   7.074   4.377   1.913  1.6538 -2.1686  1.9108
   14MOL   H57410220   7.021   4.251   1.810 -0.4061  0.3373 -1.0597
   14MOL   H57510221   7.313   4.329   1.909  0.8987 -1.5532  2.5745
   14MOL   H57610222   7.290   4.212   1.778 -0.5623 -1.9537  0.8433
   14MOL   H57710223   7.174   4.199   2.058 -0.3512  0.7967  0.4944
   14MOL   H57810224   7.171   4.064   1.940  1.2547 -0.3395 -0.8848
   14MOL   H57910225   7.406   4.196   2.067  0.2187  1.2692 -1.9956
   14MOL   H58010226   7.408   4.071   1.938 -0.1410  0.3871 -0.6208
   14MOL   H58110227   7.444   3.969   2.179 -0.5836  0.7072  0.3222
   14MOL   H58210228   7.318   3.898   2.083  0.5860  0.9622  0.1597
   14MOL   H58310229   7.138   4.033   2.190 -0.9936 -1.5063 -0.6833
   14MOL   H58410230   7.266   4.086   2.304 -0.1709  2.0975 -2.8183
   14MOL   H58510231   7.301   3.820   2.336  0.6924  0.0468 -1.4637
   14MOL   H58610232   7.172   3.808   2.241  1.5892  0.7673 -0.4624
   14MOL   H58710233   7.016   3.927   2.387  0.7279 -0.2716 -0.8980
   14MOL   H58810234   7.157   3.964   2.493  1.1038 -0.8066  0.7687
   14MOL   H58910235   7.032   3.798   2.603  1.3424 -0.0183  1.0182
   14MOL   H59010236   7.163   3.713   2.542  0.0721 -0.8217 -1.2434
   14MOL   H59110237   7.055   3.623   2.346 -1.0814 -0.2977 -0.1418
   14MOL   H59210238   6.913   3.717   2.363 -0.7598 -0.5087  0.4472
   14MOL   H59310239   6.872   3.583   2.592  0.0222  0.9444  0.4497
   14MOL   C59410240   6.890   3.443   2.458 -0.3311 -0.5020  0.2166
   14MOL   O59510241   6.940   3.404   2.355  0.4125 -0.0770  0.1672
   14MOL   C59610242   6.793   3.356   2.541 -0.3108 -1.0180 -0.0407
   14MOL   C59710243   6.667   3.345   2.458 -0.3745 -0.1887 -0.2187
   14MOL   C59810244   6.544   3.297   2.540 -0.4764  0.3311 -0.7761
   14MOL   C59910245   6.571   3.170   2.622 -0.0599  0.0378 -0.1063
   14MOL   C60010246   6.581   3.047   2.528  0.0294 -0.1412 -0.0118
   14MOL   C60110247   6.618   2.928   2.607 -0.3250  0.2694 -1.1508
   14MOL   C60210248   6.677   2.807   2.527  0.4882  0.4203  0.0909
   14MOL   C60310249   6.729   2.682   2.607  0.5248 -0.3625 -0.2497
   14MOL   C60410250   6.776   2.562   2.526 -0.0496 -0.5119 -0.4293
   14MOL   C60510251   6.850   2.460   2.609 -0.4342 -0.1247  0.3986
   14MOL   C60610252   6.863   2.336   2.519 -0.5942 -0.4503  0.1897
   14MOL   N60710253   6.944   2.236   2.580 -0.2498 -0.0312  0.2971
   14MOL   H60810254   6.775   3.406   2.636 -0.6833 -0.4374 -0.4198
   14MOL   H60910255   6.838   3.257   2.552  0.6174 -0.6989 -0.8782
   14MOL   H61010256   6.639   3.434   2.402 -0.6794 -0.4816 -0.5325
   14MOL   H61110257   6.684   3.276   2.376 -1.2544 -1.3126  0.5317
   14MOL   H61210258   6.461   3.276   2.474 -0.3296 -0.5802 -0.6854
   14MOL   H61310259   6.510   3.375   2.608  0.8430  0.0396  0.2677
   14MOL   H61410260   6.658   3.190   2.685 -0.8650 -0.2970  1.1260
   14MOL   H61510261   6.487   3.153   2.689  0.5258  1.2271  0.9510
   14MOL   H61610262   6.666   3.063   2.461  0.7371  0.1783  0.9560
   14MOL   H61710263   6.496   3.030   2.461  2.8871 -1.8816 -3.3870
   14MOL   H61810264   6.528   2.889   2.655 -0.7645  0.0174 -2.1762
   14MOL   H61910265   6.689   2.944   2.688 -0.2620 -1.6331 -0.8138
   14MOL   H62010266   6.755   2.848   2.462  0.0846 -0.6819 -1.1195
   14MOL   H62110267   6.601   2.770   2.459  1.9787  1.0354 -1.9650
   14MOL   H62210268   6.659   2.645   2.683  2.0801  0.0387  1.4162
   14MOL   H62310269   6.811   2.719   2.668 -0.9081  1.7536  0.4693
   14MOL   H62410270   6.843   2.595   2.448 -0.5285 -1.2998 -1.1900
   14MOL   H62510271   6.688   2.516   2.480  0.4640  1.1043 -3.0772
   14MOL   H62610272   6.788   2.440   2.697  0.7574 -0.0363  1.2729
   14MOL   H62710273   6.948   2.503   2.630 -1.1457  2.7607 -1.9589
   14MOL   H62810274   6.909   2.351   2.422  1.4644 -2.4252  0.8220
   14MOL   H62910275   6.767   2.290   2.495  0.2778 -1.3848 -1.5779
   14MOL   H63010276   6.975   2.249   2.675 -0.2902  1.3276  0.1334
   14MOL   C63110277   6.997   2.128   2.521 -0.4089 -0.0033  0.2475
   14MOL   O63210278   6.970   2.105   2.404 -0.5375 -0.2400  0.1281
   14MOL   C63310279   7.077   2.025   2.596  0.2168  0.0002  0.5146
   14MOL   C63410280   7.088   1.887   2.533  0.4157 -0.1222 -0.1281
   14MOL   C63510281   6.965   1.807   2.540 -0.3919 -0.5489  0.3472
   14MOL   C63610282   6.984   1.683   2.458  0.3005 -0.0660  0.1823
   14MOL   C63710283   6.978   1.722   2.310 -0.5801 -0.2979  0.2552
   14MOL   C63810284   7.006   1.602   2.222 -0.4246  0.0651 -0.4227
   14MOL   C63910285   6.955   1.621   2.081 -0.5719  0.0531  0.4279
   14MOL   C64010286   6.985   1.491   1.997 -0.4405  0.3914  0.2413
   14MOL   C64110287   6.899   1.497   1.868  0.1244 -0.0924  0.0768
   14MOL   C64210288   6.941   1.382   1.772  0.5937  0.6558 -0.2869
   14MOL   C64310289   6.868   1.385   1.636 -0.3782  0.2184  0.1945
   14MOL   N64410290   6.906   1.263   1.568 -0.1857 -0.1758  0.1409
   14MOL   H64510291   7.029   2.022   2.694  1.4346 -0.5793  1.0947
   14MOL   H64610292   7.177   2.067   2.605  0.3830  0.0198 -1.2359
   14MOL   H64710293   7.126   1.906   2.432  0.0299 -1.8737 -0.6283
   14MOL   H64810294   7.164   1.827   2.582  0.5601 -1.0601 -1.4560
   14MOL   H64910295   6.876   1.863   2.510 -0.2178 -0.1590  0.5568
   14MOL   H65010296   6.962   1.779   2.645  1.2618  0.6145  0.7219
   14MOL   H65110297   7.081   1.641   2.487  1.7783  1.6018 -2.1826
   14MOL   H65210298   6.912   1.604   2.481 -1.3316  0.8490 -1.6356
   14MOL   H65310299   7.055   1.795   2.283 -0.5519 -0.5053 -0.2458
   14MOL   H65410300   6.883   1.761   2.274  0.1239  0.9538 -0.2849
   14MOL   H65510301   6.965   1.511   2.267 -1.0368 -1.3095 -3.5790
   14MOL   H65610302   7.112   1.580   2.222 -0.3553  0.4046 -0.0508
   14MOL   H65710303   6.996   1.710   2.033 -0.0819  0.0957  0.9090
   14MOL   H65810304   6.848   1.640   2.084 -0.6924 -0.2365 -1.4799
   14MOL   H65910305   6.956   1.399   2.048  1.9304  0.5641  1.9790
   14MOL   H66010306   7.091   1.480   1.976 -0.3063 -0.3694  1.2702
   14MOL   H66110307   6.920   1.582   1.804  0.9451 -1.8745 -2.0582
   14MOL   H66210308   6.794   1.502   1.898 -0.1342  0.0997 -0.8651
   14MOL   H66310309   6.933   1.285   1.822  0.6134 -0.0334 -1.6178
   14MOL   H66410310   7.048   1.387   1.754  1.0598 -0.1077  2.0258
   14MOL   H66510311   6.892   1.469   1.571 -1.4425  1.2758  1.1364
   14MOL   H66610312   6.760   1.391   1.642 -0.3147  0.4478  1.1446
   14MOL   H66710313   6.947   1.186   1.619  2.5362  0.5321 -0.9077
   14MOL   C66810314   6.876   1.234   1.439 -0.2239 -0.9096  0.4196
   14MOL   O66910315   6.835   1.321   1.365  0.1288 -0.5108  0.3521
   14MOL   C67010316   6.874   1.087   1.405  0.1559 -0.0433  0.4271
   14MOL   C67110317   6.824   1.053   1.263 -0.2881  0.6231 -0.5544
   14MOL   C67210318   6.935   1.082   1.162  1.0269 -0.6049 -0.6497
   14MOL   C67310319   6.916   1.038   1.014 -0.0803 -0.6304 -0.4704
   14MOL   C67410320   7.001   1.119   0.914  0.2106  0.2880  0.5384
   14MOL   C67510321   7.141   1.069   0.911  0.1593  0.4264  0.3630
   14MOL   C67610322   7.220   1.168   0.825 -0.4545 -0.3811  0.7922
   14MOL   C67710323   7.258   1.299   0.902  0.0826 -0.1551  0.3277
   14MOL   C67810324   7.322   1.401   0.816  0.2574 -0.1284  0.2967
   14MOL   C67910325   7.328   1.536   0.878 -0.7075 -0.5134  0.1938
   14MOL   C68010326   7.433   1.633   0.812  0.3800 -0.0505 -0.3162
   14MOL   N68110327   7.398   1.664   0.680  0.4881  0.3220 -0.0606
   14MOL   H68210328   6.806   1.042   1.479 -0.8777  2.0421  0.7692
   14MOL   H68310329   6.973   1.043   1.418 -0.6250 -1.6738  1.1160
   14MOL   H68410330   6.791   0.950   1.257 -1.4640  0.8962  0.7487
   14MOL   H68510331   6.734   1.113   1.246 -0.8453  0.2508  0.9884
   14MOL   H68610332   7.027   1.033   1.195  1.6978  0.6631 -0.5714
   14MOL   H68710333   6.959   1.189   1.161  0.1280 -0.3522 -5.0398
   14MOL   H68810334   6.917   0.929   1.005 -0.3136 -0.7117  0.4648
   14MOL   H68910335   6.814   1.066   0.989 -0.1008 -0.4364 -0.1538
   14MOL   H69010336   6.980   1.223   0.940 -1.0022  0.3156 -0.4896
   14MOL   H69110337   6.960   1.109   0.813 -0.6390  0.0462  0.9015
   14MOL   H69210338   7.139   0.970   0.865  0.0424  0.9589 -0.8163
   14MOL   H69310339   7.189   1.058   1.007 -0.5214  2.8923  1.0346
   14MOL   H69410340   7.156   1.193   0.741  1.6397  1.1438 -0.4236
   14MOL   H69510341   7.307   1.114   0.789 -1.0855 -1.2240  0.5417
   14MOL   H69610342   7.335   1.268   0.973  0.0868 -0.0676  0.3607
   14MOL   H69710343   7.164   1.331   0.947  0.2969 -1.1495  1.5252
   14MOL   H69810344   7.275   1.409   0.718  1.7939 -1.5943 -0.5786
   14MOL   H69910345   7.423   1.366   0.797  0.1632 -0.5874  0.6278
   14MOL   H70010346   7.359   1.526   0.982  0.7376  3.3777  0.2235
   14MOL   H70110347   7.233   1.589   0.876  0.3799  1.4655 -0.3962
   14MOL   H70210348   7.530   1.585   0.817  0.1739 -0.4295  0.0758
   14MOL   H70310349   7.426   1.727   0.867  1.0815 -0.8267  1.1376
   14MOL   H70410350   7.459   1.640   0.603 -1.0615 -0.1677 -1.1607
   14MOL   C70510351   7.297   1.743   0.663 -0.0737 -0.1391  0.5512
   14MOL   O70610352   7.226   1.794   0.751 -0.0892 -0.0982 -0.4940
   14MOL   C70710353   7.266   1.771   0.512 -0.7830  0.3713  0.4087
   14MOL   C70810354   7.209   1.645   0.445 -0.5269 -0.3863  0.3715
   14MOL   C70910355   7.070   1.615   0.491 -0.2649 -0.1051  0.7668
   14MOL   C71010356   7.041   1.462   0.476 -0.8619  0.9958 -0.0551
   14MOL   C71110357   6.893   1.435   0.478 -0.1376  0.2287 -0.0599
   14MOL   C71210358   6.833   1.467   0.613  0.6505  0.4461 -0.0869
   14MOL   C71310359   6.682   1.444   0.626  0.2215  0.1266 -0.4207
   14MOL   C71410360   6.631   1.425   0.776  0.1120  0.1876  0.5789
   14MOL   C71510361   6.654   1.275   0.831  0.2519 -0.2337 -0.0914
   14MOL   C71610362   6.555   1.173   0.767  0.3604  0.1971  0.6506
   14MOL   C71710363   6.592   1.030   0.814 -0.1085  0.0776  0.7370
   14MOL   N71810364   6.491   0.932   0.795  0.0168  0.1295 -0.4665
   14MOL   H71910365   7.358   1.799   0.460  0.0888 -0.5590  1.4476
   14MOL   H72010366   7.200   1.855   0.493  0.3026  1.8150  2.7411
   14MOL   H72110367   7.202   1.671   0.339 -0.6639 -0.1778  0.4335
   14MOL   H72210368   7.275   1.560   0.464  0.5777  1.0917  3.3676
   14MOL   H72310369   6.995   1.671   0.436 -0.0465 -0.2293  0.3389
   14MOL   H72410370   7.064   1.652   0.593 -0.9884  1.8594  0.0235
   14MOL   H72510371   7.091   1.431   0.384  1.9540  1.7101  1.1826
   14MOL   H72610372   7.091   1.409   0.557 -0.9108  1.0316 -0.0021
   14MOL   H72710373   6.883   1.327   0.467  0.9868 -0.2633  3.2995
   14MOL   H72810374   6.845   1.493   0.399  3.5569 -0.7421 -3.1533
   14MOL   H72910375   6.842   1.572   0.641  0.3677  0.0367  1.6091
   14MOL   H73010376   6.891   1.416   0.691  0.5018  0.3022 -0.0688
   14MOL   H73110377   6.647   1.360   0.567 -2.3564  0.8633 -0.0364
   14MOL   H73210378   6.629   1.534   0.595 -1.4163 -0.8321 -0.4753
   14MOL   H73310379   6.524   1.448   0.772 -0.1093 -0.8728  0.1719
   14MOL   H73410380   6.676   1.498   0.843 -3.8650  3.0192  0.3345
   14MOL   H73510381   6.636   1.260   0.937  2.1467 -1.9598  0.0284
   14MOL   H73610382   6.762   1.256   0.829  0.0413 -1.7153  1.7898
   14MOL   H73710383   6.555   1.166   0.659 -0.6896  3.6216  0.3777
   14MOL   H73810384   6.457   1.212   0.791  0.1257  0.5010 -0.7716
   14MOL   H73910385   6.613   1.034   0.921 -0.0376 -0.2261  0.7326
   14MOL   H74010386   6.686   1.004   0.767 -1.0370 -1.2603 -0.4054
   14MOL   H74110387   6.475   0.915   0.696 -0.1730 -0.0095 -0.4107
   14MOL   H74210388   6.521   0.843   0.830  1.7297 -0.7972 -3.9633
   15MOL     C110389   3.683   2.683   5.972  0.7867 -0.6764  0.2856
   15MOL     O210390   3.695   2.602   5.883  0.2996  0.1169 -0.3298
   15MOL     C310391   3.600   2.662   6.096  0.7575  0.5627 -0.5091
   15MOL     C410392   3.659   2.736   6.223 -0.1464  0.1270  0.2481
   15MOL     C510393   3.594   2.874   6.230 -0.2964 -0.3318 -0.3585
   15MOL     C610394   3.660   2.982   6.324 -0.0995  0.1142  0.3209
   15MOL     C710395   3.574   3.086   6.389 -0.1426 -0.5099  0.3103
   15MOL     C810396   3.657   3.202   6.460 -0.7379  0.5383 -0.0528
   15MOL     C910397   3.580   3.331   6.480 -0.5751 -0.1234  0.1576
   15MOL    C1010398   3.671   3.426   6.550  0.1159  0.4475  0.7612
   15MOL    C1110399   3.606   3.566   6.564 -0.1713 -0.8341  0.1338
   15MOL    C1210400   3.693   3.664   6.645  0.0687  0.6064 -0.5385
   15MOL    C1310401   3.828   3.707   6.593  0.4504  0.6187 -0.0900
   15MOL    N1410402   3.826   3.776   6.461  0.3394  0.0510  0.5349
   15MOL    H1510403   3.601   2.553   6.100  1.4572  0.4380 -2.8362
   15MOL    H1610404   3.498   2.695   6.079  0.2920  0.6268  2.2441
   15MOL    H1710405   3.626   2.680   6.310 -0.9722 -0.2329 -0.2892
   15MOL    H1810406   3.767   2.748   6.221  0.0131 -1.2762  0.0553
   15MOL    H1910407   3.494   2.853   6.269 -0.0356  0.2121  0.6205
   15MOL    H2010408   3.601   2.912   6.128  1.0871 -1.5688 -0.7483
   15MOL    H2110409   3.725   2.942   6.402 -1.5976 -1.2410  0.8954
   15MOL    H2210410   3.730   3.043   6.267 -0.5442  0.8793  0.5976
   15MOL    H2310411   3.495   3.043   6.450  0.0222 -1.8028 -0.3655
   15MOL    H2410412   3.517   3.129   6.307  0.7816  0.9074  0.3801
   15MOL    H2510413   3.752   3.217   6.408 -0.4598 -0.4326  0.1441
   15MOL    H2610414   3.694   3.158   6.553  1.5281 -1.0459 -1.6192
   15MOL    H2710415   3.489   3.323   6.539 -0.7229 -1.0348 -0.1983
   15MOL    H2810416   3.553   3.382   6.388 -0.8217  0.7383  0.6923
   15MOL    H2910417   3.756   3.429   6.482 -0.2469 -2.1906  0.1677
   15MOL    H3010418   3.704   3.387   6.646  0.1800  0.3874  0.7148
   15MOL    H3110419   3.512   3.556   6.619  0.7406 -0.8428  1.7101
   15MOL    H3210420   3.572   3.600   6.466 -0.1539 -0.5428  0.2273
   15MOL    H3310421   3.700   3.622   6.745  0.2507 -0.4215 -0.9809
   15MOL    H3410422   3.647   3.762   6.655  1.9402  1.3095  1.6495
   15MOL    H3510423   3.901   3.628   6.573 -1.8972 -1.6472 -0.0115
   15MOL    H3610424   3.867   3.771   6.671  1.4086  0.1367 -0.1680
   15MOL    H3710425   3.747   3.765   6.400  0.1737  2.8094  0.1799
   15MOL    H3810426   3.727   2.783   5.978  0.4654 -0.6602  3.0866
   15MOL    C3910427   3.918   3.863   6.427  0.4545  0.3158 -0.1454
   15MOL    O4010428   4.016   3.888   6.497  0.3074  0.1472 -0.4045
   15MOL    C4110429   3.910   3.925   6.284 -0.0510 -0.3194 -0.2067
   15MOL    C4210430   3.985   3.844   6.186 -0.4273 -0.0999  1.0320
   15MOL    C4310431   3.953   3.874   6.040  0.4954  0.6508  0.0299
   15MOL    C4410432   4.039   3.796   5.936  0.4510  0.2969 -0.4383
   15MOL    C4510433   3.981   3.789   5.791  0.6435  0.3173 -0.1543
   15MOL    C4610434   3.841   3.731   5.787 -0.2342 -1.2237 -0.2760
   15MOL    C4710435   3.786   3.702   5.645  0.2927  0.1096 -0.6274
   15MOL    C4810436   3.660   3.609   5.639  0.3944 -0.7586  0.1867
   15MOL    C4910437   3.604   3.593   5.492 -0.4570  0.2863 -0.4012
   15MOL    C5010438   3.469   3.518   5.499 -0.2975 -0.4123  0.0628
   15MOL    C5110439   3.404   3.510   5.362  0.1746  0.2546  0.1548
   15MOL    N5210440   3.299   3.405   5.360  0.0107 -0.6293  0.5885
   15MOL    H5310441   3.950   4.026   6.283 -1.6650  0.3350 -1.1716
   15MOL    H5410442   3.803   3.937   6.264 -0.1544 -0.1861  0.4031
   15MOL    H5510443   4.091   3.861   6.208 -0.0859  0.0649 -0.6745
   15MOL    H5610444   3.959   3.739   6.201 -0.0114 -0.5762 -1.3587
   15MOL    H5710445   3.956   3.981   6.023  2.3216  0.9866  2.1872
   15MOL    H5810446   3.853   3.833   6.024  0.3680  0.8279  0.3609
   15MOL    H5910447   4.142   3.832   5.938  0.6498 -0.2882  1.6151
   15MOL    H6010448   4.043   3.693   5.970  0.0030  0.3540 -0.2055
   15MOL    H6110449   4.044   3.732   5.723 -1.1653 -2.3336  0.3352
   15MOL    H6210450   3.979   3.889   5.748  1.2828  0.4000 -0.0078
   15MOL    H6310451   3.768   3.802   5.827 -0.1368 -0.4189 -1.4920
   15MOL    H6410452   3.838   3.637   5.842  1.6725 -1.6858 -0.9221
   15MOL    H6510453   3.866   3.653   5.590  0.6936 -0.4761  0.4672
   15MOL    H6610454   3.764   3.794   5.591  4.4997  0.6525 -1.6094
   15MOL    H6710455   3.579   3.656   5.696  0.9534  0.0971  0.2795
   15MOL    H6810456   3.671   3.515   5.694 -4.4399 -0.8927  1.1715
   15MOL    H6910457   3.665   3.540   5.419 -0.5832  0.4773 -0.6461
   15MOL    H7010458   3.577   3.684   5.440  0.9438  0.3892 -0.9730
   15MOL    H7110459   3.393   3.567   5.561 -1.3188 -2.1691  0.2427
   15MOL    H7210460   3.470   3.416   5.538 -0.8112 -0.3429  0.2616
   15MOL    H7310461   3.478   3.484   5.286  2.4659 -0.7960  2.7164
   15MOL    H7410462   3.375   3.607   5.321 -1.1790  0.5622  1.8030
   15MOL    H7510463   3.271   3.371   5.451  0.3707  0.6495  1.1913
   15MOL    C7610464   3.247   3.360   5.244 -0.8558 -0.8072 -0.6370
   15MOL    O7710465   3.278   3.411   5.136 -0.5206  0.2462 -0.1632
   15MOL    C7810466   3.153   3.242   5.253  0.0597 -0.2144 -0.2898
   15MOL    C7910467   3.001   3.275   5.246 -0.2257  0.0388 -0.7505
   15MOL    C8010468   2.914   3.157   5.193  0.0694 -0.1934 -0.1866
   15MOL    C8110469   2.770   3.197   5.205 -0.1612 -0.1921 -0.6640
   15MOL    C8210470   2.718   3.296   5.106 -1.0050 -0.0033 -0.3413
   15MOL    C8310471   2.574   3.323   5.130  0.2957 -0.4278  0.1292
   15MOL    C8410472   2.527   3.446   5.036  0.3161  0.2437  0.3135
   15MOL    C8510473   2.377   3.463   5.032  0.2093 -0.5068 -0.1404
   15MOL    C8610474   2.343   3.603   4.992  0.0810 -0.4759  0.3436
   15MOL    C8710475   2.187   3.618   4.992 -0.2612 -0.0747  0.1343
   15MOL    C8810476   2.136   3.757   4.969  0.5228 -0.2937  0.0818
   15MOL    N8910477   2.156   3.819   4.839 -0.2156 -0.4314 -0.7567
   15MOL    H9010478   3.173   3.175   5.336  0.4044  0.8422  0.4964
   15MOL    H9110479   3.173   3.181   5.165 -1.7660 -0.8343 -0.2890
   15MOL    H9210480   2.971   3.304   5.347  1.7561 -0.7446  0.0978
   15MOL    H9310481   2.981   3.356   5.176  0.5325  1.0237  0.1561
   15MOL    H9410482   2.933   3.073   5.260  0.8537  0.1050 -0.0279
   15MOL    H9510483   2.940   3.119   5.095 -0.2119  1.4061 -0.8937
   15MOL    H9610484   2.711   3.106   5.193 -0.3594 -0.2575  0.7751
   15MOL    H9710485   2.751   3.234   5.305 -0.1269 -2.1194  0.0658
   15MOL    H9810486   2.738   3.275   5.001  0.6728 -0.6307  0.0847
   15MOL    H9910487   2.773   3.390   5.112 -1.3884  0.2166 -0.2437
   15MOL   H10010488   2.558   3.353   5.234  0.0037 -0.9032  0.2195
   15MOL   H10110489   2.505   3.240   5.122 -1.2964  1.0141 -1.4709
   15MOL   H10210490   2.559   3.435   4.932  0.7445  3.0106  0.0927
   15MOL   H10310491   2.575   3.541   5.064  0.4718 -0.3184  2.0224
   15MOL   H10410492   2.342   3.450   5.134  0.8332  0.2991  0.1812
   15MOL   H10510493   2.317   3.394   4.973 -1.7298 -1.2984  2.6246
   15MOL   H10610494   2.373   3.626   4.890 -0.9342  0.8404  0.3280
   15MOL   H10710495   2.390   3.674   5.060  0.2121 -0.2520  0.0192
   15MOL   H10810496   2.141   3.583   5.084  0.0163 -0.6599  0.0515
   15MOL   H10910497   2.142   3.553   4.917  2.2480 -0.0600 -1.4391
   15MOL   H11010498   2.173   3.813   5.054  1.1272  0.5990 -0.7570
   15MOL   H11110499   2.027   3.744   4.973  0.6208 -1.5068 -0.6492
   15MOL   H11210500   2.200   3.775   4.760 -1.1028 -2.1564 -0.3146
   15MOL   C11310501   2.146   3.955   4.836  0.3136  0.3286  0.0515
   15MOL   O11410502   2.113   4.026   4.931  0.0032 -0.0316  0.4450
   15MOL   C11510503   2.197   4.027   4.709 -0.0532 -0.5842  0.3916
   15MOL   C11610504   2.173   4.180   4.712  0.2529 -0.6238  0.7272
   15MOL   C11710505   2.202   4.234   4.574  0.2488 -0.9572 -0.3939
   15MOL   C11810506   2.200   4.395   4.554 -0.5360 -0.2384 -0.1272
   15MOL   C11910507   2.072   4.463   4.611  0.1547 -0.3188  0.7320
   15MOL   C12010508   2.057   4.611   4.571  0.7527  0.0156 -0.5090
   15MOL   C12110509   2.035   4.644   4.421  0.1957  0.2971  0.4208
   15MOL   C12210510   2.056   4.794   4.395  0.9298 -0.1319 -0.2929
   15MOL   C12310511   1.980   4.856   4.282 -0.3564 -0.7700 -0.3508
   15MOL   C12410512   2.004   5.006   4.280  0.6682 -0.0896 -0.0245
   15MOL   C12510513   2.151   5.054   4.248 -0.2128  0.4438 -0.1422
   15MOL   N12610514   2.220   4.989   4.140 -1.0083 -0.3784 -0.2067
   15MOL   H12710515   2.140   3.983   4.627 -0.6641  0.2272  0.3742
   15MOL   H12810516   2.301   3.997   4.697  0.5885  1.7146 -0.0732
   15MOL   H12910517   2.067   4.194   4.732  0.3341  0.9296  0.1018
   15MOL   H13010518   2.242   4.218   4.787 -1.4337 -1.8169  2.9178
   15MOL   H13110519   2.122   4.192   4.514  0.6776  0.9376 -2.3309
   15MOL   H13210520   2.296   4.192   4.539  0.2870 -1.5996  0.4676
   15MOL   H13310521   2.288   4.433   4.606 -0.8991  0.5490 -0.0816
   15MOL   H13410522   2.210   4.403   4.445  0.8514 -0.1298 -0.0022
   15MOL   H13510523   2.061   4.448   4.718 -1.1631 -1.2447  0.4788
   15MOL   H13610524   1.985   4.408   4.573 -0.0432  0.2267  0.3833
   15MOL   H13710525   2.153   4.655   4.600 -0.1680  1.5853  0.2009
   15MOL   H13810526   1.979   4.658   4.631  1.5884  0.0521  0.5600
   15MOL   H13910527   1.938   4.613   4.381 -0.4630  1.6899  0.8884
   15MOL   H14010528   2.117   4.583   4.384  0.1777 -0.5900  1.8276
   15MOL   H14110529   2.161   4.825   4.392  0.1177  2.7623  0.6306
   15MOL   H14210530   2.016   4.841   4.484  1.2987 -3.7995  1.9490
   15MOL   H14310531   1.872   4.842   4.292 -0.9111  2.8980 -0.6867
   15MOL   H14410532   2.012   4.807   4.190  4.3389  0.5280  0.4492
   15MOL   H14510533   1.976   5.042   4.379 -1.1473 -0.7624 -0.2773
   15MOL   H14610534   1.939   5.051   4.205  0.5155  0.4726  0.4429
   15MOL   H14710535   2.211   5.027   4.335  0.5301  0.9930 -0.4772
   15MOL   H14810536   2.153   5.162   4.233  1.7636  0.3731 -0.4602
   15MOL   H14910537   2.157   4.939   4.079 -1.2620  1.9446 -1.9462
   15MOL   C15010538   2.354   4.987   4.133 -0.1974 -0.0010  0.2944
   15MOL   O15110539   2.419   5.067   4.204 -0.2172  0.5272  0.3981
   15MOL   C15210540   2.423   4.900   4.025  0.2064 -0.0724 -0.5923
   15MOL   C15310541   2.575   4.879   4.056  0.4435 -0.0795 -0.3953
   15MOL   C15410542   2.664   4.975   3.969  0.0822 -0.3383 -0.1396
   15MOL   C15510543   2.817   4.958   3.987 -0.3150 -0.1981 -0.7437
   15MOL   C15610544   2.859   5.008   4.127  0.0295 -0.1927 -0.4484
   15MOL   C15710545   2.859   5.157   4.152  0.3449 -0.2545  0.3475
   15MOL   C15810546   2.947   5.200   4.274  0.0349  0.1497  0.5958
   15MOL   C15910547   2.960   5.353   4.282 -0.2877 -0.6088  0.2940
   15MOL   C16010548   3.081   5.390   4.367 -0.3699  0.0014 -0.5929
   15MOL   C16110549   3.092   5.542   4.393  0.2602  0.2244 -0.0206
   15MOL   C16210550   3.213   5.583   4.471  0.1509  0.1087 -0.1515
   15MOL   N16310551   3.208   5.732   4.506 -1.0355 -0.6671  0.1502
   15MOL   H16410552   2.402   4.948   3.930  0.5945  1.4840  0.0817
   15MOL   H16510553   2.382   4.799   4.020  0.5397 -0.2958  0.8062
   15MOL   H16610554   2.589   4.897   4.163 -0.1317  0.4878 -0.4103
   15MOL   H16710555   2.601   4.773   4.049 -0.1484 -0.2582  0.0798
   15MOL   H16810556   2.643   5.081   3.981  0.0318  0.0527 -3.2704
   15MOL   H16910557   2.647   4.958   3.862  1.9521  1.1128 -0.6935
   15MOL   H17010558   2.837   4.852   3.976  1.6223 -0.0381  0.9181
   15MOL   H17110559   2.880   4.995   3.906 -0.1585 -1.3573 -1.1540
   15MOL   H17210560   2.965   4.982   4.133  0.5039  1.8606  0.8300
   15MOL   H17310561   2.808   4.959   4.210  0.6188 -1.7375 -0.9786
   15MOL   H17410562   2.764   5.209   4.155  0.5099  0.0087  0.9928
   15MOL   H17510563   2.908   5.200   4.064 -0.8645 -0.8969 -0.6575
   15MOL   H17610564   3.049   5.165   4.256  0.5951  2.0813 -0.1748
   15MOL   H17710565   2.912   5.177   4.374 -1.2825  2.2972  0.6554
   15MOL   H17810566   2.870   5.392   4.330  2.2979  2.1625  3.1007
   15MOL   H17910567   2.963   5.390   4.179 -3.0885 -1.3798 -0.1058
   15MOL   H18010568   3.167   5.338   4.324 -0.4074  0.9956 -1.9330
   15MOL   H18110569   3.060   5.354   4.468 -0.5414  1.6884 -0.0120
   15MOL   H18210570   3.002   5.581   4.441  0.3389  0.4791 -0.0825
   15MOL   H18310571   3.083   5.597   4.299  2.4751  0.4760 -0.1158
   15MOL   H18410572   3.301   5.557   4.411  0.4664 -0.4683  0.5520
   15MOL   H18510573   3.222   5.517   4.557 -1.8310 -0.4540 -0.3455
   15MOL   H18610574   3.166   5.802   4.447  0.7637 -0.5997 -1.0851
   15MOL   C18710575   3.263   5.785   4.616  0.2470 -0.3278 -0.2871
   15MOL   O18810576   3.332   5.731   4.705  0.5177  0.3714 -0.2440
   15MOL   C18910577   3.211   5.929   4.635 -0.3330  0.6616 -0.7196
   15MOL   C19010578   3.097   5.946   4.736 -0.2543 -0.8178  0.5807
   15MOL   C19110579   3.054   6.094   4.759  0.6518  0.8455  0.5422
   15MOL   C19210580   3.141   6.183   4.842 -0.5900  0.1898 -0.3805
   15MOL   C19310581   3.115   6.337   4.823 -0.4361  0.6127 -0.6802
   15MOL   C19410582   2.973   6.376   4.864  0.4697 -0.2365  0.2785
   15MOL   C19510583   2.946   6.530   4.860 -0.0794 -0.7339 -0.1041
   15MOL   C19610584   2.815   6.555   4.931 -0.0447 -0.5236  0.4599
   15MOL   C19710585   2.683   6.497   4.868 -0.2700  0.1663  0.3766
   15MOL   C19810586   2.562   6.578   4.904  0.7159  0.9138 -0.1239
   15MOL   C19910587   2.433   6.529   4.824  0.5420 -0.3486  0.1057
   15MOL   N20010588   2.309   6.595   4.861  0.3169 -0.1731  0.2540
   15MOL   H20110589   3.172   5.977   4.545  0.8542  0.8868 -1.1155
   15MOL   H20210590   3.297   5.987   4.667  1.0331 -1.3018 -0.8083
   15MOL   H20310591   3.012   5.886   4.701  1.2269 -2.1898 -0.7654
   15MOL   H20410592   3.128   5.913   4.835 -1.1821 -0.2885  1.0532
   15MOL   H20510593   2.952   6.090   4.796  2.0334  0.9749  4.5507
   15MOL   H20610594   3.055   6.148   4.664 -1.9154  1.0034  0.5769
   15MOL   H20710595   3.130   6.159   4.947 -0.0679  1.5534  0.0005
   15MOL   H20810596   3.246   6.161   4.823 -0.2687  0.3761  1.1436
   15MOL   H20910597   3.138   6.361   4.719 -0.3781 -0.5970 -0.9512
   15MOL   H21010598   3.193   6.375   4.889  0.0649  0.2219 -1.0447
   15MOL   H21110599   2.951   6.339   4.964  0.0029  1.3022  0.7601
   15MOL   H21210600   2.907   6.321   4.798 -0.1385 -1.1204  1.6029
   15MOL   H21310601   2.951   6.563   4.756 -0.6651  1.0499  0.4141
   15MOL   H21410602   3.029   6.577   4.912 -2.2783  0.6997  2.2121
   15MOL   H21510603   2.809   6.664   4.942  1.7217 -0.3663 -0.0122
   15MOL   H21610604   2.825   6.518   5.033 -1.6326  1.2532  1.2968
   15MOL   H21710605   2.652   6.398   4.901 -0.1547  0.1590  0.4610
   15MOL   H21810606   2.684   6.503   4.759  3.0866 -0.6562  0.3342
   15MOL   H21910607   2.576   6.685   4.889  0.8089  1.2577  2.1378
   15MOL   H22010608   2.551   6.566   5.012 -2.3690 -0.3219 -0.5411
   15MOL   H22110609   2.411   6.425   4.851  0.5277 -0.2629  0.4238
   15MOL   H22210610   2.452   6.537   4.717 -0.4590  1.5114  0.0649
   15MOL   H22310611   2.248   6.546   4.924  0.0683 -0.2511 -0.0517
   15MOL   C22410612   2.267   6.717   4.818 -0.0179  0.7331  0.0305
   15MOL   O22510613   2.325   6.785   4.733 -0.3309 -0.0247  0.3974
   15MOL   C22610614   2.137   6.770   4.882 -0.2098  0.2344 -0.7071
   15MOL   C22710615   2.015   6.757   4.791  0.2115  0.6445  0.4676
   15MOL   C22810616   1.976   6.611   4.748  0.0531  0.3867  0.2093
   15MOL   C22910617   1.840   6.617   4.670  0.7932  0.0012  0.3356
   15MOL   C23010618   1.775   6.486   4.620  0.1848 -0.6030 -0.1808
   15MOL   C23110619   1.851   6.409   4.512 -0.1820 -0.1752  0.6068
   15MOL   C23210620   1.784   6.285   4.460 -0.4540  0.7966 -0.0228
   15MOL   C23310621   1.874   6.206   4.367  0.6594 -0.3051 -0.0935
   15MOL   C23410622   1.786   6.104   4.303  0.1672  0.2422 -0.3611
   15MOL   C23510623   1.843   6.017   4.198 -1.0527 -0.4303 -0.2842
   15MOL   C23610624   1.738   5.914   4.148  0.7123  0.3628 -0.0447
   15MOL   N23710625   1.813   5.834   4.055  0.1990 -0.1022  0.3796
   15MOL   H23810626   2.147   6.875   4.909  1.3221  0.0318 -0.4661
   15MOL   H23910627   2.108   6.716   4.972  1.7866  0.8241  0.3045
   15MOL   H24010628   1.928   6.814   4.824 -0.7137 -0.9404  0.8297
   15MOL   H24110629   2.036   6.806   4.696 -0.9490  1.4365  0.6151
   15MOL   H24210630   1.980   6.546   4.835  0.4107 -1.1835 -0.9658
   15MOL   H24310631   2.047   6.583   4.670  0.6171  0.4304  0.7040
   15MOL   H24410632   1.774   6.657   4.747 -0.2098 -1.1142  0.0614
   15MOL   H24510633   1.833   6.690   4.589 -1.8850 -2.7343 -2.0076
   15MOL   H24610634   1.675   6.502   4.582 -0.4431  1.2505  2.0963
   15MOL   H24710635   1.762   6.414   4.702 -0.2606  0.1217  0.3847
   15MOL   H24810636   1.949   6.379   4.550  0.7442 -1.7847 -2.8752
   15MOL   H24910637   1.860   6.476   4.427 -0.8304 -0.4423  0.3224
   15MOL   H25010638   1.691   6.305   4.408 -1.2874 -2.5810  0.0153
   15MOL   H25110639   1.758   6.230   4.550  0.2659 -0.5896 -0.6225
   15MOL   H25210640   1.945   6.155   4.433 -1.4949  0.0298  2.6053
   15MOL   H25310641   1.919   6.265   4.288  0.5944 -1.0324 -0.6817
   15MOL   H25410642   1.697   6.154   4.263 -0.0865 -0.0552 -0.1664
   15MOL   H25510643   1.753   6.043   4.387  0.3529  0.9255  0.2121
   15MOL   H25610644   1.930   5.967   4.243 -2.1452 -1.2593  0.9433
   15MOL   H25710645   1.873   6.089   4.122 -0.1103 -0.1525  0.3423
   15MOL   H25810646   1.651   5.959   4.101  1.5267  3.0946  0.9480
   15MOL   H25910647   1.715   5.850   4.233 -0.9611 -0.7725 -1.3372
   15MOL   H26010648   1.912   5.844   4.043 -0.1153  0.8955 -1.5078
   15MOL   C26110649   1.749   5.748   3.969  1.0934 -0.1867 -0.5868
   15MOL   O26210650   1.630   5.722   3.976 -0.0681 -0.6893 -0.0418
   15MOL   C26310651   1.835   5.694   3.858 -0.2041 -0.1667 -0.1031
   15MOL   C26410652   1.759   5.677   3.723 -0.1486 -0.0200  0.4370
   15MOL   C26510653   1.863   5.646   3.616  0.6030  0.6800 -0.0487
   15MOL   C26610654   1.806   5.630   3.479 -0.3735  0.2122  0.4876
   15MOL   C26710655   1.718   5.498   3.460 -0.0978  0.8692 -0.6532
   15MOL   C26810656   1.630   5.503   3.333  0.5200  0.7764  0.8694
   15MOL   C26910657   1.553   5.369   3.309  0.1150  0.4586 -0.3365
   15MOL   C27010658   1.636   5.272   3.229  0.3038  0.1514 -0.3093
   15MOL   C27110659   1.564   5.141   3.197 -0.1431  0.2150  0.0477
   15MOL   C27210660   1.647   5.042   3.118  1.0229  0.0252 -0.7732
   15MOL   C27310661   1.580   4.909   3.089  0.1748  0.0565  0.2792
   15MOL   N27410662   1.496   4.926   2.969  0.1781  0.2961 -0.0110
   15MOL   H27510663   1.886   5.602   3.889  0.1201 -0.9089 -2.7287
   15MOL   H27610664   1.910   5.768   3.832  0.3889  0.3581  2.9181
   15MOL   H27710665   1.692   5.591   3.726  1.7413 -1.5306  0.7293
   15MOL   H27810666   1.709   5.765   3.683  2.2252  0.6493 -1.2032
   15MOL   H27910667   1.915   5.552   3.637  0.0398  0.0269 -1.5552
   15MOL   H28010668   1.943   5.720   3.609 -0.0980  1.6398  1.6640
   15MOL   H28110669   1.742   5.717   3.463 -2.4621 -1.3369  0.2017
   15MOL   H28210670   1.878   5.631   3.398 -2.8275 -0.0058 -1.7626
   15MOL   H28310671   1.650   5.483   3.544  0.1026  0.9313 -0.4792
   15MOL   H28410672   1.780   5.408   3.451  0.1916  1.2032 -2.2470
   15MOL   H28510673   1.684   5.532   3.243 -1.8380  1.5521 -0.3553
   15MOL   H28610674   1.565   5.587   3.356 -0.7428 -0.1205  0.6077
   15MOL   H28710675   1.465   5.386   3.248 -0.5738  1.5185  0.9244
   15MOL   H28810676   1.527   5.312   3.398  1.5570  0.3588  0.0472
   15MOL   H28910677   1.728   5.242   3.279 -0.7820 -1.5010  0.7554
   15MOL   H29010678   1.661   5.322   3.136 -1.4535  2.1955  0.2869
   15MOL   H29110679   1.487   5.172   3.126 -1.5302 -0.1747  1.3553
   15MOL   H29210680   1.512   5.096   3.281 -0.1301 -0.9758 -0.5830
   15MOL   H29310681   1.722   5.020   3.194  0.7196  1.9243  0.1202
   15MOL   H29410682   1.701   5.088   3.035  2.9793  0.5521  0.7478
   15MOL   H29510683   1.514   4.875   3.169 -1.3528  0.8354 -0.6233
   15MOL   H29610684   1.661   4.836   3.088  0.3185  0.2020  0.9962
   15MOL   H29710685   1.513   5.010   2.917  0.7719 -0.7865 -1.5940
   15MOL   C29810686   1.405   4.833   2.929 -0.2571 -0.7207  0.1069
   15MOL   O29910687   1.385   4.730   2.993 -0.1318 -0.0899 -0.4776
   15MOL   C30010688   1.335   4.839   2.795  0.3346 -0.4771  0.6596
   15MOL   C30110689   1.184   4.832   2.808  0.2674 -1.0983 -0.0307
   15MOL   C30210690   1.108   4.864   2.676  0.1913 -0.2066 -0.2322
   15MOL   C30310691   0.953   4.832   2.690 -0.3612 -0.0443 -0.0013
   15MOL   C30410692   0.887   4.888   2.818 -1.1309 -0.2177  0.0307
   15MOL   C30510693   0.733   4.865   2.840 -0.2853  0.2426  0.8680
   15MOL   C30610694   0.687   4.727   2.886  0.7284 -0.5082  0.1828
   15MOL   C30710695   0.704   4.714   3.040  0.1702  0.3929  0.1044
   15MOL   C30810696   0.639   4.581   3.095  0.7260  0.7122  0.2373
   15MOL   C30910697   0.713   4.452   3.053  0.9234  0.8397  0.3215
   15MOL   C31010698   0.659   4.327   3.130  0.1693  0.2870 -0.0269
   15MOL   N31110699   0.533   4.285   3.064  0.4273 -0.8309 -0.0427
   15MOL   H31210700   1.376   4.766   2.725  3.0905  1.2006  0.4780
   15MOL   H31310701   1.360   4.936   2.753 -0.5343 -1.8135 -3.1593
   15MOL   H31410702   1.156   4.734   2.847  1.5421 -0.7433  1.8455
   15MOL   H31510703   1.145   4.895   2.888  0.4992 -1.5549  0.4395
   15MOL   H31610704   1.161   4.803   2.603  1.4757  1.6726 -0.9104
   15MOL   H31710705   1.103   4.969   2.646 -0.3565  0.2174  1.2943
   15MOL   H31810706   0.916   4.891   2.606 -1.1407  1.9391  1.6724
   15MOL   H31910707   0.944   4.724   2.681 -2.0584  0.2373 -2.1379
   15MOL   H32010708   0.909   4.995   2.821  0.1011 -0.4410 -0.6528
   15MOL   H32110709   0.927   4.845   2.911  0.5182 -0.2173 -0.6605
   15MOL   H32210710   0.695   4.884   2.739 -2.2372 -0.5561  1.4279
   15MOL   H32310711   0.702   4.948   2.904 -1.2940 -0.7394  1.6627
   15MOL   H32410712   0.731   4.645   2.829 -0.8564 -0.6797 -0.8431
   15MOL   H32510713   0.579   4.711   2.881  0.3515  1.9168 -0.3437
   15MOL   H32610714   0.653   4.801   3.083 -1.2723 -0.9272  1.1402
   15MOL   H32710715   0.802   4.731   3.083 -0.1962  4.0063 -0.3063
   15MOL   H32810716   0.530   4.576   3.087  0.8337  0.7453 -1.4430
   15MOL   H32910717   0.658   4.595   3.201  1.3581  0.5187  0.1531
   15MOL   H33010718   0.819   4.449   3.076  0.8713  1.3427  0.6252
   15MOL   H33110719   0.712   4.442   2.945 -0.1152 -0.0517  0.4022
   15MOL   H33210720   0.653   4.343   3.238  1.5300  1.7439 -0.1419
   15MOL   H33310721   0.729   4.244   3.134 -0.3297 -0.0645  2.6991
   15MOL   H33410722   0.486   4.356   3.010 -2.0913 -0.7542  2.0782
   15MOL   C33510723   0.482   4.162   3.080  0.4471  1.1543 -0.0914
   15MOL   O33610724   0.544   4.073   3.141  0.1503  0.1344 -0.2718
   15MOL   C33710725   0.338   4.134   3.035  0.5059  0.5500  0.2559
   15MOL   C33810726   0.317   4.014   2.942  0.0132 -0.2622 -0.6557
   15MOL   C33910727   0.352   4.047   2.794 -0.0404 -0.2592  0.7518
   15MOL   C34010728   0.389   3.933   2.700  0.3596 -0.1753  0.3034
   15MOL   C34110729   0.435   3.991   2.562 -0.1974  0.7186  0.1271
   15MOL   C34210730   0.502   3.900   2.459 -0.1952 -0.3176 -0.0971
   15MOL   C34310731   0.534   3.962   2.328  0.1131  0.0164 -0.0867
   15MOL   C34410732   0.652   4.066   2.323  0.6415  0.1226  0.7749
   15MOL   C34510733   0.787   4.005   2.364 -0.6403  0.2554 -0.0857
   15MOL   C34610734   0.900   4.111   2.334  0.1922 -0.5019 -0.8155
   15MOL   C34710735   1.035   4.045   2.316 -0.5127 -0.0770  0.0341
   15MOL   N34810736   1.066   3.974   2.444  0.2605  0.1020 -0.3420
   15MOL   H34910737   0.293   4.220   2.986  1.7768  0.4202 -1.1783
   15MOL   H35010738   0.281   4.123   3.127 -1.2498 -0.2321 -0.8973
   15MOL   H35110739   0.382   3.936   2.982  0.3501  2.3262  4.2446
   15MOL   H35210740   0.220   3.967   2.955 -0.8485  1.4627 -0.7725
   15MOL   H35310741   0.445   4.103   2.792 -0.4815  0.5994  2.7030
   15MOL   H35410742   0.288   4.119   2.744 -0.5124 -0.9454  0.3568
   15MOL   H35510743   0.473   3.878   2.742  1.1124  0.3994 -0.4142
   15MOL   H35610744   0.302   3.869   2.684  0.7984 -1.4929  3.0097
   15MOL   H35710745   0.506   4.071   2.585 -0.2041  0.2089  1.9604
   15MOL   H35810746   0.352   4.045   2.517 -0.2670  0.7305  0.2715
   15MOL   H35910747   0.436   3.814   2.457 -2.3744  1.3421 -0.8213
   15MOL   H36010748   0.595   3.854   2.494 -0.6040 -0.9522  0.1610
   15MOL   H36110749   0.444   4.002   2.280 -0.5693 -0.7544  0.5463
   15MOL   H36210750   0.557   3.887   2.252 -0.0060 -0.6474  0.5324
   15MOL   H36310751   0.625   4.150   2.387  0.2193  0.6202 -0.0340
   15MOL   H36410752   0.661   4.111   2.223  0.0577 -1.4125  0.0265
   15MOL   H36510753   0.816   3.916   2.307  0.2366 -1.2421  2.6117
   15MOL   H36610754   0.800   3.989   2.470  0.9995 -1.0087 -0.4625
   15MOL   H36710755   0.911   4.179   2.418  1.2145  1.4785 -2.4899
   15MOL   H36810756   0.884   4.178   2.249 -0.1133 -1.3632 -1.4489
   15MOL   H36910757   1.109   4.122   2.295  0.9533 -1.7700 -1.1709
   15MOL   H37010758   1.030   3.973   2.234  1.3810  0.9764 -1.0226
   15MOL   H37110759   1.018   4.000   2.530 -0.5698 -1.8960 -0.1633
   15MOL   C37210760   1.149   3.864   2.451 -0.3412  0.3326 -0.7391
   15MOL   O37310761   1.215   3.829   2.354 -0.4241  0.0919  0.0489
   15MOL   C37410762   1.159   3.786   2.572 -0.0393 -0.5682 -0.1089
   15MOL   C37510763   1.231   3.859   2.686  0.2674  0.4378 -1.0074
   15MOL   C37610764   1.239   3.796   2.824  0.3196  0.2508 -0.3281
   15MOL   C37710765   1.334   3.870   2.921 -1.0514 -0.4561 -0.0881
   15MOL   C37810766   1.254   3.982   2.993 -0.3306 -0.3474 -0.0772
   15MOL   C37910767   1.335   4.037   3.113 -0.4594  0.2867  0.0933
   15MOL   C38010768   1.273   4.135   3.210 -0.6109  0.6919  0.1578
   15MOL   C38110769   1.211   4.256   3.130 -0.3489  0.2102  0.6100
   15MOL   C38210770   1.137   4.368   3.199 -0.1601  0.0201 -0.2658
   15MOL   C38310771   1.011   4.326   3.279  0.3349 -0.1347 -0.0715
   15MOL   C38410772   0.935   4.448   3.328  0.0791  0.1060 -0.6773
   15MOL   N38510773   0.826   4.416   3.422 -0.3654 -0.3064 -0.3093
   15MOL   H38610774   1.197   3.685   2.554  0.9353  0.1274 -2.0169
   15MOL   H38710775   1.058   3.753   2.599 -1.2654  2.5526 -0.7398
   15MOL   H38810776   1.333   3.873   2.649  0.5421 -1.1372 -0.8970
   15MOL   H38910777   1.174   3.951   2.692 -0.8462 -0.2866 -0.1809
   15MOL   H39010778   1.271   3.693   2.808 -1.7059 -0.8484  2.4383
   15MOL   H39110779   1.137   3.777   2.855 -0.3070 -0.2820 -2.6118
   15MOL   H39210780   1.363   3.799   2.999 -0.7283  1.5142  1.6137
   15MOL   H39310781   1.424   3.911   2.874 -1.3447  0.2559 -0.0315
   15MOL   H39410782   1.163   3.939   3.034 -0.8705  0.7519 -0.1086
   15MOL   H39510783   1.231   4.059   2.919  1.1042  2.6506  2.4979
   15MOL   H39610784   1.425   4.087   3.077 -0.2133  0.1632  0.5347
   15MOL   H39710785   1.370   3.953   3.172 -1.4844  0.3752  0.8418
   15MOL   H39810786   1.344   4.169   3.285  0.4541  0.8136 -0.8925
   15MOL   H39910787   1.199   4.074   3.262  1.2072 -1.5517  0.2141
   15MOL   H40010788   1.143   4.221   3.051 -0.2632 -1.1486  1.1150
   15MOL   H40110789   1.303   4.289   3.083  0.4340 -1.0871  1.2029
   15MOL   H40210790   1.121   4.436   3.115  2.7747  0.3762 -0.5977
   15MOL   H40310791   1.203   4.417   3.271 -1.3792  1.7817 -0.3057
   15MOL   H40410792   1.038   4.260   3.361 -1.6583 -1.4367 -0.4129
   15MOL   H40510793   0.949   4.261   3.218 -0.7300  0.8180 -0.0235
   15MOL   H40610794   0.909   4.511   3.243  0.1767  1.3247  0.1872
   15MOL   H40710795   1.012   4.502   3.384  0.9092 -0.2374 -1.4884
   15MOL   H40810796   0.809   4.318   3.438 -1.2920  0.3825  3.3133
   15MOL   C40910797   0.760   4.508   3.497  0.1832  0.1969  0.1231
   15MOL   O41010798   0.664   4.489   3.565  0.3311  0.2551  0.0602
   15MOL   C41110799   0.809   4.656   3.484  0.6400 -0.0326 -0.2127
   15MOL   C41210800   0.716   4.766   3.535 -0.1562 -0.5099  0.4464
   15MOL   C41310801   0.596   4.790   3.442  0.3835 -0.0955  0.2948
   15MOL   C41410802   0.527   4.921   3.462 -0.6018 -0.1709 -0.3729
   15MOL   C41510803   0.415   4.933   3.355  0.2315  0.5385 -0.6687
   15MOL   C41610804   0.345   5.071   3.352  0.0969 -0.5804 -0.1971
   15MOL   C41710805   0.189   5.059   3.369 -0.2790  0.1740  0.9812
   15MOL   C41810806   0.113   5.193   3.330 -0.0621  0.7499 -0.8761
   15MOL   C41910807   7.650   5.171   3.331 -0.0071 -0.1412 -0.5635
   15MOL   C42010808   7.583   5.292   3.268 -0.1461  0.6645  0.6279
   15MOL   C42110809   7.435   5.291   3.297 -0.0500 -0.0265 -0.3526
   15MOL   N42210810   7.408   5.325   3.437 -0.1653  0.6837  0.2226
   15MOL   H42310811   0.841   4.682   3.383 -0.6627  2.1723 -0.0874
   15MOL   H42410812   0.903   4.652   3.539  0.6899  0.5742 -0.2445
   15MOL   H42510813   0.691   4.736   3.637  1.7891 -1.9660  0.5219
   15MOL   H42610814   0.765   4.862   3.553 -1.4653  0.2711 -0.0148
   15MOL   H42710815   0.529   4.704   3.450  1.8027 -1.4411 -1.6461
   15MOL   H42810816   0.630   4.777   3.339 -0.1761 -1.9423  0.3115
   15MOL   H42910817   0.489   4.937   3.562 -0.2721  0.4409 -0.3400
   15MOL   H43010818   0.593   5.004   3.436  1.1893 -1.0255  1.3682
   15MOL   H43110819   0.342   4.857   3.384 -0.1152  1.7892  1.8852
   15MOL   H43210820   0.454   4.906   3.257  0.2693 -0.3601 -0.4060
   15MOL   H43310821   0.369   5.106   3.252  0.5714  1.2724  0.5524
   15MOL   H43410822   0.396   5.131   3.427 -0.3928  1.1289 -1.2239
   15MOL   H43510823   0.170   5.038   3.474  0.0167  0.6437  1.1303
   15MOL   H43610824   0.145   4.985   3.303  1.7424  1.3685 -1.7884
   15MOL   H43710825   0.125   5.206   3.222 -0.0490 -1.3368 -1.1536
   15MOL   H43810826   0.142   5.282   3.385 -1.6664 -0.1624  1.5567
   15MOL   H43910827   7.615   5.154   3.432  1.5806 -4.3068 -0.6289
   15MOL   H44010828   7.630   5.081   3.273  0.1483 -1.3682  1.2457
   15MOL   H44110829   7.607   5.300   3.161  2.9931  1.2655  1.3081
   15MOL   H44210830   7.631   5.380   3.311 -1.9848  3.3087 -2.5172
   15MOL   H44310831   7.405   5.187   3.291  1.3017 -0.4490 -0.0864
   15MOL   H44410832   7.376   5.365   3.243  0.6253  0.3324 -0.6106
   15MOL   H44510833   7.484   5.374   3.482 -0.4138  2.3223 -1.0935
   15MOL   C44610834   7.306   5.282   3.509  0.8116 -0.2677  0.1178
   15MOL   O44710835   7.212   5.214   3.466 -0.8677 -0.1068  0.4340
   15MOL   C44810836   7.298   5.326   3.654  0.1066  0.7802 -0.1021
   15MOL   C44910837   7.432   5.341   3.734 -0.5738  0.0294 -0.8200
   15MOL   C45010838   7.507   5.215   3.779  0.0031 -0.8351 -0.1490
   15MOL   C45110839   7.645   5.243   3.852  0.4444  0.2289 -0.7648
   15MOL   C45210840   7.631   5.328   3.982  0.2754  0.6526  0.6281
   15MOL   C45310841   0.076   5.355   4.053  0.3257  0.3409 -0.3553
   15MOL   C45410842   0.074   5.453   4.173 -0.1280  0.4418  0.3869
   15MOL   C45510843   0.202   5.459   4.251  0.3901  0.5057  0.3893
   15MOL   C45610844   0.204   5.565   4.364  0.0539  1.1255 -0.0948
   15MOL   C45710845   0.342   5.543   4.432  0.2369  0.8582 -0.4000
   15MOL   C45810846   0.383   5.657   4.529  0.2780  0.4190  0.1947
   15MOL   N45910847   0.285   5.660   4.643 -0.2947 -0.2144 -0.7605
   15MOL   H46010848   7.253   5.242   3.708  1.4275 -0.1512 -0.4073
   15MOL   H46110849   7.225   5.405   3.667 -0.1384  0.6358 -0.5945
   15MOL   H46210850   7.499   5.411   3.685  2.6110 -0.1067  3.0745
   15MOL   H46310851   7.397   5.387   3.826  1.0105  0.5267 -0.4491
   15MOL   H46410852   7.531   5.143   3.701  1.7364  0.3067 -0.6741
   15MOL   H46510853   7.440   5.166   3.850 -0.8200 -1.6312 -1.4416
   15MOL   H46610854   7.680   5.146   3.887 -2.3752 -0.9992 -1.2085
   15MOL   H46710855   0.023   5.285   3.781  0.6930 -1.1100 -1.3238
   15MOL   H46810856   7.569   5.271   4.051 -1.8099  0.3576 -1.4026
   15MOL   H46910857   7.588   5.426   3.961  1.5903  1.2573  0.7577
   15MOL   H47010858   0.147   5.403   3.985 -0.4245  0.0212 -1.3768
   15MOL   H47110859   0.130   5.268   4.090 -0.0652 -0.2965 -1.2638
   15MOL   H47210860   7.680   5.431   4.233  1.3066 -2.7936  1.4206
   15MOL   H47310861   0.056   5.549   4.125  1.5331  0.3474 -0.4818
   15MOL   H47410862   0.279   5.481   4.177  1.0171 -0.6916  0.6641
   15MOL   H47510863   0.225   5.357   4.282 -1.0385 -0.3488 -1.2231
   15MOL   H47610864   0.129   5.534   4.436 -0.4331 -0.8488 -1.3957
   15MOL   H47710865   0.205   5.667   4.327 -3.0600  1.4899  0.6882
   15MOL   H47810866   0.418   5.543   4.354  1.3224  1.1259  0.6370
   15MOL   H47910867   0.348   5.441   4.470 -2.4871  0.8443  0.1294
   15MOL   H48010868   0.387   5.754   4.481 -1.2318  1.0637  1.3203
   15MOL   H48110869   0.480   5.630   4.571  1.0539  1.4613 -0.9045
   15MOL   H48210870   0.240   5.573   4.668 -0.1993 -0.3301 -0.9892
   15MOL   C48310871   0.276   5.752   4.745  0.6054  0.2365 -0.0178
   15MOL   O48410872   0.343   5.855   4.754 -0.0023  0.1592 -0.2267
   15MOL   C48510873   0.198   5.708   4.862  0.3317 -0.7123  0.1034
   15MOL   C48610874   0.150   5.814   4.965  0.3360  0.1219  0.5611
   15MOL   C48710875   0.070   5.751   5.073 -0.4271 -0.7613 -0.2890
   15MOL   C48810876   0.145   5.667   5.175 -0.5205 -0.6950  0.3871
   15MOL   C48910877   0.228   5.756   5.275 -0.6082 -0.1619 -0.5938
   15MOL   C49010878   0.337   5.675   5.335 -0.1682  0.0841 -0.1091
   15MOL   C49110879   0.485   5.724   5.318 -0.2012  0.0906  0.6240
   15MOL   C49210880   0.541   5.712   5.170 -0.3941 -0.1945  0.2559
   15MOL   C49310881   0.562   5.567   5.124  0.0199 -0.1512 -0.2343
   15MOL   C49410882   0.655   5.550   4.998 -0.8085  0.5568 -0.7993
   15MOL   C49510883   0.631   5.606   4.853 -0.6537  0.3102 -0.0515
   15MOL   N49610884   0.617   5.747   4.832  0.0491  0.1566 -0.0839
   15MOL   H49710885   0.248   5.626   4.913 -0.6469 -1.0760  0.4852
   15MOL   H49810886   0.104   5.670   4.822 -1.0087  2.3831  0.1691
   15MOL   H49910887   0.233   5.871   5.006  1.1476  1.1222 -2.3575
   15MOL   H50010888   0.086   5.884   4.910  0.6098  1.2664  1.6740
   15MOL   H50110889   0.005   5.677   5.027 -2.0712  0.2957  0.2731
   15MOL   H50210890   0.004   5.826   5.119 -0.0404 -0.1025 -0.8032
   15MOL   H50310891   0.078   5.600   5.229  0.4927 -1.9737  0.0950
   15MOL   H50410892   0.221   5.614   5.117 -1.1965 -2.9665  1.5352
   15MOL   H50510893   0.164   5.803   5.349  1.4345 -0.3137  1.2968
   15MOL   H50610894   0.268   5.842   5.221  0.0168 -0.0521  0.0451
   15MOL   H50710895   0.331   5.569   5.310 -1.7289 -0.1275  1.1068
   15MOL   H50810896   0.315   5.690   5.441 -2.3230 -2.0317 -0.2173
   15MOL   H50910897   0.558   5.662   5.369 -0.8347 -1.3620 -0.1992
   15MOL   H51010898   0.498   5.824   5.361 -1.0325  0.3461  0.3019
   15MOL   H51110899   0.647   5.734   5.186 -0.2935  0.2387 -0.9660
   15MOL   H51210900   0.502   5.779   5.094  0.1204  0.9293  0.9587
   15MOL   H51310901   0.462   5.533   5.098  0.4148  0.4339 -2.6100
   15MOL   H51410902   0.599   5.507   5.208 -0.8678 -2.1385 -1.2325
   15MOL   H51510903   0.662   5.441   4.994 -0.6668  0.4558  1.4387
   15MOL   H51610904   0.757   5.568   5.029 -1.6343  3.7907  0.2197
   15MOL   H51710905   0.562   5.547   4.792 -0.9245 -2.0608  2.4646
   15MOL   H51810906   0.723   5.580   4.799 -0.0407 -1.2873  1.6906
   15MOL   H51910907   0.526   5.782   4.805  0.4657  1.3569  0.0567
   15MOL   C52010908   0.718   5.830   4.830  0.1377  0.5636  0.5757
   15MOL   O52110909   0.832   5.801   4.859  0.3914  0.5989  0.4500
   15MOL   C52210910   0.689   5.979   4.791  0.3854  0.1114  0.6731
   15MOL   C52310911   0.608   6.063   4.901 -0.2424 -0.0707  0.5312
   15MOL   C52410912   0.551   6.195   4.840 -0.4181 -0.0346 -0.3013
   15MOL   C52510913   0.429   6.171   4.761 -0.2264 -0.3825  0.1892
   15MOL   C52610914   0.379   6.300   4.702  1.1216 -0.2679  0.2575
   15MOL   C52710915   0.243   6.294   4.626 -0.9476  0.5263  0.1030
   15MOL   C52810916   0.221   6.422   4.549  0.4977  0.1323  0.7987
   15MOL   C52910917   0.093   6.417   4.462 -0.6761 -0.7262  0.6188
   15MOL   C53010918   7.671   6.466   4.548  0.1851  0.0459  0.9997
   15MOL   C53110919   7.552   6.489   4.452  1.0863  0.5362  0.7761
   15MOL   C53210920   7.412   6.537   4.509  0.0705  0.1624  0.1565
   15MOL   N53310921   7.388   6.463   4.632 -0.3073 -0.4549 -0.6426
   15MOL   H53410922   0.638   5.979   4.695  0.1432  0.3219  0.8032
   15MOL   H53510923   0.783   6.034   4.781 -0.1484  0.8537 -0.2959
   15MOL   H53610924   0.527   5.995   4.926 -0.7611  1.1993  2.4214
   15MOL   H53710925   0.664   6.081   4.992  1.2431  0.2294 -0.4268
   15MOL   H53810926   0.636   6.227   4.780 -0.5784 -1.8723 -1.5756
   15MOL   H53910927   0.534   6.267   4.920 -1.4041 -0.9979  0.3819
   15MOL   H54010928   0.438   6.099   4.680  1.8047  0.4360 -0.3607
   15MOL   H54110929   0.356   6.147   4.837  2.0148 -2.6215  1.7280
   15MOL   H54210930   0.451   6.346   4.635  0.3220  0.6973  0.0415
   15MOL   H54310931   0.374   6.376   4.780  3.3612  1.4298 -1.2110
   15MOL   H54410932   0.173   6.277   4.708  0.2887 -0.8448  0.8969
   15MOL   H54510933   0.255   6.212   4.555  2.0705  1.0868 -0.0892
   15MOL   H54610934   0.303   6.437   4.478  0.4712  2.3590  1.2109
   15MOL   H54710935   0.231   6.506   4.618  0.9721  1.4208 -0.7962
   15MOL   H54810936   0.081   6.315   4.425  0.2880 -0.8624  0.6668
   15MOL   H54910937   0.098   6.475   4.369  0.2238 -1.3975  0.2343
   15MOL   H55010938   7.688   6.563   4.595 -0.6670  2.1185 -2.7613
   15MOL   H55110939   7.627   6.391   4.614 -2.7147  2.3330  1.7480
   15MOL   H55210940   7.525   6.397   4.400 -2.8037  1.3355  1.1741
   15MOL   H55310941   7.572   6.555   4.368  1.6585 -1.6163 -0.8403
   15MOL   H55410942   7.335   6.523   4.433 -0.8135  2.4039  0.6191
   15MOL   H55510943   7.429   6.641   4.534  1.3340  0.4182 -1.6604
   15MOL   H55610944   7.420   6.367   4.627 -2.1086 -1.1041 -0.2066
   15MOL   C55710945   7.331   6.506   4.746  0.6595  0.7442 -0.1429
   15MOL   O55810946   7.316   6.621   4.775  0.0453 -0.2460 -0.0046
   15MOL   C55910947   7.301   6.394   4.846  0.0874 -0.2525  0.4555
   15MOL   C56010948   7.417   6.373   4.949 -0.0974  0.1563  0.1738
   15MOL   C56110949   7.521   6.287   4.899 -0.6547 -0.7555 -0.4118
   15MOL   C56210950   7.639   6.290   4.994  0.2674  0.1205 -0.3461
   15MOL   C56310951   0.027   6.159   5.003  0.4157  0.2572  0.4631
   15MOL   C56410952   0.176   6.168   5.049  0.5538  0.1441  0.1365
   15MOL   C56510953   0.197   6.165   5.197 -0.4343  0.1826  0.0434
   15MOL   C56610954   0.351   6.165   5.216  0.0532  0.0976 -0.1336
   15MOL   C56710955   0.391   6.159   5.360 -0.0331  0.2424 -0.5918
   15MOL   C56810956   0.536   6.208   5.377 -0.2755 -0.5782 -0.4208
   15MOL   C56910957   0.571   6.198   5.527 -1.2098  0.4335  0.3270
   15MOL   N57010958   0.701   6.262   5.552 -0.7600 -0.0416  0.6680
   15MOL   H57110959   7.271   6.308   4.787 -2.6747  0.1574  1.1636
   15MOL   H57210960   7.205   6.414   4.895  0.2133  0.4212  0.4353
   15MOL   H57310961   7.462   6.468   4.977  4.1955 -1.3904 -1.1624
   15MOL   H57410962   7.387   6.318   5.038  1.0259  1.5304  1.4133
   15MOL   H57510963   7.560   6.316   4.801  1.1807 -0.1154  0.4972
   15MOL   H57610964   7.469   6.191   4.899 -0.6570 -0.7544 -0.2587
   15MOL   H57710965   0.013   6.372   4.970  2.3016 -0.8648  1.9300
   15MOL   H57810966   7.605   6.309   5.095  1.5962 -2.1752  0.5670
   15MOL   H57910967   0.038   6.115   4.904 -1.2856  0.2511  0.2577
   15MOL   H58010968   7.659   6.088   5.059  0.8544  0.4420  1.1891
   15MOL   H58110969   0.209   6.264   5.009  0.4481  0.1629  0.0971
   15MOL   H58210970   0.243   6.093   5.006  2.3732  2.4551 -1.1928
   15MOL   H58310971   0.157   6.080   5.252 -1.4797 -0.0578 -1.0751
   15MOL   H58410972   0.138   6.249   5.234  0.7910  1.4924 -0.8862
   15MOL   H58510973   0.386   6.250   5.158  0.3175 -0.8086 -1.3082
   15MOL   H58610974   0.379   6.074   5.163  0.8020 -0.9242  1.9333
   15MOL   H58710975   0.383   6.056   5.394 -0.9713  0.5225  0.0628
   15MOL   H58810976   0.325   6.227   5.414  1.1412  1.0425 -0.1514
   15MOL   H58910977   0.546   6.314   5.353  3.4877 -0.5448  0.8891
   15MOL   H59010978   0.596   6.140   5.317 -0.1505 -3.3322  2.6677
   15MOL   H59110979   0.559   6.095   5.561 -2.8656  0.9887  1.4949
   15MOL   H59210980   0.491   6.245   5.585 -2.1580  0.1327 -0.7054
   15MOL   H59310981   0.745   6.311   5.475 -1.8864  1.5518  1.0287
   15MOL   C59410982   0.766   6.256   5.668 -0.2539  0.1252 -0.3818
   15MOL   O59510983   0.718   6.207   5.769 -0.4975  0.7413 -0.3787
   15MOL   C59610984   0.895   6.332   5.680  0.4189 -0.0926  0.6547
   15MOL   C59710985   0.991   6.281   5.782 -0.0845 -0.1605  0.3636
   15MOL   C59810986   1.112   6.373   5.790  0.1877 -0.9135 -0.0176
   15MOL   C59910987   1.222   6.316   5.887 -0.5483 -0.0740 -0.3295
   15MOL   C60010988   1.303   6.426   5.947 -0.0306 -0.6562 -0.0569
   15MOL   C60110989   1.249   6.494   6.073  0.1558  0.0461 -0.3571
   15MOL   C60210990   1.351   6.572   6.163 -0.1380 -0.5574 -0.1173
   15MOL   C60310991   1.435   6.483   6.262 -0.3480  0.3383 -0.2376
   15MOL   C60410992   1.551   6.566   6.321 -0.1651  0.0910 -0.1348
   15MOL   C60510993   1.649   6.481   6.405 -0.0223 -0.4317 -0.1128
   15MOL   C60610994   1.767   6.565   6.459 -0.0660 -0.1001  0.4907
   15MOL   N60710995   1.868   6.594   6.359 -0.4529  0.3943 -0.0390
   15MOL   H60810996   0.870   6.435   5.706 -1.5132 -1.3971  4.2763
   15MOL   H60910997   0.952   6.341   5.587 -1.3855 -0.8465 -0.5591
   15MOL   H61010998   0.946   6.282   5.882 -0.0533 -1.0388  0.3920
   15MOL   H61110999   1.017   6.182   5.744  0.0602  0.3634 -0.9102
   15MOL   H61211000   1.079   6.471   5.825  1.6655 -0.4730  0.1708
   15MOL   H61311001   1.156   6.389   5.692  0.0007  0.9442  0.1795
   15MOL   H61411002   1.177   6.256   5.966  1.0251 -0.3231  0.3989
   15MOL   H61511003   1.282   6.253   5.822  0.2269  0.1514  0.1608
   15MOL   H61611004   1.313   6.510   5.878 -0.1370  1.0088  1.8781
   15MOL   H61711005   1.406   6.404   5.974  0.2031  0.9130  0.4096
   15MOL   H61811006   1.212   6.421   6.145 -0.3923  0.5294 -0.1392
   15MOL   H61911007   1.168   6.560   6.042 -2.1317 -2.8157 -0.6818
   15MOL   H62011008   1.299   6.632   6.238  0.6139  0.1612 -0.1667
   15MOL   H62111009   1.400   6.650   6.106  0.2525  0.3796  1.4764
   15MOL   H62211010   1.468   6.392   6.212  2.7193  1.3913 -0.2290
   15MOL   H62311011   1.367   6.454   6.342 -1.2736 -0.5896 -1.3332
   15MOL   H62411012   1.500   6.649   6.369  0.6353  1.1191 -1.0270
   15MOL   H62511013   1.605   6.605   6.234 -1.1077  1.2381 -0.2237
   15MOL   H62611014   1.687   6.396   6.349  1.3288 -1.4377  2.2478
   15MOL   H62711015   1.590   6.432   6.483 -0.7503 -1.1291 -1.0945
   15MOL   H62811016   1.824   6.519   6.540 -2.5217  0.3282  2.4998
   15MOL   H62911017   1.746   6.659   6.509  4.2785  1.3774 -0.2034
   15MOL   H63011018   1.933   6.520   6.335 -0.4170  1.2263 -2.6911
   15MOL   C63111019   1.888   6.708   6.294  0.0276  0.2072 -0.4738
   15MOL   O63211020   1.824   6.809   6.317 -0.4912 -0.0599  0.1095
   15MOL   C63311021   2.004   6.700   6.189  0.1285 -0.0652 -0.5512
   15MOL   C63411022   1.954   6.739   6.049 -0.3914  0.0145 -0.4365
   15MOL   C63511023   1.860   6.626   5.997 -0.4508 -0.3436  0.2292
   15MOL   C63611024   1.782   6.668   5.876 -0.3900 -0.3089 -0.3816
   15MOL   C63711025   1.712   6.555   5.800  0.3794  0.4486 -0.5289
   15MOL   C63811026   1.607   6.605   5.697 -0.8586 -0.6601 -0.8723
   15MOL   C63911027   1.522   6.492   5.629 -0.0805  0.8464  0.5667
   15MOL   C64011028   1.431   6.527   5.508  0.0434  0.6455  0.5096
   15MOL   C64111029   1.351   6.406   5.455  0.8344  0.7060 -0.2871
   15MOL   C64211030   1.229   6.455   5.376  0.4619 -0.2555  1.0667
   15MOL   C64311031   1.142   6.353   5.317 -0.1332  0.3963 -0.3813
   15MOL   N64411032   1.045   6.409   5.232  0.4551 -0.6293 -0.7393
   15MOL   H64511033   2.038   6.597   6.179 -0.4361 -0.3898  0.8348
   15MOL   H64611034   2.097   6.753   6.208  1.0771 -2.5205  1.8995
   15MOL   H64711035   1.901   6.834   6.053  0.9068  0.7424 -0.3703
   15MOL   H64811036   2.034   6.747   5.976  0.3020  0.4242  0.3661
   15MOL   H64911037   1.794   6.586   6.074  0.2026  0.0328  1.0010
   15MOL   H65011038   1.919   6.539   5.970 -1.1852 -0.7196 -0.1750
   15MOL   H65111039   1.716   6.741   5.923  1.2797  1.8989 -1.3689
   15MOL   H65211040   1.845   6.725   5.808  0.3995  2.2225  2.3659
   15MOL   H65311041   1.654   6.494   5.870  1.0959  0.5216  0.1338
   15MOL   H65411042   1.781   6.489   5.749 -0.5424 -2.1772  1.5044
   15MOL   H65511043   1.669   6.636   5.613 -0.5511 -1.5277 -0.9653
   15MOL   H65611044   1.547   6.687   5.737  1.6043 -0.7273  3.2044
   15MOL   H65711045   1.461   6.447   5.707 -0.4819  0.2652 -0.0715
   15MOL   H65811046   1.585   6.406   5.605  0.7798  1.2789  1.2599
   15MOL   H65911047   1.475   6.588   5.429  0.1217  1.4711  1.1823
   15MOL   H66011048   1.372   6.603   5.559  0.0891  0.8553  0.2558
   15MOL   H66111049   1.332   6.346   5.544  2.1293 -0.0304 -0.5039
   15MOL   H66211050   1.412   6.347   5.387  0.4918 -1.1966  1.0188
   15MOL   H66311051   1.266   6.519   5.295 -1.0311  0.5193  0.9800
   15MOL   H66411052   1.162   6.515   5.438  0.1621  0.9986 -0.4351
   15MOL   H66511053   1.101   6.291   5.397  0.1045  0.2324 -0.3866
   15MOL   H66611054   1.197   6.280   5.257  1.4008 -0.2556  1.7338
   15MOL   H66711055   1.068   6.492   5.179  0.5655 -0.0722  0.1586
   15MOL   C66811056   0.918   6.385   5.230 -0.8526 -0.3463 -0.3222
   15MOL   O66911057   0.859   6.301   5.298  0.1187 -0.1533 -0.4866
   15MOL   C67011058   0.846   6.473   5.126  0.0705  0.0749 -0.1615
   15MOL   C67111059   0.691   6.471   5.152 -0.1039  0.1183  0.0249
   15MOL   C67211060   0.615   6.556   5.047  0.3136  0.2010 -0.8792
   15MOL   C67311061   0.455   6.537   5.046 -0.1775 -0.3273  0.2486
   15MOL   C67411062   0.397   6.620   4.936  0.7706  0.8312 -0.0978
   15MOL   C67511063   0.242   6.629   4.937 -0.1236 -0.0427  0.6619
   15MOL   C67611064   0.195   6.738   4.829 -0.1806 -0.2685 -0.0575
   15MOL   C67711065   0.042   6.763   4.822 -0.0036 -0.2584 -0.7440
   15MOL   C67811066   0.001   6.871   4.716 -0.2544  0.1703 -0.4781
   15MOL   C67911067   7.550   6.908   4.742 -0.1419 -0.1907  0.2167
   15MOL   C68011068   7.493   7.019   4.646  0.2053  0.0089  0.0363
   15MOL   N68111069   7.354   7.062   4.674  0.0366 -0.5299 -0.2620
   15MOL   H68211070   0.859   6.449   5.021  0.0267  1.2453 -0.4435
   15MOL   H68311071   0.882   6.576   5.116  2.4435 -0.6361  0.6778
   15MOL   H68411072   0.660   6.367   5.146 -0.6402  0.2391  0.6332
   15MOL   H68511073   0.674   6.520   5.249  1.5360  0.1042  0.3326
   15MOL   H68611074   0.655   6.518   4.953 -1.6532 -0.6046 -1.4226
   15MOL   H68711075   0.633   6.663   5.059 -1.7259  0.3353  1.6664
   15MOL   H68811076   0.435   6.432   5.023 -1.0197 -0.3307  0.9819
   15MOL   H68911077   0.409   6.556   5.143  0.6552 -1.1862  0.8173
   15MOL   H69011078   0.431   6.567   4.848  0.0018  2.4460 -1.3973
   15MOL   H69111079   0.446   6.718   4.935  3.8263 -0.6580 -0.1850
   15MOL   H69211080   0.206   6.659   5.035 -1.6593  0.2560  0.0200
   15MOL   H69311081   0.203   6.529   4.917 -1.1900  0.0628  2.1802
   15MOL   H69411082   0.228   6.710   4.729 -1.8960 -1.3237 -0.3551
   15MOL   H69511083   0.234   6.836   4.856  1.2550 -1.1444  1.0916
   15MOL   H69611084   0.003   6.791   4.920 -1.0318 -1.5439 -0.7607
   15MOL   H69711085   7.679   6.675   4.791 -1.3277 -0.0735  1.0517
   15MOL   H69811086   0.006   6.831   4.615  1.7695  0.4681 -0.5140
   15MOL   H69911087   0.062   6.961   4.714  3.2270 -2.0464  0.5028
   15MOL   H70011088   7.553   6.951   4.842  2.3686  1.7487 -0.6331
   15MOL   H70111089   7.483   6.822   4.747  0.8065 -1.0242 -1.0442
   15MOL   H70211090   7.492   6.974   4.546 -0.0884  2.4283 -1.0827
   15MOL   H70311091   7.559   7.106   4.647  2.3402 -1.5456  1.2977
   15MOL   H70411092   7.284   6.989   4.672 -0.2321 -0.2807  0.0329
   15MOL   C70511093   7.304   7.180   4.723  0.0261  0.3867  0.3363
   15MOL   O70611094   7.380   7.277   4.741 -0.1916 -0.0326 -0.3139
   15MOL   C70711095   7.154   7.191   4.753  0.0143 -0.6160  0.4072
   15MOL   C70811096   7.115   7.103   4.876 -0.3242  0.0614 -1.4093
   15MOL   C70911097   6.970   7.059   4.859  0.2608  0.2255  0.1020
   15MOL   C71011098   6.918   6.962   4.970 -0.3074  0.3095 -0.0113
   15MOL   C71111099   6.891   7.026   5.111  0.2837  0.0085  0.9975
   15MOL   C71211100   6.758   7.103   5.112  0.1502 -0.1114 -0.5378
   15MOL   C71311101   6.728   7.173   5.254  0.2796 -0.2294  0.1977
   15MOL   C71411102   6.596   7.242   5.263  0.1542 -0.1911 -0.6595
   15MOL   C71511103   6.578   7.296   5.401  0.2307 -0.0311  0.0853
   15MOL   C71611104   6.442   7.365   5.412  0.4140  1.0061 -0.1967
   15MOL   C71711105   6.408   7.374   5.557 -0.3444  0.7376 -0.1106
   15MOL   N71811106   6.272   7.404   5.587  0.0811 -0.2261 -0.1801
   15MOL   H71911107   7.095   7.170   4.664 -2.1516  1.6351  1.2235
   15MOL   H72011108   7.127   7.295   4.773 -0.2636 -0.8040  1.0201
   15MOL   H72111109   7.165   7.007   4.891 -0.4379  0.4605  2.0590
   15MOL   H72211110   7.138   7.159   4.967  1.8622 -1.2535 -1.1043
   15MOL   H72311111   6.953   7.017   4.760 -0.5164 -0.0156  0.3259
   15MOL   H72411112   6.907   7.148   4.863 -1.2536 -0.6274 -3.2229
   15MOL   H72511113   6.828   6.909   4.938  0.2723 -1.2081  0.8447
   15MOL   H72611114   6.986   6.877   4.966 -2.7762 -1.7033 -0.3969
   15MOL   H72711115   6.980   7.080   5.144  0.1932 -0.7838  2.5823
   15MOL   H72811116   6.872   6.941   5.177 -0.3142 -0.5253  0.1542
   15MOL   H72911117   6.675   7.035   5.091  0.9316 -1.3799  0.4265
   15MOL   H73011118   6.755   7.183   5.038 -1.1875  1.5264  1.1957
   15MOL   H73111119   6.804   7.244   5.285 -0.0275 -0.6444  1.9790
   15MOL   H73211120   6.741   7.090   5.323  1.0501 -1.2940 -1.2154
   15MOL   H73311121   6.512   7.175   5.244  0.8132 -0.2155 -3.7232
   15MOL   H73411122   6.578   7.317   5.187  1.1869  0.2417 -0.4793
   15MOL   H73511123   6.665   7.360   5.420  0.9223 -0.5713 -1.2087
   15MOL   H73611124   6.583   7.218   5.477 -1.5924 -0.1514  0.0909
   15MOL   H73711125   6.378   7.296   5.357  0.8716 -0.9135  1.6145
   15MOL   H73811126   6.437   7.461   5.361 -0.0307  1.4693  0.7078
   15MOL   H73911127   6.478   7.449   5.592  1.7581 -0.8453 -0.8379
   15MOL   H74011128   6.426   7.276   5.599 -2.2897  2.0087  3.9062
   15MOL   H74111129   6.217   7.322   5.568 -0.0345 -0.3405  0.6066
   15MOL   H74211130   6.265   7.412   5.688  0.4832  1.1120 -0.2402
   16MOL     C111131   3.903   4.503   0.923  0.5125 -0.1388 -0.9646
   16MOL     O211132   3.797   4.558   0.899  0.2171 -0.4578 -0.2799
   16MOL     C311133   4.021   4.530   0.832 -0.3863 -1.1480 -0.3086
   16MOL     C411134   4.036   4.668   0.779  0.2553 -0.1446 -0.1874
   16MOL     C511135   4.051   4.780   0.882  0.0838 -0.8416  0.3400
   16MOL     C611136   4.198   4.808   0.929 -0.6322 -0.1207 -0.0894
   16MOL     C711137   4.212   4.923   1.032  1.0668 -0.4060  0.4254
   16MOL     C811138   4.357   4.956   1.071 -0.6391 -0.3258  0.1689
   16MOL     C911139   4.375   5.072   1.174 -0.8426 -0.7263 -0.1191
   16MOL    C1011140   4.523   5.102   1.197 -0.2865 -0.5721  0.2185
   16MOL    C1111141   4.599   4.994   1.281 -0.2495 -0.1377  0.1889
   16MOL    C1211142   4.744   5.038   1.303  0.7594 -0.7073  0.8185
   16MOL    C1311143   4.829   4.943   1.380  0.2677 -0.2383  0.0298
   16MOL    N1411144   4.858   4.821   1.305 -0.3600  0.1456  0.1491
   16MOL    H1511145   4.013   4.461   0.747  0.9629 -2.6122  0.7294
   16MOL    H1611146   4.117   4.505   0.876 -1.1568 -3.7080  0.0515
   16MOL    H1711147   4.118   4.671   0.707  1.1414  0.0231  0.8284
   16MOL    H1811148   3.948   4.691   0.719 -0.2998  0.8238  0.9933
   16MOL    H1911149   3.983   4.753   0.962  2.4328 -2.1835  1.9564
   16MOL    H2011150   4.016   4.877   0.848  1.2294  0.2315  2.1722
   16MOL    H2111151   4.241   4.722   0.979 -1.5624  1.5177  3.6941
   16MOL    H2211152   4.267   4.835   0.849  1.6636 -1.6598  1.3290
   16MOL    H2311153   4.158   4.904   1.125  1.8980  0.3687  1.0758
   16MOL    H2411154   4.154   5.011   1.004 -0.8671 -1.4510  1.0575
   16MOL    H2511155   4.406   4.974   0.975 -1.0048  0.1267  0.0636
   16MOL    H2611156   4.399   4.864   1.111 -0.9371 -0.4713  0.1469
   16MOL    H2711157   4.327   5.055   1.270  1.5500  1.6592  1.5549
   16MOL    H2811158   4.324   5.159   1.133  1.5714  1.0688  0.6183
   16MOL    H2911159   4.529   5.205   1.234 -1.5329 -0.1487 -0.7242
   16MOL    H3011160   4.571   5.105   1.099 -0.6405 -1.6422  0.0069
   16MOL    H3111161   4.604   4.896   1.232  2.3668  0.1362 -0.1480
   16MOL    H3211162   4.549   4.987   1.377  1.2398 -0.2622  0.9610
   16MOL    H3311163   4.752   5.141   1.340 -0.3367 -0.5975  0.7775
   16MOL    H3411164   4.787   5.045   1.204 -1.4835 -0.7278 -0.2001
   16MOL    H3511165   4.779   4.911   1.471  4.2164 -1.0484  2.0513
   16MOL    H3611166   4.927   4.986   1.402  0.4544 -1.0369  0.7583
   16MOL    H3711167   4.911   4.823   1.219  0.6760 -1.7054  0.7226
   16MOL    H3811168   3.926   4.454   1.018  1.3919  2.7108  0.3208
   16MOL    C3911169   4.846   4.696   1.340 -0.3916 -0.1412 -0.4593
   16MOL    O4011170   4.803   4.664   1.456 -0.1283 -0.1512  0.1274
   16MOL    C4111171   4.883   4.597   1.227 -0.5352 -0.0714 -0.0650
   16MOL    C4211172   4.790   4.466   1.210  0.0541 -0.3567  0.3867
   16MOL    C4311173   4.857   4.348   1.136  0.1737 -0.1231  0.0750
   16MOL    C4411174   4.966   4.376   1.035  0.2081  0.2751  0.7935
   16MOL    C4511175   4.911   4.431   0.901 -0.3976 -0.1579 -0.0870
   16MOL    C4611176   5.008   4.491   0.805 -0.5322  0.1602  0.0227
   16MOL    C4711177   5.099   4.389   0.734 -0.3726 -0.0231  0.6921
   16MOL    C4811178   5.155   4.435   0.600  0.3804 -0.4230  0.1888
   16MOL    C4911179   5.272   4.352   0.556  0.1799 -0.2280 -0.5089
   16MOL    C5011180   5.323   4.396   0.416  0.3105 -0.2749 -0.0302
   16MOL    C5111181   5.439   4.297   0.385 -0.4266 -0.0912  0.7348
   16MOL    N5211182   5.498   4.320   0.257 -0.3425  0.0908  0.2295
   16MOL    H5311183   4.984   4.560   1.246 -0.0990  1.3828  0.4893
   16MOL    H5411184   4.892   4.641   1.128  1.4461 -0.3258 -0.0177
   16MOL    H5511185   4.750   4.433   1.305 -0.1158 -1.3608 -0.0304
   16MOL    H5611186   4.696   4.489   1.159 -0.1785  0.2373  1.0715
   16MOL    H5711187   4.784   4.282   1.090  0.1511  0.7593 -1.1883
   16MOL    H5811188   4.896   4.281   1.213 -1.7377 -1.3941 -0.0315
   16MOL    H5911189   5.042   4.450   1.062 -1.3976  2.1052  0.4309
   16MOL    H6011190   5.026   4.288   1.010  0.9809  1.1839 -0.6529
   16MOL    H6111191   4.835   4.503   0.931 -1.0642 -0.1537 -1.7233
   16MOL    H6211192   4.846   4.354   0.858 -0.9411 -0.3987  1.1271
   16MOL    H6311193   5.072   4.567   0.849  3.1300 -1.2733 -2.5277
   16MOL    H6411194   4.948   4.540   0.728 -0.9224  2.1651  1.5709
   16MOL    H6511195   5.036   4.301   0.721  1.3015 -0.9516 -1.4463
   16MOL    H6611196   5.181   4.363   0.801  0.8600  1.8300 -0.0587
   16MOL    H6711197   5.195   4.535   0.612 -1.7422  0.4290  0.4607
   16MOL    H6811198   5.076   4.439   0.525 -0.0098 -0.8041  0.5711
   16MOL    H6911199   5.235   4.250   0.548 -0.6311 -0.1363  1.8122
   16MOL    H7011200   5.351   4.353   0.632  1.1006 -2.1565 -1.4114
   16MOL    H7111201   5.367   4.495   0.417  1.0984 -0.6155 -0.4827
   16MOL    H7211202   5.242   4.400   0.344 -0.0175 -0.4497  0.3223
   16MOL    H7311203   5.415   4.190   0.386  0.7708 -0.4526 -2.2989
   16MOL    H7411204   5.518   4.289   0.460  1.4921  0.7697 -1.1313
   16MOL    H7511205   5.477   4.264   0.175 -0.5118  0.0302  0.3143
   16MOL    C7611206   5.593   4.405   0.228 -0.4829  0.6621  0.3400
   16MOL    O7711207   5.648   4.475   0.313 -0.2664 -0.1963 -0.0783
   16MOL    C7811208   5.631   4.421   0.076 -0.0544  0.4105 -0.4155
   16MOL    C7911209   5.777   4.450   0.056 -0.3646  0.4775 -0.0114
   16MOL    C8011210   5.886   4.337   0.097  0.5528 -0.4751  0.1605
   16MOL    C8111211   6.039   4.383   0.073  0.2990  0.4480 -0.1649
   16MOL    C8211212   6.136   4.288   0.016 -0.4919  0.5085 -0.9723
   16MOL    C8311213   6.282   4.354   7.680 -0.3181  0.3233  0.0503
   16MOL    C8411214   6.301   4.381   7.533  0.2315  0.0537  0.1650
   16MOL    C8511215   6.192   4.453   7.455 -0.1266  0.2481  0.4233
   16MOL    C8611216   6.220   4.447   7.304  0.5262 -0.3177  0.6440
   16MOL    C8711217   6.111   4.500   7.210  0.0301  0.5422 -0.1268
   16MOL    C8811218   6.066   4.647   7.239 -0.3425  0.6792 -0.5486
   16MOL    N8911219   5.975   4.667   7.353 -0.4371  0.1088  0.6126
   16MOL    H9011220   5.588   4.507   0.024 -1.7669 -0.4892 -0.5258
   16MOL    H9111221   5.612   4.324   0.030  0.1257  0.9262 -1.6140
   16MOL    H9211222   5.793   4.468   7.644  0.8819 -0.2258  0.0520
   16MOL    H9311223   5.808   4.548   0.091 -0.6398 -0.3659  2.6959
   16MOL    H9411224   5.868   4.248   0.036  0.2366  1.7615 -3.1623
   16MOL    H9511225   5.888   4.296   0.197  0.0315  1.1191  0.8397
   16MOL    H9611226   6.027   4.474   0.014 -1.9452  0.2944 -0.0091
   16MOL    H9711227   6.080   4.420   0.167 -0.0511 -0.1551  0.2301
   16MOL    H9811228   6.101   4.238   7.619 -0.6986 -0.0455 -0.5921
   16MOL    H9911229   6.159   4.203   0.081 -0.3405  0.0747 -1.5911
   16MOL   H10011230   6.358   4.283   0.019  0.2609  1.2139  0.6860
   16MOL   H10111231   6.298   4.447   0.042  0.4638  1.0200 -1.2883
   16MOL   H10211232   6.307   4.282   7.488 -0.6024  0.1442 -0.1640
   16MOL   H10311233   6.389   4.442   7.516  0.4257 -0.0466  0.7987
   16MOL   H10411234   6.178   4.554   7.494  1.3408  1.0558 -1.0567
   16MOL   H10511235   6.094   4.414   7.480  0.1272  1.1360  2.9101
   16MOL   H10611236   6.227   4.344   7.271 -0.4949  0.1411 -1.0560
   16MOL   H10711237   6.315   4.497   7.284 -1.3005  2.7716 -0.7686
   16MOL   H10811238   6.021   4.441   7.193  0.1905  0.2334  0.1038
   16MOL   H10911239   6.147   4.496   7.107  1.2880  1.4707  0.2641
   16MOL   H11011240   6.002   4.670   7.154 -0.2111 -0.5128 -0.9788
   16MOL   H11111241   6.156   4.709   7.246 -0.7830  1.0700  2.8328
   16MOL   H11211242   5.883   4.627   7.344 -0.8069  1.1328 -0.3382
   16MOL   C11311243   5.998   4.757   7.448  0.4431  0.8813  0.1519
   16MOL   O11411244   6.092   4.830   7.457  0.5700  0.7687 -0.8519
   16MOL   C11511245   5.889   4.764   7.558 -0.1370  0.0524  0.5492
   16MOL   C11611246   5.872   4.903   7.628 -0.4139  1.0006 -0.9635
   16MOL   C11711247   5.785   4.894   0.063  0.9889 -0.0880 -1.0065
   16MOL   C11811248   5.638   4.848   0.038  0.0456 -0.0242  0.0965
   16MOL   C11911249   5.575   4.827   0.173  0.3525  0.4503  0.0964
   16MOL   C12011250   5.428   4.820   0.151  0.6593  0.4531  0.1779
   16MOL   C12111251   5.348   4.804   0.283 -0.4072  0.0177  0.0704
   16MOL   C12211252   5.198   4.807   0.259 -0.1735 -0.1893 -0.0545
   16MOL   C12311253   5.109   4.758   0.380 -0.4073  0.7035  0.0597
   16MOL   C12411254   4.970   4.738   0.337  0.4839  0.2572 -0.8352
   16MOL   C12511255   4.942   4.611   0.257  0.9223  0.6520 -0.5330
   16MOL   N12611256   4.803   4.587   0.237  0.6228 -0.5844 -0.4176
   16MOL   H12711257   5.911   4.696   7.640 -1.6732  0.0977  1.0110
   16MOL   H12811258   5.792   4.731   7.519 -0.3853  2.7486 -1.2693
   16MOL   H12911259   5.967   4.934   7.671 -1.1279  2.3016 -0.3069
   16MOL   H13011260   5.847   4.976   7.551  1.4119  0.2598 -2.3191
   16MOL   H13111261   5.793   4.994   0.105  2.2547 -0.6287  0.0893
   16MOL   H13211262   5.833   4.834   0.140 -0.0301  1.7197  1.0787
   16MOL   H13311263   5.586   4.921   7.669  1.3163 -0.1530 -1.1321
   16MOL   H13411264   5.620   4.751   7.684 -1.7295 -0.4919  1.6594
   16MOL   H13511265   5.602   4.905   0.245 -0.9684  0.8605  0.1635
   16MOL   H13611266   5.613   4.738   0.223  1.0470 -1.0482 -3.0173
   16MOL   H13711267   5.403   4.742   0.078 -0.6360  1.0150  0.0012
   16MOL   H13811268   5.397   4.913   0.104  3.0579 -0.1923 -2.8862
   16MOL   H13911269   5.386   4.880   0.351 -0.8010  1.9832 -1.8724
   16MOL   H14011270   5.376   4.712   0.334 -0.8591  0.2355  0.7246
   16MOL   H14111271   5.171   4.756   0.166 -0.3882 -1.6171  0.7728
   16MOL   H14211272   5.166   4.910   0.247 -1.6560 -0.5077  1.0239
   16MOL   H14311273   5.115   4.841   0.451 -1.4265  0.1556  0.7942
   16MOL   H14411274   5.145   4.665   0.424 -0.7260  0.3291 -0.4648
   16MOL   H14511275   4.952   4.827   0.276  0.3886  0.2707 -0.7873
   16MOL   H14611276   4.900   4.732   0.421  0.2803 -3.9848 -1.1984
   16MOL   H14711277   4.967   4.526   0.321 -4.3510 -1.9872 -1.7013
   16MOL   H14811278   5.012   4.607   0.174  2.3312  2.5447  0.5069
   16MOL   H14911279   4.749   4.545   0.311 -0.2021 -0.5438 -0.9903
   16MOL   C15011280   4.730   4.631   0.127  0.2185 -0.2833 -0.0210
   16MOL   O15111281   4.782   4.697   0.035 -0.0740  0.7536  0.5842
   16MOL   C15211282   4.577   4.590   0.121 -0.3028  0.5873 -0.2709
   16MOL   C15311283   4.530   4.493   0.011 -0.3285 -0.5217 -0.1575
   16MOL   C15411284   4.379   4.478   0.010 -0.1149 -0.3049  0.5414
   16MOL   C15511285   4.312   4.413   0.130  0.7672  0.5381 -0.2777
   16MOL   C15611286   4.370   4.281   0.184 -0.6064  1.0095 -0.1778
   16MOL   C15711287   4.284   4.211   0.298 -0.0708  0.1425  0.1890
   16MOL   C15811288   4.345   4.083   0.366 -0.6483 -0.2867 -0.5856
   16MOL   C15911289   4.237   4.011   0.456  0.5199  0.4232  0.0993
   16MOL   C16011290   4.301   3.909   0.550 -0.3557  0.7128 -0.1863
   16MOL   C16111291   4.197   3.822   0.632 -0.5571  0.3363  0.1054
   16MOL   C16211292   4.263   3.716   0.731  0.2187  0.1680  0.1323
   16MOL   N16311293   4.149   3.638   0.779 -0.2331  0.0480 -0.0097
   16MOL   H16411294   4.512   4.676   0.106  0.4583  1.2048 -0.0471
   16MOL   H16511295   4.552   4.537   0.213 -1.1920 -1.2545 -1.5466
   16MOL   H16611296   4.572   4.520   7.608  0.8847 -0.8758  0.2659
   16MOL   H16711297   4.573   4.394   0.024  0.2374 -0.1352  1.0214
   16MOL   H16811298   4.353   4.416   7.618 -3.3238 -0.3079  1.4627
   16MOL   H16911299   4.333   4.573   7.677  0.0031 -0.9504 -2.1588
   16MOL   H17011300   4.330   4.477   0.217  3.1088  0.3886 -0.6041
   16MOL   H17111301   4.205   4.401   0.117  1.3759 -0.6926 -5.0394
   16MOL   H17211302   4.472   4.298   0.219 -0.0648 -1.1790 -0.6070
   16MOL   H17311303   4.369   4.212   0.100  0.1596  0.9043 -0.1098
   16MOL   H17411304   4.199   4.163   0.248  0.7293 -0.9259 -0.1786
   16MOL   H17511305   4.264   4.280   0.379  0.8555 -0.8915  1.3136
   16MOL   H17611306   4.432   4.107   0.428  0.0365  0.7289 -1.9046
   16MOL   H17711307   4.380   4.019   0.285 -0.0189 -2.7223  1.5185
   16MOL   H17811308   4.157   3.969   0.396 -0.1812 -0.3754  1.5669
   16MOL   H17911309   4.182   4.087   0.511  0.3513  1.2527 -1.1982
   16MOL   H18011310   4.385   3.949   0.606  0.7315 -1.1063 -0.4885
   16MOL   H18111311   4.348   3.831   0.490  1.2419  2.1613 -0.8380
   16MOL   H18211312   4.126   3.776   0.563 -0.9466 -1.8063  1.8783
   16MOL   H18311313   4.136   3.882   0.698 -0.6160 -0.0670  0.4170
   16MOL   H18411314   4.316   3.764   0.813 -0.8911 -1.7580  2.0291
   16MOL   H18511315   4.327   3.655   0.668  0.7997  2.3870 -1.5139
   16MOL   H18611316   4.098   3.574   0.719  0.5080 -2.6747  2.1346
   16MOL   C18711317   4.103   3.646   0.907  0.3414  0.1279 -1.3267
   16MOL   O18811318   4.161   3.708   0.998 -0.0531  1.0986 -0.5217
   16MOL   C18911319   3.979   3.557   0.945 -0.4048  0.5953 -0.1622
   16MOL   C19011320   4.002   3.486   1.078 -0.5045  0.2530  0.0998
   16MOL   C19111321   4.119   3.386   1.086 -0.7344  0.3524  0.8229
   16MOL   C19211322   4.097   3.260   1.003  0.1244 -0.7108 -0.3463
   16MOL   C19311323   4.203   3.149   1.029  0.1689  0.1730 -0.9527
   16MOL   C19411324   4.347   3.177   0.982  0.0863 -0.2987 -0.5266
   16MOL   C19511325   4.444   3.062   1.009 -0.1020 -0.4293 -0.0620
   16MOL   C19611326   4.586   3.079   0.950  0.3939  0.0318  0.2123
   16MOL   C19711327   4.677   2.958   0.983 -0.2954  0.0099  0.4373
   16MOL   C19811328   4.659   2.916   1.133 -0.1444  0.3362  0.8220
   16MOL   C19911329   4.779   2.836   1.197 -0.2706 -0.2682 -0.9872
   16MOL   N20011330   4.751   2.828   1.340  0.1503  0.1106 -0.3836
   16MOL   H20111331   3.975   3.493   0.857 -0.4567  2.2055 -1.3510
   16MOL   H20211332   3.883   3.608   0.953 -1.3098 -0.8870 -1.2059
   16MOL   H20311333   4.021   3.562   1.154  0.6842 -1.0138  1.1124
   16MOL   H20411334   3.916   3.428   1.111 -1.4361  2.0927  0.9485
   16MOL   H20511335   4.131   3.357   1.191  0.8312  0.2293  0.6322
   16MOL   H20611336   4.216   3.432   1.063 -0.5082 -0.9033 -0.7760
   16MOL   H20711337   3.997   3.221   1.019  0.4242 -0.6860  1.6966
   16MOL   H20811338   4.112   3.294   0.900  1.4319  0.5257  0.2342
   16MOL   H20911339   4.151   3.065   0.982 -0.6809 -0.0192  0.2752
   16MOL   H21011340   4.207   3.151   1.138  0.0504 -1.2643 -0.9009
   16MOL   H21111341   4.378   3.261   1.044 -1.8410  0.1652 -0.1634
   16MOL   H21211342   4.357   3.202   0.876 -0.9799 -0.2310 -0.6162
   16MOL   H21311343   4.398   2.975   0.961 -0.6200 -1.2874  1.9448
   16MOL   H21411344   4.441   3.044   1.116  1.0526  0.0169  0.0488
   16MOL   H21511345   4.633   3.171   0.984 -1.8407  0.9008  1.0179
   16MOL   H21611346   4.574   3.095   0.843  0.1845  1.4178  0.4368
   16MOL   H21711347   4.781   2.972   0.954  0.7649 -1.9917  3.0418
   16MOL   H21811348   4.641   2.873   0.925 -3.5762  0.2900  1.9268
   16MOL   H21911349   4.566   2.862   1.148 -0.6234  0.6356 -0.9505
   16MOL   H22011350   4.644   3.008   1.190  1.3146  1.6248 -0.7981
   16MOL   H22111351   4.879   2.871   1.174 -1.1790  2.1917 -1.3036
   16MOL   H22211352   4.786   2.737   1.153 -0.7266 -0.2804 -1.0393
   16MOL   H22311353   4.774   2.911   1.393  0.4523  0.0822 -0.4703
   16MOL   C22411354   4.712   2.717   1.405  0.2353 -0.0933 -0.2234
   16MOL   O22511355   4.696   2.607   1.349  0.0120  0.3940  0.5605
   16MOL   C22611356   4.662   2.722   1.548 -0.1284 -0.0847  0.3340
   16MOL   C22711357   4.751   2.643   1.647 -0.2188  0.1156  0.5141
   16MOL   C22811358   4.905   2.662   1.639  0.0514 -0.0921  0.0097
   16MOL   C22911359   4.993   2.589   1.742  0.4351 -0.4472  0.2583
   16MOL   C23011360   5.137   2.575   1.709  0.0120  0.0861 -0.1281
   16MOL   C23111361   5.209   2.711   1.726 -0.1091  0.3765  0.5521
   16MOL   C23211362   5.355   2.696   1.724 -0.4474 -0.8124 -0.2555
   16MOL   C23311363   5.433   2.834   1.717  0.2051  0.5887 -0.9567
   16MOL   C23411364   5.444   2.912   1.844  0.1500  0.0131 -0.0133
   16MOL   C23511365   5.538   3.035   1.822  0.1214  0.3586 -0.0636
   16MOL   C23611366   5.553   3.120   1.950  0.3460  0.0493 -1.1763
   16MOL   N23711367   5.654   3.225   1.937  0.5675  0.4133  0.4322
   16MOL   H23811368   4.558   2.691   1.540 -1.5090  4.2098  0.4102
   16MOL   H23911369   4.656   2.826   1.580  1.0566  0.1867 -0.3012
   16MOL   H24011370   4.716   2.671   1.747 -2.6322 -2.6935  0.5221
   16MOL   H24111371   4.729   2.536   1.638  2.7803 -0.6208  1.2689
   16MOL   H24211372   4.928   2.768   1.654  0.3511 -0.2071  0.3633
   16MOL   H24311373   4.942   2.640   1.539  3.1498  1.4871  0.7610
   16MOL   H24411374   4.986   2.641   1.838 -1.2088  0.6165 -0.4220
   16MOL   H24511375   4.961   2.485   1.749 -1.3228  0.1203  1.0612
   16MOL   H24611376   5.155   2.527   1.612 -0.5726  0.0894 -0.2412
   16MOL   H24711377   5.184   2.503   1.775  1.2220  1.6271  0.7336
   16MOL   H24811378   5.178   2.776   1.808  2.9125  0.9683  1.2947
   16MOL   H24911379   5.189   2.774   1.640  3.4068 -0.4903 -0.9908
   16MOL   H25011380   5.398   2.642   1.640 -0.4095  0.4111 -1.0429
   16MOL   H25111381   5.385   2.643   1.815  0.0862 -0.6171 -0.3170
   16MOL   H25211382   5.383   2.894   1.641 -0.5510  1.0178 -0.1212
   16MOL   H25311383   5.530   2.802   1.678  0.4095 -2.4022  1.8206
   16MOL   H25411384   5.487   2.849   1.921 -1.1580  0.0745  0.7884
   16MOL   H25511385   5.352   2.948   1.890 -0.1302 -0.9168  0.1712
   16MOL   H25611386   5.494   3.098   1.744  0.4889  0.4157 -0.2236
   16MOL   H25711387   5.637   3.003   1.789  0.9202  1.8795  0.8206
   16MOL   H25811388   5.573   3.053   2.034 -2.5204 -0.5052 -0.8825
   16MOL   H25911389   5.457   3.168   1.969  1.5807  2.4309 -0.6826
   16MOL   H26011390   5.626   3.322   1.938 -0.7513  0.0463 -0.3135
   16MOL   C26111391   5.791   3.199   1.930  0.1380  0.3422  0.5086
   16MOL   O26211392   5.840   3.085   1.952  0.0588  0.6195  0.0187
   16MOL   C26311393   5.880   3.325   1.915  0.2411 -0.0801 -0.3563
   16MOL   C26411394   5.954   3.323   1.785  0.3811 -0.0099 -0.1468
   16MOL   C26511395   6.066   3.432   1.774 -0.2374 -0.0190 -0.4784
   16MOL   C26611396   6.167   3.390   1.666 -0.5929  0.3869  0.4212
   16MOL   C26711397   6.279   3.494   1.646 -0.0856 -0.0419 -0.0120
   16MOL   C26811398   6.402   3.447   1.564 -0.7940 -0.2088  0.0419
   16MOL   C26911399   6.502   3.338   1.629  0.7785 -0.4514  0.5405
   16MOL   C27011400   6.614   3.289   1.546  0.2728  0.1188  0.5788
   16MOL   C27111401   6.706   3.190   1.625  0.5728  0.1718  0.5719
   16MOL   C27211402   6.808   3.115   1.537  0.5252  0.5531  0.1894
   16MOL   C27311403   6.894   3.021   1.617  0.4850  0.4344  0.2016
   16MOL   N27411404   6.989   3.089   1.705  1.0012  0.7897 -0.1024
   16MOL   H27511405   5.941   3.340   2.004 -0.0434 -0.9337 -0.0049
   16MOL   H27611406   5.815   3.412   1.914 -0.5258 -0.6455 -0.2423
   16MOL   H27711407   6.012   3.231   1.782 -0.3115 -0.4393 -0.4961
   16MOL   H27811408   5.879   3.322   1.705  0.7830  1.1093 -0.5462
   16MOL   H27911409   6.116   3.443   1.870 -2.7405  1.6174  0.6683
   16MOL   H28011410   6.020   3.529   1.760 -2.0157 -0.7047  0.5082
   16MOL   H28111411   6.208   3.293   1.695  1.0836  0.9282 -0.0784
   16MOL   H28211412   6.117   3.375   1.570  1.9813 -1.9456 -0.6248
   16MOL   H28311413   6.323   3.522   1.741 -1.2036 -0.3785  0.6133
   16MOL   H28411414   6.253   3.575   1.577  1.2390 -1.2232 -1.9491
   16MOL   H28511415   6.459   3.535   1.535 -1.2247  0.5084  1.3363
   16MOL   H28611416   6.360   3.417   1.468  2.1556  0.3224 -1.4803
   16MOL   H28711417   6.449   3.249   1.663  2.1332 -2.0342 -1.3684
   16MOL   H28811418   6.545   3.385   1.717 -2.0931  2.4652  0.4630
   16MOL   H28911419   6.670   3.375   1.508 -1.1893  0.8855  0.1525
   16MOL   H29011420   6.581   3.220   1.469 -0.4467 -0.6047  1.5142
   16MOL   H29111421   6.646   3.110   1.668  1.1527 -0.8975 -0.5808
   16MOL   H29211422   6.762   3.240   1.704 -1.1138  1.3114  1.0918
   16MOL   H29311423   6.872   3.192   1.494 -1.4710  2.0108 -0.2457
   16MOL   H29411424   6.774   3.049   1.457  1.5834  0.6243 -0.3256
   16MOL   H29511425   6.957   2.964   1.547  0.0361 -0.5040  0.5569
   16MOL   H29611426   6.851   2.938   1.672  0.3880  1.3332  1.4841
   16MOL   H29711427   6.979   3.189   1.713 -0.3952  0.6574 -0.2335
   16MOL   C29811428   7.112   3.047   1.729  0.3482  0.3530 -0.1403
   16MOL   O29911429   7.164   2.937   1.708 -0.1816  0.4019  0.0190
   16MOL   C30011430   7.204   3.158   1.782 -0.6098  0.4682  0.3671
   16MOL   C30111431   7.268   3.136   1.921 -0.2571 -0.1827 -0.2932
   16MOL   C30211432   7.370   3.028   1.918 -0.2551 -0.0357 -0.1229
   16MOL   C30311433   7.439   3.012   2.049  0.2276 -0.2598 -0.6409
   16MOL   C30411434   7.568   2.925   2.050 -0.0760 -0.5277  0.2333
   16MOL   C30511435   7.527   2.783   2.035 -0.3506  0.6465 -0.6507
   16MOL   C30611436   7.643   2.689   2.012  0.4244  0.2576  0.6256
   16MOL   C30711437   7.604   2.547   2.041 -0.3983  0.4608  0.0761
   16MOL   C30811438   7.605   2.516   2.192  0.4862 -0.0526  0.1203
   16MOL   C30911439   7.588   2.365   2.227  0.4268  0.2236  0.1590
   16MOL   C31011440   7.594   2.333   2.374  0.3514 -0.2869 -0.4847
   16MOL   N31111441   7.604   2.186   2.391 -0.1831  0.2694  0.1075
   16MOL   H31211442   7.153   3.255   1.788  1.8324  1.8446 -0.4056
   16MOL   H31311443   7.282   3.181   1.710  0.1624  0.6558  1.2455
   16MOL   H31411444   7.305   3.231   1.961 -0.4813 -1.3688  2.8628
   16MOL   H31511445   7.198   3.108   2.000  3.5220 -1.3696  2.7934
   16MOL   H31611446   7.437   3.058   1.838 -0.0139 -0.2509 -0.0046
   16MOL   H31711447   7.328   2.931   1.893 -0.3108 -0.0213 -0.0835
   16MOL   H31811448   7.473   3.111   2.082  0.6000 -0.1957 -1.2150
   16MOL   H31911449   7.364   2.971   2.116 -1.6552  2.1121 -1.2223
   16MOL   H32011450   7.627   2.940   2.141  0.1700 -2.2670  0.3767
   16MOL   H32111451   7.627   2.958   1.965 -0.2948  3.1886  1.4381
   16MOL   H32211452   7.459   2.777   1.950 -0.5593 -1.1192 -0.3647
   16MOL   H32311453   7.473   2.750   2.123  2.0664 -0.7710  0.3700
   16MOL   H32411454   0.022   2.720   2.087  0.0422 -0.6029  1.3636
   16MOL   H32511455   7.678   2.694   1.908  0.7443 -0.0732  0.7139
   16MOL   H32611456   7.678   2.482   1.996  0.5202  1.7467 -0.3106
   16MOL   H32711457   7.507   2.520   1.998 -1.5477  1.4979  1.9314
   16MOL   H32811458   7.524   2.565   2.246  0.1000  0.1997 -0.6796
   16MOL   H32911459   0.002   2.548   2.244 -0.2113  0.7411  0.8576
   16MOL   H33011460   7.665   2.304   2.178 -0.2689 -1.1574  0.7548
   16MOL   H33111461   7.491   2.334   2.188 -0.0991  0.8203  0.9908
   16MOL   H33211462   7.516   2.385   2.431  0.2516 -0.1459 -0.7520
   16MOL   H33311463   7.678   2.374   2.431  0.5102 -1.0680 -0.1484
   16MOL   H33411464   0.002   2.148   2.375 -0.3883 -0.1261 -0.1389
   16MOL   C33511465   7.511   2.114   2.456 -0.1923 -0.0721 -0.5340
   16MOL   O33611466   7.407   2.159   2.499 -0.3697  0.4549 -0.0639
   16MOL   C33711467   7.548   1.963   2.480 -0.6517  0.4425  0.7838
   16MOL   C33811468   7.462   1.858   2.405  0.1006 -0.1934 -0.3492
   16MOL   C33911469   7.469   1.717   2.469 -1.0563 -0.7377  0.0289
   16MOL   C34011470   7.428   1.607   2.369  0.3302  1.1139 -0.4686
   16MOL   C34111471   7.401   1.477   2.438  0.5635  0.0503  0.2049
   16MOL   C34211472   7.387   1.364   2.333  0.0038  0.5342 -0.2119
   16MOL   C34311473   7.348   1.231   2.391  0.2155  0.2432  1.0806
   16MOL   C34411474   7.325   1.121   2.286 -0.1723  0.7568 -0.6641
   16MOL   C34511475   7.217   1.160   2.179  0.3515  0.0912  0.3822
   16MOL   C34611476   7.182   1.040   2.091  0.2352  0.5858  0.1807
   16MOL   C34711477   7.067   1.079   1.991 -0.2911 -0.2454  0.5160
   16MOL   N34811478   7.035   0.964   1.907 -0.4472  0.1615  0.7444
   16MOL   H34911479   7.533   1.950   2.587  1.4883 -0.5177  0.9896
   16MOL   H35011480   7.654   1.942   2.469 -0.8568  0.1112 -0.6327
   16MOL   H35111481   7.356   1.882   2.402  0.6405  2.5285  0.4638
   16MOL   H35211482   7.487   1.867   2.300  3.2011 -1.5278  0.2172
   16MOL   H35311483   7.412   1.712   2.562  1.0814 -0.7499  1.3666
   16MOL   H35411484   7.570   1.703   2.507 -1.5372  1.9436  2.4639
   16MOL   H35511485   7.337   1.643   2.320  1.7935  0.4869 -3.7328
   16MOL   H35611486   7.506   1.582   2.299 -0.1009  0.6384 -0.7802
   16MOL   H35711487   7.316   1.481   2.506 -1.1055  0.4328 -1.8725
   16MOL   H35811488   7.484   1.457   2.506  0.5548  1.7962  0.7609
   16MOL   H35911489   7.478   1.355   2.274  1.1598  2.1960  1.2570
   16MOL   H36011490   7.315   1.392   2.256  0.5603  1.1484 -0.5121
   16MOL   H36111491   7.256   1.234   2.448  0.5908  1.7467  1.6213
   16MOL   H36211492   7.418   1.198   2.468 -0.0447 -0.5789  0.9692
   16MOL   H36311493   7.284   1.033   2.336 -0.2864  0.4939 -1.2123
   16MOL   H36411494   7.414   1.090   2.232 -0.3340 -0.5308 -0.2097
   16MOL   H36511495   7.257   1.241   2.119 -1.6177  1.1662  0.4727
   16MOL   H36611496   7.127   1.196   2.229  0.2327 -1.1003  1.0595
   16MOL   H36711497   7.152   0.955   2.153  0.2231  0.4607  0.0038
   16MOL   H36811498   7.268   1.010   2.030 -0.7561 -0.7331 -0.6064
   16MOL   H36911499   7.086   1.167   1.930 -1.5485  0.1967  0.7432
   16MOL   H37011500   6.983   1.110   2.054 -0.1094  0.7420  0.2843
   16MOL   H37111501   7.004   0.879   1.951 -0.3679  0.3225  1.1101
   16MOL   C37211502   7.043   0.967   1.773  0.6411 -0.4965 -0.8347
   16MOL   O37311503   7.069   1.066   1.702 -0.0878  0.2341 -0.4923
   16MOL   C37411504   7.004   0.833   1.703 -0.3307 -0.5972 -0.4019
   16MOL   C37511505   7.122   0.723   1.705 -0.2882 -0.2528  0.3043
   16MOL   C37611506   7.263   0.764   1.654 -0.4077  0.1148 -1.1014
   16MOL   C37711507   7.349   0.815   1.768 -0.6889 -0.0162 -0.3858
   16MOL   C37811508   7.484   0.885   1.726  0.0822 -0.3029  0.2750
   16MOL   C37911509   7.578   0.906   1.839 -0.0540 -0.8139  0.1814
   16MOL   C38011510   0.025   0.955   1.791  0.1701 -0.0692 -0.8454
   16MOL   C38111511   0.009   1.089   1.723 -0.2642  0.0578  0.4586
   16MOL   C38211512   0.150   1.145   1.700  0.3190  0.3012  0.6681
   16MOL   C38311513   0.148   1.261   1.606  0.3879 -0.0277 -0.0860
   16MOL   C38411514   0.283   1.337   1.580 -0.6587 -0.1588  0.3092
   16MOL   N38511515   0.331   1.404   1.701 -0.2227 -0.1128  0.5415
   16MOL   H38611516   6.969   0.846   1.601  0.4175 -0.4942 -0.6465
   16MOL   H38711517   6.918   0.788   1.753 -2.8302  0.7986 -3.2778
   16MOL   H38811518   7.120   0.670   1.801 -3.0235  2.4936  1.8780
   16MOL   H38911519   7.094   0.652   1.627  2.1263  0.0995 -0.9101
   16MOL   H39011520   7.267   0.842   1.579  0.2678 -0.3517 -1.5490
   16MOL   H39111521   7.318   0.681   1.610 -0.6963 -0.9273  0.4418
   16MOL   H39211522   7.292   0.885   1.829 -1.2610  1.2676 -2.3558
   16MOL   H39311523   7.358   0.729   1.834  1.6715  1.5390  1.4069
   16MOL   H39411524   7.459   0.977   1.673  1.2572 -0.6885 -0.9712
   16MOL   H39511525   7.528   0.818   1.652 -0.6371 -1.4981  0.9074
   16MOL   H39611526   7.590   0.811   1.891  1.0737 -0.6285  0.2668
   16MOL   H39711527   7.539   0.976   1.912 -0.4712 -2.6108  1.7319
   16MOL   H39811528   0.048   0.869   1.727  2.5437 -0.3553  0.3651
   16MOL   H39911529   0.096   0.951   1.873 -0.5181 -2.7857 -0.3128
   16MOL   H40011530   7.646   1.168   1.772 -0.0097 -0.0611  0.9587
   16MOL   H40111531   7.647   1.071   1.632  1.2361  0.4385 -0.5475
   16MOL   H40211532   0.221   1.071   1.665  1.4647 -0.2638  4.0612
   16MOL   H40311533   0.192   1.180   1.795 -1.3187  0.8807  1.1885
   16MOL   H40411534   0.068   1.327   1.638  1.1107  1.5692 -1.5177
   16MOL   H40511535   0.110   1.229   1.509 -1.7111 -0.7595  0.9395
   16MOL   H40611536   0.265   1.413   1.504  2.1795 -0.4592 -0.7232
   16MOL   H40711537   0.363   1.270   1.546  0.3687  0.9187  0.5715
   16MOL   H40811538   0.305   1.501   1.711 -0.5910 -0.0484 -0.9848
   16MOL   C40911539   0.418   1.354   1.786 -0.3285 -0.9751 -0.7977
   16MOL   O41011540   0.440   1.233   1.801  0.1069  0.0300  0.1126
   16MOL   C41111541   0.485   1.446   1.887  0.0488  0.0232  0.5615
   16MOL   C41211542   0.632   1.467   1.871  0.0309 -0.3395  0.6274
   16MOL   C41311543   0.721   1.342   1.905  0.1023 -0.2461 -0.9965
   16MOL   C41411544   0.722   1.309   2.061  0.2342 -0.3286  0.2627
   16MOL   C41511545   0.806   1.200   2.116 -0.0751 -0.3280 -0.3791
   16MOL   C41611546   0.743   1.071   2.073 -0.3655  1.2335  0.7525
   16MOL   C41711547   0.814   0.944   2.120 -0.4527 -0.2205 -0.0504
   16MOL   C41811548   0.836   0.918   2.271  0.5545  0.2565 -0.7582
   16MOL   C41911549   0.935   0.803   2.308 -0.0102 -0.1050 -0.0639
   16MOL   C42011550   1.072   0.795   2.239  0.1330 -0.4105 -0.0380
   16MOL   C42111551   1.178   0.706   2.312 -0.2733 -0.0580 -0.7922
   16MOL   N42211552   1.307   0.724   2.253 -0.5931  0.0154 -0.3095
   16MOL   H42311553   0.466   1.425   1.992  1.3877  0.3067  0.8692
   16MOL   H42411554   0.429   1.539   1.877 -1.7521 -1.0888 -0.0399
   16MOL   H42511555   0.651   1.483   1.765 -0.4001  1.5723  0.8267
   16MOL   H42611556   0.658   1.549   1.938 -1.8368 -1.2705  2.5865
   16MOL   H42711557   0.821   1.368   1.870  0.2557  0.3932 -0.0842
   16MOL   H42811558   0.702   1.255   1.842  0.7900  0.1467 -1.7673
   16MOL   H42911559   0.762   1.397   2.111 -0.5092  0.7015 -0.9311
   16MOL   H43011560   0.623   1.298   2.107  1.0574 -1.5228  1.8255
   16MOL   H43111561   0.807   1.200   2.225  1.8806 -2.6743 -0.3566
   16MOL   H43211562   0.909   1.190   2.081  0.0131  0.0376 -0.2219
   16MOL   H43311563   0.739   1.054   1.966  1.7569 -2.0387  1.1274
   16MOL   H43411564   0.640   1.058   2.107 -0.6427 -0.9870 -0.8281
   16MOL   H43511565   0.911   0.932   2.070  0.4534 -0.3574  1.7145
   16MOL   H43611566   0.765   0.863   2.065 -2.1811  0.4944  0.4202
   16MOL   H43711567   0.738   0.904   2.317  0.0785 -0.8724 -2.1003
   16MOL   H43811568   0.872   1.009   2.320 -0.5850  0.4825 -0.3187
   16MOL   H43911569   0.877   0.712   2.302 -0.2731  0.0248  0.4623
   16MOL   H44011570   0.943   0.809   2.417 -2.1870  1.8940  0.0407
   16MOL   H44111571   1.109   0.896   2.221  2.3567 -0.9302  1.5056
   16MOL   H44211572   1.056   0.763   2.136  0.2119 -0.4879 -0.0258
   16MOL   H44311573   1.146   0.602   2.306  0.7063 -0.4649  0.6076
   16MOL   H44411574   1.184   0.711   2.421  1.4497 -1.9951 -0.7669
   16MOL   H44511575   1.329   0.684   2.163  2.3039  2.1783 -0.6450
   16MOL   C44611576   1.398   0.817   2.282  0.5446 -0.1523  0.0929
   16MOL   O44711577   1.381   0.909   2.366  0.1448 -0.0122  0.3961
   16MOL   C44811578   1.519   0.824   2.188  0.3316 -0.0525 -0.1884
   16MOL   C44911579   1.518   0.948   2.092 -0.0285  0.1167  0.4032
   16MOL   C45011580   1.436   0.926   1.960  0.1848 -0.0286 -0.1299
   16MOL   C45111581   1.446   1.048   1.871 -0.3408 -0.2046 -0.1514
   16MOL   C45211582   1.578   1.058   1.791  0.1018  0.1859  0.2840
   16MOL   C45311583   1.576   1.165   1.679 -0.6127  0.6021  0.2830
   16MOL   C45411584   1.684   1.128   1.571 -0.1134 -0.5259  0.0199
   16MOL   C45511585   1.655   1.186   1.430  0.1621 -0.1108  1.0756
   16MOL   C45611586   1.747   1.131   1.323 -0.2671 -0.1837  0.9798
   16MOL   C45711587   1.717   1.188   1.181  0.6408 -0.0625  0.3856
   16MOL   C45811588   1.845   1.213   1.097 -0.2253 -0.7919 -0.2034
   16MOL   N45911589   1.806   1.239   0.960  0.3630  0.4115  0.6727
   16MOL   H46011590   1.524   0.739   2.120 -0.1675 -0.5151  0.3430
   16MOL   H46111591   1.614   0.831   2.240  0.0539 -0.0220  0.3254
   16MOL   H46211592   1.482   1.038   2.143 -1.1968  0.1228 -0.4043
   16MOL   H46311593   1.618   0.974   2.059 -1.0491  1.0384 -2.0823
   16MOL   H46411594   1.333   0.913   1.991  0.4628 -0.9934  0.4166
   16MOL   H46511595   1.463   0.832   1.911  0.4639 -0.3430  0.6232
   16MOL   H46611596   1.375   1.034   1.789  1.5033  1.0423 -2.0054
   16MOL   H46711597   1.419   1.141   1.920 -0.0933  0.4095 -1.1714
   16MOL   H46811598   1.604   0.961   1.750 -1.1117 -0.8177  1.8471
   16MOL   H46911599   1.665   1.081   1.853  0.8802  1.5539 -1.2671
   16MOL   H47011600   1.586   1.263   1.725 -1.9884  1.0531 -0.3350
   16MOL   H47111601   1.477   1.161   1.634 -0.7895  2.6427  0.4294
   16MOL   H47211602   1.689   1.019   1.572 -0.1018 -0.5199  1.4240
   16MOL   H47311603   1.784   1.155   1.603  0.3221 -2.6859  0.5079
   16MOL   H47411604   1.667   1.294   1.428 -0.4272 -0.0130  2.1575
   16MOL   H47511605   1.550   1.174   1.403 -0.0291  3.3902 -0.0357
   16MOL   H47611606   1.743   1.022   1.323  2.6390 -0.3359  0.1812
   16MOL   H47711607   1.851   1.159   1.343  0.1600 -0.8571 -0.2271
   16MOL   H47811608   1.651   1.274   1.188 -0.5861 -1.0331  0.8573
   16MOL   H47911609   1.650   1.118   1.133  1.6455 -1.0611  0.4288
   16MOL   H48011610   1.921   1.136   1.105 -1.3865 -1.9232  0.1469
   16MOL   H48111611   1.895   1.305   1.128 -0.0905 -0.8593 -0.2236
   16MOL   H48211612   1.713   1.210   0.933 -0.3534  3.5364 -0.4882
   16MOL   C48311613   1.870   1.292   0.864  0.4131 -0.2877 -0.1744
   16MOL   O48411614   1.824   1.323   0.754 -0.8879 -0.0667  1.1237
   16MOL   C48511615   2.014   1.325   0.895 -0.2748 -0.2869  0.3355
   16MOL   C48611616   2.095   1.388   0.788 -0.1184  0.4332  0.1442
   16MOL   C48711617   2.236   1.424   0.822  0.6002 -0.2116 -0.3273
   16MOL   C48811618   2.319   1.455   0.701 -1.1095  0.0562  0.2539
   16MOL   C48911619   2.474   1.453   0.719  0.3612 -0.1247 -0.4390
   16MOL   C49011620   2.532   1.576   0.789 -0.2117  0.2361 -0.0102
   16MOL   C49111621   2.673   1.555   0.830  0.0948 -0.2090  0.8136
   16MOL   C49211622   2.698   1.514   0.974  0.4715  0.2304  0.2240
   16MOL   C49311623   2.839   1.500   1.009  0.1272 -0.4526 -0.2251
   16MOL   C49411624   2.904   1.380   0.939  0.5981  0.1537 -0.4274
   16MOL   C49511625   3.047   1.354   0.994 -0.6798  0.8436  0.4463
   16MOL   N49611626   3.116   1.238   0.922 -0.2020  0.0741 -0.1814
   16MOL   H49711627   2.068   1.240   0.937 -0.4563 -1.0954 -1.0430
   16MOL   H49811628   2.015   1.404   0.970 -0.0790 -0.3040  0.3515
   16MOL   H49911629   2.103   1.320   0.703 -0.4754  0.0601  0.4079
   16MOL   H50011630   2.039   1.476   0.755 -1.3580 -0.9669 -1.6111
   16MOL   H50111631   2.273   1.340   0.880  2.2827 -0.4933 -1.7493
   16MOL   H50211632   2.235   1.507   0.893  0.1693 -0.2624 -0.2735
   16MOL   H50311633   2.296   1.380   0.626 -0.3973 -1.2082  1.2534
   16MOL   H50411634   2.286   1.548   0.655 -0.2330  1.1099  1.7130
   16MOL   H50511635   2.509   1.449   0.615 -1.8504 -0.9635 -1.1909
   16MOL   H50611636   2.508   1.365   0.774  0.1435 -1.5127 -2.4536
   16MOL   H50711637   2.477   1.592   0.882  0.8062  1.1107  0.4537
   16MOL   H50811638   2.522   1.662   0.722 -0.0125 -0.1644 -0.5558
   16MOL   H50911639   2.720   1.653   0.822 -1.7159  0.5315 -1.0917
   16MOL   H51011640   2.717   1.483   0.762 -2.2791 -0.7920 -0.1619
   16MOL   H51111641   2.654   1.414   0.983  4.4485 -1.4927  2.0635
   16MOL   H51211642   2.646   1.580   1.042  0.6962 -1.0848  1.7070
   16MOL   H51311643   2.855   1.495   1.117 -0.7880  1.3538  0.0166
   16MOL   H51411644   2.884   1.594   0.976  0.4387 -0.5963 -0.2125
   16MOL   H51511645   2.905   1.396   0.831 -1.6754  1.5721 -0.2669
   16MOL   H51611646   2.842   1.293   0.958  0.3840  0.0780 -1.4526
   16MOL   H51711647   3.036   1.330   1.099  1.1570 -2.1447  0.0347
   16MOL   H51811648   3.111   1.442   0.996  0.0618  0.2961  0.9889
   16MOL   H51911649   3.113   1.144   0.958 -1.4093  0.2869  0.2993
   16MOL   C52011650   3.167   1.259   0.803 -0.6754 -0.4688 -0.4482
   16MOL   O52111651   3.180   1.371   0.752 -0.4390 -0.9166 -0.0904
   16MOL   C52211652   3.209   1.137   0.723 -1.0757  0.6196  0.3379
   16MOL   C52311653   3.126   1.108   0.600 -0.2848 -0.3498 -0.1708
   16MOL   C52411654   2.988   1.052   0.624 -0.2288 -0.4377  0.4182
   16MOL   C52511655   2.914   1.000   0.498  0.8593  0.3161 -0.3315
   16MOL   C52611656   2.955   0.867   0.419 -0.2531  0.7493 -0.3532
   16MOL   C52711657   2.971   0.745   0.514 -0.4246  0.3638 -0.0673
   16MOL   C52811658   3.005   0.610   0.444 -0.0139  0.2155 -1.0095
   16MOL   C52911659   3.038   0.495   0.538  0.0882 -0.2572  0.5040
   16MOL   C53011660   3.053   0.359   0.478  0.5546 -0.4528 -0.1982
   16MOL   C53111661   3.090   0.246   0.571 -0.3538  0.1496  0.1018
   16MOL   C53211662   3.088   0.112   0.491  0.0732 -0.1245  0.2313
   16MOL   N53311663   3.150   0.002   0.566 -0.2877 -0.5510 -1.1299
   16MOL   H53411664   3.222   1.050   0.788 -2.5612  0.9277  1.0633
   16MOL   H53511665   3.312   1.159   0.694 -0.7833  1.3242  1.8790
   16MOL   H53611666   3.119   1.190   0.528 -0.7361  0.8354  1.1919
   16MOL   H53711667   3.185   1.041   0.538  0.4714  1.0061 -0.9278
   16MOL   H53811668   2.920   1.128   0.664  0.5968  0.2366  0.5496
   16MOL   H53911669   2.986   0.964   0.688 -3.1937 -1.0489 -0.4420
   16MOL   H54011670   2.811   0.990   0.532  0.5929 -0.3536 -1.3178
   16MOL   H54111671   2.896   1.078   0.423  2.5868  0.7834 -0.2711
   16MOL   H54211672   3.054   0.881   0.376  0.0641 -0.3406  0.0117
   16MOL   H54311673   2.891   0.834   0.337  1.8199 -0.6277 -1.4595
   16MOL   H54411674   2.872   0.742   0.559 -0.6257  1.2158 -0.4446
   16MOL   H54511675   3.036   0.779   0.595 -1.1613  0.9058  0.3019
   16MOL   H54611676   3.094   0.617   0.381  1.7970  0.9430  1.5746
   16MOL   H54711677   2.926   0.573   0.378 -1.4944  0.1478  0.7590
   16MOL   H54811678   2.962   0.487   0.616 -1.3140  1.1143 -0.6640
   16MOL   H54911679   3.130   0.532   0.582  1.0438 -1.2071 -0.6823
   16MOL   H55011680   3.135   0.359   0.406  2.4880  1.7243  1.9137
   16MOL   H55111681   2.960   0.323   0.434 -1.0332  0.3981  2.3826
   16MOL   H55211682   3.014   0.240   0.649 -0.3835  0.0098  0.0622
   16MOL   H55311683   3.186   0.261   0.621 -0.4430  0.2074  0.2550
   16MOL   H55411684   3.128   0.129   0.392 -1.4515  0.8267 -0.2337
   16MOL   H55511685   2.983   0.086   0.480  0.4788 -0.5204 -3.0529
   16MOL   H55611686   3.082   7.652   0.627  0.7728 -2.2261 -1.1008
   16MOL   C55711687   3.280   7.654   0.560 -0.1537  0.3188  0.0500
   16MOL   O55811688   3.356   7.693   0.470  0.1895 -0.7155  0.4912
   16MOL   C55911689   3.338   7.555   0.664 -0.7676  0.5505 -0.6970
   16MOL   C56011690   3.407   7.624   0.783  0.2653 -0.5376  0.3465
   16MOL   C56111691   3.334   7.686   0.897 -0.0172 -0.5015  0.5469
   16MOL   C56211692   3.246   7.590   0.981 -0.0343  0.3506  0.6452
   16MOL   C56311693   3.205   7.653   1.110  0.3865 -0.1803 -0.8374
   16MOL   C56411694   3.096   7.572   1.176  0.1611  0.5783 -0.1886
   16MOL   C56511695   3.121   7.432   1.229  0.8915  0.6920 -0.7446
   16MOL   C56611696   3.000   7.356   1.294 -0.9667  0.2270 -0.1950
   16MOL   C56711697   2.881   7.310   1.209 -0.4199 -0.0821  0.2135
   16MOL   C56811698   2.905   7.191   1.114  0.1072  0.7398  0.9890
   16MOL   C56911699   2.781   7.149   1.047 -0.0522  0.6583 -0.2005
   16MOL   N57011700   2.811   7.044   0.951 -1.1436  0.1690  0.0306
   16MOL   H57111701   3.410   7.492   0.612  1.3437  1.2819  1.2567
   16MOL   H57211702   3.251   7.496   0.696  0.1519 -1.0695 -1.0912
   16MOL   H57311703   3.475   7.551   0.826  3.5285  0.6594 -2.5157
   16MOL   H57411704   3.476   0.004   0.742 -0.8418  1.0586  1.2876
   16MOL   H57511705   3.264   0.070   0.866  1.8034  1.1073  0.3571
   16MOL   H57611706   3.405   0.053   0.953  0.9298 -0.0315 -1.1249
   16MOL   H57711707   3.163   7.550   0.922 -1.0456 -1.1004  2.9275
   16MOL   H57811708   3.301   7.501   1.012  0.3684  0.3753 -0.0028
   16MOL   H57911709   3.169   0.061   1.094 -0.4587 -0.1139  1.2802
   16MOL   H58011710   3.288   7.647   1.181  0.8967 -1.0234 -1.5014
   16MOL   H58111711   3.008   7.577   1.111 -1.0633  0.4455  1.4307
   16MOL   H58211712   3.049   7.620   1.262  0.7040 -0.9801  0.9748
   16MOL   H58311713   3.205   7.427   1.298  2.2892  0.6234 -2.4211
   16MOL   H58411714   3.149   7.372   1.142  0.3681  1.4709 -1.4575
   16MOL   H58511715   2.963   7.418   1.376  0.8428 -2.1232  2.4722
   16MOL   H58611716   3.042   7.265   1.336 -1.9316 -0.4228 -0.6210
   16MOL   H58711717   2.848   7.390   1.143  2.0642 -0.1993 -1.2161
   16MOL   H58811718   2.807   7.279   1.283 -0.5743  0.7810  0.4249
   16MOL   H58911719   2.949   7.108   1.168 -2.0810 -0.3095  1.2370
   16MOL   H59011720   2.975   7.214   1.033 -1.3217 -2.4627 -1.2849
   16MOL   H59111721   2.737   7.240   1.005 -2.9003 -0.8635 -0.6491
   16MOL   H59211722   2.708   7.110   1.119  0.4356  1.6680  0.8501
   16MOL   H59311723   2.866   6.964   0.982 -0.8590  0.0081 -0.8776
   16MOL   C59411724   2.772   7.051   0.822 -0.4702 -0.1150  0.8133
   16MOL   O59511725   2.715   7.149   0.772 -0.4573 -0.7067 -0.1874
   16MOL   C59611726   2.817   6.945   0.729 -0.0449  0.9519  0.9532
   16MOL   C59711727   2.701   6.915   0.629  0.4133 -0.1054 -0.1425
   16MOL   C59811728   2.579   6.864   0.692  0.2611 -0.0706 -0.3230
   16MOL   C59911729   2.481   6.793   0.602 -0.1576 -0.2121 -0.5933
   16MOL   C60011730   2.418   6.875   0.484 -0.7915 -0.0031  0.4021
   16MOL   C60111731   2.382   7.015   0.527 -0.2437 -0.5524  0.4420
   16MOL   C60211732   2.260   7.013   0.626 -0.3377  1.0669 -0.5975
   16MOL   C60311733   2.223   7.151   0.672 -0.2868 -1.1359 -0.4726
   16MOL   C60411734   2.327   7.221   0.760  0.4480 -0.6526 -0.2039
   16MOL   C60511735   2.331   7.159   0.893 -0.3686 -0.0289  0.3161
   16MOL   C60611736   2.390   7.251   1.005  0.2585 -0.4596  0.0988
   16MOL   N60711737   2.373   7.188   1.136 -0.5987 -0.0254 -0.1542
   16MOL   H60811738   2.842   6.855   0.786 -0.9415 -0.2253 -0.4706
   16MOL   H60911739   2.910   6.974   0.681 -0.5005 -1.4649 -1.5431
   16MOL   H61011740   2.695   7.005   0.568  2.4823 -0.9712 -1.6942
   16MOL   H61111741   2.739   6.847   0.552  0.3387 -0.0598 -0.2195
   16MOL   H61211742   2.531   6.942   0.752 -0.4773 -1.3825  0.8363
   16MOL   H61311743   2.599   6.791   0.771  1.3610 -0.6427 -1.1165
   16MOL   H61411744   2.551   6.720   0.561  0.5819  0.7975 -1.1531
   16MOL   H61511745   2.397   6.744   0.651 -1.4004 -0.4280 -2.8548
   16MOL   H61611746   2.335   6.811   0.455  0.0996 -0.8691 -0.2827
   16MOL   H61711747   2.487   6.886   0.400 -0.5873 -0.8882  0.4424
   16MOL   H61811748   2.355   7.060   0.432 -0.0201  0.3095  0.7803
   16MOL   H61911749   2.467   7.065   0.574  0.8426 -0.6506 -1.3727
   16MOL   H62011750   2.285   6.945   0.707  2.0057  0.3528 -1.9054
   16MOL   H62111751   2.174   6.972   0.571  0.5215 -0.3884 -0.8728
   16MOL   H62211752   2.123   7.143   0.716  0.1679  0.2523  0.8534
   16MOL   H62311753   2.214   7.203   0.577  0.4599 -1.4694 -0.7234
   16MOL   H62411754   2.299   7.326   0.769  0.4704 -0.5617 -1.1201
   16MOL   H62511755   2.426   7.231   0.715  0.1774 -0.0134 -0.6572
   16MOL   H62611756   2.379   7.061   0.900  0.2883  0.2775  0.1221
   16MOL   H62711757   2.228   7.136   0.923 -0.4416 -2.2085 -1.4822
   16MOL   H62811758   2.342   7.348   1.013  3.2370  0.9799  1.4246
   16MOL   H62911759   2.493   7.279   0.987  0.5365 -1.4560  0.0777
   16MOL   H63011760   2.318   7.103   1.146 -0.3773  0.1007  2.4544
   16MOL   C63111761   2.443   7.230   1.244 -0.3455 -0.0989 -0.0976
   16MOL   O63211762   2.517   7.329   1.246  0.0658  1.1391  0.5867
   16MOL   C63311763   2.416   7.154   1.373 -0.2732 -0.1022 -0.0448
   16MOL   C63411764   2.398   7.251   1.493  0.2862 -0.4673  0.2785
   16MOL   C63511765   2.395   7.180   1.624 -0.1238 -0.0984  0.4413
   16MOL   C63611766   2.252   7.131   1.662  1.0162 -0.2701  0.3573
   16MOL   C63711767   2.246   7.040   1.787 -0.3014  0.0879  0.0376
   16MOL   C63811768   2.113   7.027   1.859 -0.0101  0.6671  0.5689
   16MOL   C63911769   2.001   6.962   1.772  0.2809 -0.2544 -0.2642
   16MOL   C64011770   1.862   6.936   1.832 -0.2251 -0.1922  0.1710
   16MOL   C64111771   1.774   6.852   1.745 -0.3055 -0.1157  0.1082
   16MOL   C64211772   1.641   6.826   1.819 -0.5683  0.6370  0.2714
   16MOL   C64311773   1.556   6.724   1.743  1.2592 -0.0396 -0.6285
   16MOL   N64411774   1.422   6.716   1.801 -0.2645 -0.1908 -0.2887
   16MOL   H64511775   2.496   7.082   1.390  1.4465  1.2486 -2.0774
   16MOL   H64611776   2.329   7.089   1.369 -0.5411  0.2380  0.1814
   16MOL   H64711777   2.484   7.318   1.496 -1.1536  1.3618  1.0232
   16MOL   H64811778   2.306   7.302   1.469  1.6073  2.1378  0.6008
   16MOL   H64911779   2.417   7.243   1.711  1.2150  0.7440 -0.4847
   16MOL   H65011780   2.460   7.093   1.613 -1.4923 -1.1271  0.4091
   16MOL   H65111781   2.198   7.224   1.675  1.0644 -0.0660 -0.8019
   16MOL   H65211782   2.198   7.073   1.586 -0.5016 -1.6452  2.4285
   16MOL   H65311783   2.319   7.075   1.859  0.6927  0.7831 -1.2804
   16MOL   H65411784   2.285   6.942   1.761 -0.8413  0.0861 -0.8048
   16MOL   H65511785   2.076   7.122   1.900  0.2424  2.0829 -2.4053
   16MOL   H65611786   2.118   6.958   1.944  2.1601  0.1722  0.0663
   16MOL   H65711787   2.051   6.868   1.751 -1.4062 -1.8490  2.5755
   16MOL   H65811788   1.984   7.020   1.681 -2.8931  1.1026  1.1097
   16MOL   H65911789   1.821   7.036   1.845 -1.5498 -0.5486 -1.1548
   16MOL   H66011790   1.868   6.893   1.932  1.4262  0.9541  0.5954
   16MOL   H66111791   1.805   6.750   1.721  1.0788  0.1478  0.7327
   16MOL   H66211792   1.750   6.897   1.648 -1.4667 -1.5834 -0.3094
   16MOL   H66311793   1.581   6.917   1.815 -0.2591  0.8192 -0.4460
   16MOL   H66411794   1.662   6.784   1.917  2.6643 -3.5396 -2.0751
   16MOL   H66511795   1.604   6.627   1.749 -0.3621 -0.8439 -0.2778
   16MOL   H66611796   1.545   6.751   1.638  1.5311 -1.3030 -0.9808
   16MOL   H66711797   1.354   6.769   1.747  0.9320  0.1619 -1.4778
   16MOL   C66811798   1.375   6.642   1.903 -0.0264  0.2830 -0.9907
   16MOL   O66911799   1.455   6.569   1.966  0.3576  0.3917  0.4540
   16MOL   C67011800   1.222   6.640   1.922 -0.9320 -0.3582  0.5753
   16MOL   C67111801   1.177   6.565   2.051  0.3805  0.6306  0.1891
   16MOL   C67211802   1.026   6.557   2.067  0.4626  0.4850  0.3687
   16MOL   C67311803   0.957   6.695   2.093 -0.4805  0.0103 -0.6463
   16MOL   C67411804   0.806   6.676   2.128 -0.6099  0.4982  0.6857
   16MOL   C67511805   0.732   6.797   2.106  0.5058 -0.2227  0.5430
   16MOL   C67611806   0.757   6.889   2.219  0.7631  0.7593  0.4344
   16MOL   C67711807   0.667   7.007   2.230  0.1860 -0.9659 -0.5973
   16MOL   C67811808   0.689   7.099   2.359  0.4395  0.4690 -0.2752
   16MOL   C67911809   0.633   7.041   2.491  0.1756  0.3309 -0.5432
   16MOL   C68011810   0.745   7.005   2.591 -0.4278 -0.5100 -0.1360
   16MOL   N68111811   0.705   6.955   2.720 -0.2478 -0.1265  0.1208
   16MOL   H68211812   1.183   6.591   1.833  1.0030  2.2684 -1.8122
   16MOL   H68311813   1.172   6.736   1.924 -0.0811  0.0845  2.4458
   16MOL   H68411814   1.205   6.460   2.052 -0.4897  0.3931  0.7876
   16MOL   H68511815   1.218   6.615   2.138  0.9783  1.0808 -0.3500
   16MOL   H68611816   0.995   6.493   2.150 -2.8022  1.7065  0.1478
   16MOL   H68711817   0.976   6.517   1.979 -1.6846  1.3822  1.1492
   16MOL   H68811818   1.017   6.742   2.171 -1.1447 -0.6890  0.3003
   16MOL   H68911819   0.966   6.763   2.009 -0.9426  1.3935  0.4123
   16MOL   H69011820   0.792   6.645   2.231  2.5605  1.2323  1.3889
   16MOL   H69111821   0.765   6.603   2.058  2.1438 -0.8914  0.4721
   16MOL   H69211822   0.625   6.783   2.093  0.6095  0.1883 -0.7471
   16MOL   H69311823   0.760   6.850   2.015 -1.0597 -2.1680 -1.1196
   16MOL   H69411824   0.862   6.918   2.215  0.4829  2.1461  2.5113
   16MOL   H69511825   0.746   6.835   2.313 -1.9719  0.9129  0.2318
   16MOL   H69611826   0.563   6.974   2.222  0.3453 -1.7699  0.4390
   16MOL   H69711827   0.697   7.069   2.147 -2.2611  1.7916  0.4878
   16MOL   H69811828   0.635   7.192   2.340 -0.0337  0.0594 -0.9552
   16MOL   H69911829   0.793   7.133   2.371  0.4241  1.1538 -1.9306
   16MOL   H70011830   0.575   6.951   2.469 -0.0230  0.6578 -1.3844
   16MOL   H70111831   0.569   7.115   2.538 -0.8689 -0.8926 -0.0021
   16MOL   H70211832   0.788   7.104   2.607  2.6010 -1.8619  0.4352
   16MOL   H70311833   0.830   6.962   2.539 -0.2782 -0.3793 -0.0016
   16MOL   H70411834   0.687   7.020   2.795 -1.4748 -0.2396 -0.0539
   16MOL   C70511835   0.668   6.832   2.745 -0.1222  0.9205 -0.4642
   16MOL   O70611836   0.678   6.750   2.659  0.5324  0.2695  0.4082
   16MOL   C70711837   0.601   6.789   2.883  0.0386 -0.0090 -0.0785
   16MOL   C70811838   0.618   6.642   2.930  0.5454  0.0868 -0.2226
   16MOL   C70911839   0.523   6.600   3.048  0.0131 -0.4071  0.0418
   16MOL   C71011840   0.548   6.676   3.174  0.1057 -0.5827 -0.1861
   16MOL   C71111841   0.480   6.599   3.296  0.3636  0.2044 -0.3556
   16MOL   C71211842   0.522   6.678   3.422 -0.6960  0.2789  0.6086
   16MOL   C71311843   0.484   6.619   3.557  0.1957  1.1249  0.3986
   16MOL   C71411844   0.546   6.695   3.673  0.7358 -0.2009 -0.5393
   16MOL   C71511845   0.521   6.606   3.800 -0.8778 -0.7079 -0.0409
   16MOL   C71611846   0.540   6.706   3.915 -0.1477 -0.0604 -0.4626
   16MOL   C71711847   0.518   6.648   4.058  0.2445  0.4787 -0.0947
   16MOL   N71811848   0.382   6.636   4.093 -0.5934  0.6583  0.9076
   16MOL   H71911849   0.500   6.829   2.888  0.7265  1.5905  1.4173
   16MOL   H72011850   0.645   6.847   2.964  0.4878 -3.3822  2.1505
   16MOL   H72111851   0.611   6.582   2.839  0.5117 -0.6254  0.2478
   16MOL   H72211852   0.721   6.630   2.963  0.6791  0.4370 -0.5112
   16MOL   H72311853   0.533   6.492   3.051 -0.4120 -0.5779 -2.9315
   16MOL   H72411854   0.415   6.601   3.034  0.1774 -1.9378 -1.3740
   16MOL   H72511855   0.655   6.693   3.192 -0.0463  0.5698 -0.3650
   16MOL   H72611856   0.501   6.774   3.167  0.5189 -0.2754  1.1898
   16MOL   H72711857   0.521   6.499   3.311 -0.3298 -0.0626 -0.2495
   16MOL   H72811858   0.372   6.588   3.292  0.3037  0.2766  0.8521
   16MOL   H72911859   0.468   6.772   3.415 -0.0548  0.8585  3.0948
   16MOL   H73011860   0.624   6.718   3.419 -1.4197  2.0506 -2.5942
   16MOL   H73111861   0.503   6.512   3.550  1.3629  1.1242  3.0035
   16MOL   H73211862   0.376   6.616   3.573  0.2363  0.5575  0.5416
   16MOL   H73311863   0.503   6.795   3.678  1.0911 -0.0684  0.0075
   16MOL   H73411864   0.651   6.721   3.658  0.8873 -0.5565 -0.0981
   16MOL   H73511865   0.588   6.521   3.807  0.8865  0.5299 -1.4826
   16MOL   H73611866   0.416   6.578   3.801 -1.0432 -0.0929 -0.1724
   16MOL   H73711867   0.485   6.799   3.904 -0.8858 -0.4827 -0.3961
   16MOL   H73811868   0.645   6.733   3.922 -0.0181 -0.7852  0.6658
   16MOL   H73911869   0.561   6.722   4.126 -0.1443  0.9147 -0.3227
   16MOL   H74011870   0.565   6.552   4.079  0.7942  1.0129  1.1298
   16MOL   H74111871   0.323   6.706   4.049 -0.1967  0.9922  0.8999
   16MOL   H74211872   0.369   6.643   4.193 -0.1603  0.8009  0.9568
   17MOL     C111873   2.682   6.233   7.514  0.3570 -0.5555  0.7246
   17MOL     O211874   2.613   6.334   7.507 -0.0916  0.6772 -0.2796
   17MOL     C311875   2.769   6.210   7.640 -0.1806  0.6362  0.5801
   17MOL     C411876   2.890   6.115   7.611 -0.6052 -0.6416 -0.1046
   17MOL     C511877   2.956   6.061   0.046 -0.7278 -0.1334  0.6399
   17MOL     C611878   3.001   6.166   0.153  0.1621  0.5725 -0.4121
   17MOL     C711879   3.102   6.111   0.255 -0.0747  0.2755 -0.0906
   17MOL     C811880   3.185   6.207   0.345  0.5558  0.3396  0.7225
   17MOL     C911881   3.295   6.275   0.264 -1.1015 -0.3308  0.4755
   17MOL    C1011882   3.384   6.388   0.333  0.6367  0.0559  0.5617
   17MOL    C1111883   3.508   6.335   0.408 -0.0519  0.0881  0.5612
   17MOL    C1211884   3.601   6.440   0.466  0.4414 -0.0650 -0.1775
   17MOL    C1311885   3.531   6.532   0.575 -0.3642  0.1180  0.1749
   17MOL    N1411886   3.615   6.627   0.641  0.4850  0.4153 -0.0932
   17MOL    H1511887   2.703   6.161   0.017  0.9635 -0.8233  0.6572
   17MOL    H1611888   2.804   6.304   7.684 -0.5656  1.7067 -1.3160
   17MOL    H1711889   2.869   6.029   7.549  1.5898 -0.6471 -0.8622
   17MOL    H1811890   2.961   6.171   7.551 -1.3003 -1.1426 -1.4237
   17MOL    H1911891   3.050   6.012   0.020  1.0531  2.7904  1.3675
   17MOL    H2011892   2.891   5.989   0.096  0.7778 -1.6986  0.3980
   17MOL    H2111893   3.060   6.235   0.093 -0.7247  1.7760  0.0931
   17MOL    H2211894   2.925   6.231   0.197  2.2509  0.4002  3.6985
   17MOL    H2311895   3.171   6.040   0.209 -0.0364  0.2377  0.0258
   17MOL    H2411896   3.043   6.051   0.324  2.9776 -0.3103  2.0937
   17MOL    H2511897   3.231   6.142   0.420 -1.0210 -0.2604  1.1884
   17MOL    H2611898   3.111   6.278   0.381  0.7685 -0.1146  2.0963
   17MOL    H2711899   3.257   6.328   0.176 -0.4132 -0.5786  0.0221
   17MOL    H2811900   3.352   6.188   0.232  0.8680  0.1875  2.4606
   17MOL    H2911901   3.324   6.464   0.383 -1.4261 -0.5376 -0.9459
   17MOL    H3011902   3.415   6.467   0.265 -1.8304  1.3684  0.9154
   17MOL    H3111903   3.564   6.279   0.333 -0.6673  1.7281 -1.1609
   17MOL    H3211904   3.477   6.270   0.489  1.0991 -0.3606  0.6466
   17MOL    H3311905   3.636   6.497   0.380 -1.9833  1.1979 -0.3647
   17MOL    H3411906   3.681   6.382   0.512  1.1112  1.3287  0.4499
   17MOL    H3511907   3.473   6.481   0.652 -0.5960 -1.1834 -0.8417
   17MOL    H3611908   3.455   6.597   0.530 -0.9006 -0.2815  0.5003
   17MOL    H3711909   3.715   6.611   0.636  0.2093 -1.1747 -0.8756
   17MOL    H3811910   2.703   6.163   7.433  2.0450  0.8197 -0.0815
   17MOL    C3911911   3.572   6.729   0.717  0.2256 -1.0222 -0.2857
   17MOL    O4011912   3.452   6.755   0.727 -0.5961  0.3117  0.3343
   17MOL    C4111913   3.668   6.827   0.797 -0.2886  0.2703 -0.0930
   17MOL    C4211914   3.632   6.855   0.938 -0.0376  0.1110 -0.1248
   17MOL    C4311915   3.636   6.747   1.047  0.0297  0.2980 -0.5524
   17MOL    C4411916   3.506   6.661   1.061 -0.5576  0.1093  0.0375
   17MOL    C4511917   3.508   6.578   1.188  0.7492 -0.1470  0.7757
   17MOL    C4611918   3.390   6.483   1.202  0.4880 -0.0988 -0.4870
   17MOL    C4711919   3.378   6.386   1.320 -0.5041  0.8138  0.2463
   17MOL    C4811920   3.252   6.293   1.313  0.0063 -0.7397  0.1315
   17MOL    C4911921   3.235   6.198   1.429 -0.8636 -0.1922 -0.2144
   17MOL    C5011922   3.116   6.106   1.395 -0.4852  0.2306 -0.3623
   17MOL    C5111923   2.986   6.154   1.463 -0.2425  0.1420  0.2311
   17MOL    N5211924   2.874   6.071   1.426  0.5500  0.0372 -0.0403
   17MOL    H5311925   3.675   6.918   0.738  3.3568  1.6932  2.3528
   17MOL    H5411926   3.769   6.787   0.795 -0.4688 -0.1792 -0.2742
   17MOL    H5511927   3.705   6.929   0.971 -0.0307  0.1654 -0.2624
   17MOL    H5611928   3.536   6.903   0.957 -0.1736  0.3839 -1.4701
   17MOL    H5711929   3.658   6.806   1.136 -1.8778  0.8340 -0.4215
   17MOL    H5811930   3.722   6.680   1.039 -0.2698 -0.3156  1.0879
   17MOL    H5911931   3.419   6.727   1.060  0.9683  2.1474 -1.4927
   17MOL    H6011932   3.496   6.600   0.972  3.4656 -0.4320 -0.1025
   17MOL    H6111933   3.508   6.645   1.274 -0.5344  0.6589  0.1490
   17MOL    H6211934   3.601   6.521   1.193 -0.0361 -1.4896  0.2687
   17MOL    H6311935   3.365   6.421   1.116 -0.1153 -1.2500  0.4942
   17MOL    H6411936   3.302   6.548   1.206  0.3392 -0.3820  1.8737
   17MOL    H6511937   3.393   6.434   1.417  0.6250  2.9206 -0.9221
   17MOL    H6611938   3.467   6.323   1.322 -0.6710  0.6249  2.6589
   17MOL    H6711939   3.244   6.246   1.216  2.3308 -2.6790  0.8149
   17MOL    H6811940   3.160   6.351   1.312 -1.0625 -2.4607 -1.0485
   17MOL    H6911941   3.217   6.252   1.522  0.4100  0.5056 -0.3704
   17MOL    H7011942   3.319   6.131   1.447 -0.3099  0.8428  1.0659
   17MOL    H7111943   3.130   6.014   1.452 -1.1398  1.5918  2.0448
   17MOL    H7211944   3.102   6.081   1.289  2.4635 -0.2239 -0.6774
   17MOL    H7311945   2.964   6.259   1.446 -1.0216  0.5620  3.5368
   17MOL    H7411946   2.999   6.146   1.571 -0.1157 -0.6026  0.1645
   17MOL    H7511947   2.820   6.094   1.344 -1.2742 -2.1369  0.5089
   17MOL    C7611948   2.855   5.949   1.470 -0.3872 -0.1127 -0.6250
   17MOL    O7711949   2.917   5.900   1.566  0.8289 -0.1065 -0.2599
   17MOL    C7811950   2.760   5.864   1.388  0.6848  0.1419  0.1721
   17MOL    C7911951   2.699   5.750   1.474  0.0455  0.4088  0.8314
   17MOL    C8011952   2.788   5.623   1.495  0.2726 -0.5371  0.2418
   17MOL    C8111953   2.764   5.548   1.626 -0.1079 -0.6049 -0.0024
   17MOL    C8211954   2.843   5.600   1.745 -0.6949  0.2371  0.2461
   17MOL    C8311955   2.840   5.500   1.865 -0.6124 -0.5397  0.1690
   17MOL    C8411956   2.877   5.575   1.998  0.0131 -0.2747 -0.3645
   17MOL    C8511957   2.872   5.507   2.141  0.4226  0.3469  0.4316
   17MOL    C8611958   2.917   5.604   2.249 -0.1681 -0.2596  0.0369
   17MOL    C8711959   2.922   5.542   2.389 -0.8099  0.3405  0.1007
   17MOL    C8811960   2.946   5.657   2.496  0.0346 -0.3568 -0.3492
   17MOL    N8911961   2.813   5.726   2.519 -0.9299  0.7441  0.2742
   17MOL    H9011962   2.795   5.817   1.296 -1.5209 -3.3848  1.0363
   17MOL    H9111963   2.675   5.922   1.352  0.7407  0.9049  1.2305
   17MOL    H9211964   2.673   5.791   1.572  0.9597  0.8074  0.9100
   17MOL    H9311965   2.601   5.725   1.432  1.0530  1.4028 -2.3161
   17MOL    H9411966   2.895   5.640   1.486  0.3818 -1.1713  0.2904
   17MOL    H9511967   2.774   5.557   1.409  0.3520  1.4127 -1.2952
   17MOL    H9611968   2.657   5.545   1.647  0.2488 -2.6781  1.6833
   17MOL    H9711969   2.802   5.448   1.604 -0.6184 -0.7623 -0.1873
   17MOL    H9811970   2.790   5.692   1.771 -0.8877 -0.2098  1.4773
   17MOL    H9911971   2.947   5.617   1.718  0.3822 -2.8650  2.1992
   17MOL   H10011972   2.909   5.417   1.847 -1.1489 -1.3930  1.8951
   17MOL   H10111973   2.741   5.457   1.878 -1.1263  1.0989  1.7331
   17MOL   H10211974   2.812   5.661   2.011 -1.1864 -0.8840 -2.1455
   17MOL   H10311975   2.977   5.614   1.980 -0.4148  1.1185  0.2165
   17MOL   H10411976   2.932   5.417   2.157 -1.4574 -0.8530  0.7700
   17MOL   H10511977   2.769   5.478   2.162  0.5185 -0.6433 -0.3721
   17MOL   H10611978   2.834   5.674   2.247  1.4491  1.7202  0.9195
   17MOL   H10711979   3.014   5.646   2.225  1.3795 -1.9263  3.1324
   17MOL   H10811980   3.018   5.491   2.403  0.2341  1.6013 -2.1238
   17MOL   H10911981   2.845   5.469   2.412  0.2545 -1.0382 -0.6204
   17MOL   H11011982   3.019   5.732   2.468 -0.0056 -0.5285 -0.9113
   17MOL   H11111983   2.979   5.620   2.593  0.6577 -1.1547 -0.8554
   17MOL   H11211984   2.768   5.775   2.443  0.5258  0.8861 -0.5247
   17MOL   C11311985   2.751   5.721   2.637 -0.1807  0.8259 -0.3648
   17MOL   O11411986   2.786   5.653   2.729  0.1278  0.1736 -0.4983
   17MOL   C11511987   2.621   5.804   2.641  0.4912 -0.2187  0.2030
   17MOL   C11611988   2.555   5.814   2.784 -0.9071  0.0600  0.0578
   17MOL   C11711989   2.624   5.920   2.869  0.9217 -0.4605  0.0815
   17MOL   C11811990   2.556   5.935   3.006  0.2367 -0.6778  0.6266
   17MOL   C11911991   2.658   6.015   3.095  0.0180  0.4126  0.0839
   17MOL   C12011992   2.599   6.027   3.234 -0.1335  0.3541 -0.9273
   17MOL   C12111993   2.670   6.131   3.317 -0.0078  0.0512  0.0729
   17MOL   C12211994   2.815   6.109   3.351  0.0839 -0.7510 -0.2120
   17MOL   C12311995   2.833   5.996   3.445  0.2212  0.3708 -0.4959
   17MOL   C12411996   2.973   5.957   3.486  0.3049 -0.1981 -0.3101
   17MOL   C12511997   2.975   5.869   3.611  0.3423  0.5142  0.0530
   17MOL   N12611998   3.113   5.838   3.647 -0.6115 -0.2816 -0.5777
   17MOL   H12711999   2.549   5.762   2.570 -1.1756 -0.2344  1.8757
   17MOL   H12812000   2.649   5.907   2.617 -2.3521  1.0299  2.0320
   17MOL   H12912001   2.451   5.831   2.757 -0.7525 -0.7072 -1.0645
   17MOL   H13012002   2.553   5.721   2.840  0.7606 -0.5017 -0.7937
   17MOL   H13112003   2.623   6.021   2.829  1.6634 -0.1588  0.8059
   17MOL   H13212004   2.727   5.887   2.883 -0.2727 -3.4705  2.2696
   17MOL   H13312005   2.477   6.008   2.990  1.4519  0.6631  0.6890
   17MOL   H13412006   2.516   5.842   3.048 -1.7009 -0.4831 -0.7342
   17MOL   H13512007   2.656   6.118   3.061  0.0658 -0.5129 -2.8085
   17MOL   H13612008   2.760   5.979   3.089  0.0458  0.7903 -1.7739
   17MOL   H13712009   2.592   5.930   3.283 -0.0573 -0.7095 -2.9403
   17MOL   H13812010   2.494   6.057   3.226  0.0907  1.1984 -0.6198
   17MOL   H13912011   2.612   6.127   3.410 -2.4168 -1.6880 -1.4340
   17MOL   H14012012   2.656   6.232   3.278 -1.5584 -0.7214 -1.4501
   17MOL   H14112013   2.852   6.200   3.396 -1.3998 -0.3717  0.2901
   17MOL   H14212014   2.879   6.095   3.264  0.5957  0.5444 -0.0463
   17MOL   H14312015   2.787   5.904   3.410  3.9669 -1.4311 -0.9755
   17MOL   H14412016   2.779   6.039   3.529  2.3689  3.2903 -0.5485
   17MOL   H14512017   3.035   6.046   3.498 -2.8765  1.9628  1.1970
   17MOL   H14612018   3.018   5.897   3.408  2.4346  0.1878  0.5826
   17MOL   H14712019   2.939   5.766   3.599 -1.8482  1.1556  0.9783
   17MOL   H14812020   2.911   5.915   3.687  0.1823  0.8752 -0.3016
   17MOL   H14912021   3.156   5.768   3.589  2.4860  0.3541  0.8897
   17MOL   C15012022   3.168   5.874   3.762  0.1581  0.3700 -0.1129
   17MOL   O15112023   3.121   5.955   3.846 -0.7283 -0.0540  0.3303
   17MOL   C15212024   3.304   5.810   3.793  0.3968  0.5061 -0.0407
   17MOL   C15312025   3.353   5.861   3.929 -0.3961  0.3472 -0.4304
   17MOL   C15412026   3.482   5.790   3.977 -0.6834  0.0651 -0.2132
   17MOL   C15512027   3.546   5.859   4.100  0.5643 -0.2705 -0.0428
   17MOL   C15612028   3.465   5.845   4.222 -0.2000 -0.2741 -0.0224
   17MOL   C15712029   3.527   5.920   4.344  0.4175  0.6812  0.2538
   17MOL   C15812030   3.627   5.841   4.428 -0.1498 -0.2093 -0.0605
   17MOL   C15912031   3.656   5.914   4.559  0.4204  0.4772 -0.0936
   17MOL   C16012032   3.795   5.858   4.615 -0.5916  0.1474 -0.1259
   17MOL   C16112033   3.848   5.946   4.732  0.2533  0.1496 -0.0470
   17MOL   C16212034   3.971   5.882   4.804  0.1405  0.1591 -0.3265
   17MOL   N16312035   4.009   5.971   4.912  0.0866 -0.3214  0.1546
   17MOL   H16412036   3.370   5.846   3.714  2.8111  1.4524  2.3093
   17MOL   H16512037   3.293   5.702   3.803 -0.7476  0.7542  1.5881
   17MOL   H16612038   3.363   5.970   3.929  0.6693  0.2552 -0.5880
   17MOL   H16712039   3.275   5.843   4.003 -2.2717  1.8509 -1.9753
   17MOL   H16812040   3.547   5.778   3.890  2.1244 -2.5013  2.1017
   17MOL   H16912041   3.470   5.684   3.999  1.7873 -0.3559 -0.7068
   17MOL   H17012042   3.648   5.824   4.118  0.4670 -0.7660 -0.4341
   17MOL   H17112043   3.557   5.966   4.085  0.4380 -0.4382 -1.4622
   17MOL   H17212044   3.456   5.741   4.253  2.4973 -0.4382  0.2677
   17MOL   H17312045   3.364   5.873   4.191  0.3152  1.4614 -0.1566
   17MOL   H17412046   3.451   5.944   4.418  0.0579 -0.6040  0.3201
   17MOL   H17512047   3.554   6.021   4.315 -2.3277  1.1769 -0.6474
   17MOL   H17612048   3.716   5.826   4.366  0.9327  0.0860  1.3888
   17MOL   H17712049   3.589   5.740   4.444 -0.0333 -0.5843 -2.0148
   17MOL   H17812050   3.594   5.908   4.649  0.6987  0.4978  0.1011
   17MOL   H17912051   3.661   6.023   4.551  0.0148  0.6402  1.6381
   17MOL   H18012052   3.873   5.861   4.539 -0.8309  1.4161 -0.3377
   17MOL   H18112053   3.791   5.756   4.652  1.0210  0.6655  1.5417
   17MOL   H18212054   3.770   5.961   4.807  1.2008  0.5755  0.8639
   17MOL   H18312055   3.875   6.049   4.708 -2.0419  1.3709  2.3102
   17MOL   H18412056   4.061   5.879   4.742  1.1050  0.3852  1.0270
   17MOL   H18512057   3.948   5.785   4.847 -0.5413  0.8770  0.9604
   17MOL   H18612058   3.931   6.018   4.956  0.4920  1.5456 -1.0613
   17MOL   C18712059   4.127   5.982   4.967  0.6834 -0.4688  0.0680
   17MOL   O18812060   4.228   5.918   4.942 -0.0205  0.2137  0.3404
   17MOL   C18912061   4.123   6.075   5.087 -0.7353  1.0875 -0.3600
   17MOL   C19012062   4.256   6.132   5.138  0.1826  0.2822  0.3157
   17MOL   C19112063   4.313   6.221   5.028 -0.1892 -0.0457  0.2503
   17MOL   C19212064   4.442   6.307   5.056 -0.1000  0.3743 -0.0905
   17MOL   C19312065   4.476   6.402   4.939  0.2853  1.0120 -0.2258
   17MOL   C19412066   4.534   6.321   4.827  0.1795  0.4587 -0.6526
   17MOL   C19512067   4.541   6.401   4.692 -0.1271  0.4469  0.1640
   17MOL   C19612068   4.406   6.401   4.620  0.3387  0.0948  0.3359
   17MOL   C19712069   4.359   6.262   4.568  0.0249  0.1559  0.9244
   17MOL   C19812070   4.248   6.285   4.460 -0.5052  0.1082 -0.2476
   17MOL   C19912071   4.188   6.162   4.389 -0.1718  0.0474  0.3290
   17MOL   N20012072   4.081   6.189   4.291 -0.1535  0.6500 -0.0253
   17MOL   H20112073   4.082   6.015   5.168  0.3738  0.0859 -0.5156
   17MOL   H20212074   4.047   6.152   5.075 -0.3950  1.1317 -2.4373
   17MOL   H20312075   4.230   6.186   5.229 -0.0653 -2.9442  2.2574
   17MOL   H20412076   4.333   6.058   5.159  0.2405 -0.3852 -2.1722
   17MOL   H20512077   4.232   6.287   4.996 -1.3532 -0.4727  2.2722
   17MOL   H20612078   4.331   6.165   4.935 -2.6083 -2.0203  0.8981
   17MOL   H20712079   4.417   6.374   5.138 -1.0052 -1.2609  1.0097
   17MOL   H20812080   4.524   6.240   5.081 -1.8676 -2.9114 -2.5955
   17MOL   H20912081   4.545   6.481   4.969  1.7120 -0.8859  1.6238
   17MOL   H21012082   4.379   6.443   4.911 -0.7939 -0.7240  0.9229
   17MOL   H21112083   4.490   6.223   4.811  0.5408  0.5792 -2.5582
   17MOL   H21212084   4.628   6.279   4.861 -0.6823  0.6725  2.1036
   17MOL   H21312085   4.612   6.358   4.622  2.6771  2.4957  1.6249
   17MOL   H21412086   4.573   6.503   4.716  0.1006  0.6649 -1.0443
   17MOL   H21512087   4.413   6.474   4.539 -0.7529  2.0206  1.9325
   17MOL   H21612088   4.326   6.434   4.687 -2.0317 -0.9544 -1.8567
   17MOL   H21712089   4.318   6.213   4.657 -0.7313  0.2393  0.6246
   17MOL   H21812090   4.439   6.207   4.519 -0.4079 -0.3341  0.7659
   17MOL   H21912091   4.286   6.351   4.383  0.0490  1.1732  0.9195
   17MOL   H22012092   4.166   6.330   4.517  0.2800 -0.1098  1.0673
   17MOL   H22112093   4.154   6.097   4.469  1.0943  0.2665  1.0594
   17MOL   H22212094   4.265   6.111   4.332 -0.3385  0.0357  0.1122
   17MOL   H22312095   4.101   6.220   4.197  0.0982 -0.9396 -0.5048
   17MOL   C22412096   3.946   6.175   4.324  0.3988  0.9786  1.0503
   17MOL   O22512097   3.908   6.160   4.444 -0.2810 -0.1703 -0.5797
   17MOL   C22612098   3.854   6.174   4.209 -0.0877 -0.3126 -0.4537
   17MOL   C22712099   3.789   6.317   4.195 -0.1530 -0.1201 -0.7389
   17MOL   C22812100   3.692   6.326   4.076 -0.2525 -0.3428 -0.2893
   17MOL   C22912101   3.648   6.470   4.050  0.3330  0.4704  0.1161
   17MOL   C23012102   3.550   6.494   3.929  0.2129  0.5402 -0.5929
   17MOL   C23112103   3.491   6.639   3.932  0.5339  0.3647  0.4062
   17MOL   C23212104   3.588   6.754   3.944 -0.5628  0.5263 -0.9053
   17MOL   C23312105   3.515   6.892   3.962 -0.4956 -0.1890  0.3679
   17MOL   C23412106   3.612   7.015   3.958  0.3631  0.3883  0.3210
   17MOL   C23512107   3.540   7.153   3.965  0.0347  0.0712  0.2633
   17MOL   C23612108   3.637   7.275   3.950  1.0334 -0.3014  0.2169
   17MOL   N23712109   3.578   7.408   3.970  0.1643  0.2055  0.1313
   17MOL   H23812110   3.775   6.103   4.231  0.3489 -0.8890 -0.7391
   17MOL   H23912111   3.900   6.146   4.114 -0.1069  1.4718 -1.0021
   17MOL   H24012112   3.730   6.342   4.283 -0.6415  1.0462 -1.3856
   17MOL   H24112113   3.868   6.392   4.183  0.8741 -1.2974 -1.4015
   17MOL   H24212114   3.607   6.265   4.105  0.8614 -0.9573  1.8326
   17MOL   H24312115   3.740   6.283   3.989 -1.8747  1.1655 -1.9698
   17MOL   H24412116   3.591   6.503   4.137  0.5248  2.5038 -0.5243
   17MOL   H24512117   3.740   6.524   4.031  0.6769 -0.0789  0.2019
   17MOL   H24612118   3.471   6.418   3.934  0.3254  0.2879 -2.1603
   17MOL   H24712119   3.607   6.481   3.837  0.5416 -2.4348 -0.0210
   17MOL   H24812120   3.429   6.637   4.022  1.8965 -4.4498  1.3514
   17MOL   H24912121   3.426   6.657   3.846  0.2247  0.2634  0.6144
   17MOL   H25012122   3.649   6.758   3.853  1.9651 -0.8123  0.6583
   17MOL   H25112123   3.661   6.743   4.024 -1.1865 -2.7927 -0.7212
   17MOL   H25212124   3.453   6.900   4.052  0.5618 -0.2225  1.0998
   17MOL   H25312125   3.441   6.912   3.884  1.4807  1.9406 -1.0130
   17MOL   H25412126   3.672   7.010   3.867  1.9296  3.1699  1.1259
   17MOL   H25512127   3.679   7.009   4.044 -2.1582  1.1349  2.3806
   17MOL   H25612128   3.495   7.153   4.064  0.6100 -1.4355  0.5429
   17MOL   H25712129   3.455   7.160   3.897 -1.2929 -0.4794  1.8388
   17MOL   H25812130   3.676   7.257   3.850 -3.3438 -3.3990 -1.1047
   17MOL   H25912131   3.720   7.281   4.021  0.9155  0.5840  0.2838
   17MOL   H26012132   3.548   7.423   4.065 -2.9530 -1.3170 -0.5503
   17MOL   C26112133   3.545   7.501   3.875  0.3127  0.0345  0.1955
   17MOL   O26212134   3.583   7.486   3.761  0.4725 -0.0018 -0.4578
   17MOL   C26312135   3.457   7.618   3.922  0.3271 -0.0560 -0.2368
   17MOL   C26412136   3.369   7.690   3.815 -0.3517 -0.2333  0.4491
   17MOL   C26512137   3.456   0.072   3.714 -0.4184 -0.3740  0.4956
   17MOL   C26612138   3.572   0.165   3.764 -0.1445  0.2139  1.1436
   17MOL   C26712139   3.668   0.206   3.652  0.0190 -0.1979 -0.2728
   17MOL   C26812140   3.784   0.294   3.710  0.4028  0.1102  0.2594
   17MOL   C26912141   3.876   0.354   3.600 -0.6835 -0.1478 -0.1890
   17MOL   C27012142   3.796   0.465   3.517 -0.3027  1.4565 -0.7338
   17MOL   C27112143   3.881   0.576   3.456  0.4895  0.6695  0.7713
   17MOL   C27212144   3.987   0.529   3.358 -0.4410  0.3733  0.3947
   17MOL   C27312145   4.076   0.649   3.312 -0.0565  0.2141 -0.4987
   17MOL   N27412146   4.169   0.594   3.214 -0.0191 -0.0685  0.5495
   17MOL   H27512147   3.514   0.002   3.973 -0.2894  1.1949 -1.4083
   17MOL   H27612148   3.386   7.573   3.992  1.1212 -0.2860  0.4327
   17MOL   H27712149   3.299   7.621   3.768  0.1135 -0.1038 -0.4357
   17MOL   H27812150   3.308   0.074   3.861  1.9561  1.7862  0.2413
   17MOL   H27912151   3.380   0.118   3.650  0.1310  0.3678  0.3704
   17MOL   H28012152   3.500   7.681   3.661 -0.4526  0.5763 -1.0954
   17MOL   H28112153   3.527   0.255   3.804 -1.1899  0.4770 -0.5687
   17MOL   H28212154   3.630   0.123   3.846 -1.7146 -1.0434  1.6413
   17MOL   H28312155   3.630   0.283   3.585  2.2491  0.1239 -1.2298
   17MOL   H28412156   3.693   0.122   3.587  0.6861  0.6344 -1.1175
   17MOL   H28512157   3.838   0.225   3.775  1.3394  0.2365 -0.3808
   17MOL   H28612158   3.736   0.365   3.778 -2.0780 -0.8985 -0.3657
   17MOL   H28712159   3.916   0.272   3.539 -0.3361  0.0153 -0.1854
   17MOL   H28812160   3.962   0.401   3.647  0.0401 -2.1829  0.5951
   17MOL   H28912161   3.729   0.507   3.592 -0.0609 -0.8324  0.7986
   17MOL   H29012162   3.740   0.434   3.429  1.4694  0.5228 -1.5565
   17MOL   H29112163   3.918   0.633   3.541  0.0693  0.2958  1.2110
   17MOL   H29212164   3.823   0.648   3.399 -1.2903  0.2272  1.9509
   17MOL   H29312165   3.938   0.482   3.273  1.6992 -2.4177  0.6469
   17MOL   H29412166   4.043   0.444   3.397  2.1549  1.5086 -0.7356
   17MOL   H29512167   4.125   0.684   3.402  0.5757 -0.7068 -0.4918
   17MOL   H29612168   4.018   0.728   3.262  0.5262  0.2955 -1.0505
   17MOL   H29712169   4.151   0.500   3.179  0.5294  0.3373 -0.8658
   17MOL   C29812170   4.288   0.647   3.182  0.5450  0.6068 -0.5444
   17MOL   O29912171   4.311   0.760   3.226 -0.0036  0.0534  0.8119
   17MOL   C30012172   4.388   0.578   3.087 -0.3232  0.1261 -0.2303
   17MOL   C30112173   4.538   0.600   3.123  0.5352 -0.1829 -0.0872
   17MOL   C30212174   4.580   0.525   3.250 -0.1083  0.3149 -0.1191
   17MOL   C30312175   4.712   0.570   3.326  0.2198 -0.2463  0.4351
   17MOL   C30412176   4.726   0.718   3.353 -0.0466  1.0279  0.3149
   17MOL   C30512177   4.847   0.753   3.439  0.1002  0.3983  0.8590
   17MOL   C30612178   4.843   0.895   3.485  0.0606  0.1880 -0.2506
   17MOL   C30712179   4.979   0.928   3.539  0.0673 -0.2192  0.1862
   17MOL   C30812180   4.979   1.078   3.592  0.7191  0.2511 -0.1751
   17MOL   C30912181   5.120   1.135   3.630  0.1362 -0.3112  0.0435
   17MOL   C31012182   5.115   1.279   3.669 -0.1244 -0.3140  0.0098
   17MOL   N31112183   5.074   1.364   3.558  0.2690  0.0685  0.4733
   17MOL   H31212184   4.377   0.628   2.991  1.5070 -0.2020 -0.6364
   17MOL   H31312185   4.366   0.471   3.080 -1.0124  0.2907 -0.6001
   17MOL   H31412186   4.591   0.562   3.036 -2.2517 -0.4071 -1.7409
   17MOL   H31512187   4.550   0.707   3.137  1.2164 -0.4101  1.1079
   17MOL   H31612188   4.580   0.422   3.214  2.0202 -0.9168  3.1267
   17MOL   H31712189   4.492   0.541   3.313 -0.2209  2.2239 -0.7400
   17MOL   H31812190   4.705   0.519   3.422 -3.4622 -0.1831  0.2471
   17MOL   H31912191   4.802   0.528   3.280  1.7569  0.0978  3.0501
   17MOL   H32012192   4.633   0.756   3.394 -0.4248 -0.3520  0.7663
   17MOL   H32112193   4.733   0.777   3.262 -0.5098  2.7153  1.3415
   17MOL   H32212194   4.945   0.746   3.391  0.8508  0.1134  2.4055
   17MOL   H32312195   4.843   0.690   3.528 -0.3271 -0.6012  0.1346
   17MOL   H32412196   4.767   0.903   3.563  0.8819  1.2973  0.4478
   17MOL   H32512197   4.809   0.952   3.399 -0.9358 -0.8253 -0.5482
   17MOL   H32612198   5.059   0.915   3.465  0.4173  0.3320  0.4640
   17MOL   H32712199   5.016   0.858   3.613 -1.4950  0.7534  1.9304
   17MOL   H32812200   4.934   1.095   3.690 -1.3185  0.3392 -1.0993
   17MOL   H32912201   4.935   1.144   3.517  0.3793  0.4630  0.2073
   17MOL   H33012202   5.197   1.117   3.555  0.7077 -0.1009  0.5678
   17MOL   H33112203   5.157   1.100   3.727 -1.4270  0.9647  1.1306
   17MOL   H33212204   5.213   1.311   3.708 -1.6201  1.7216  2.2710
   17MOL   H33312205   5.047   1.310   3.749 -0.4021  1.8565 -1.0388
   17MOL   H33412206   4.978   1.393   3.546  0.2878 -0.1093 -0.1491
   17MOL   C33512207   5.160   1.408   3.468 -0.2144  0.3161  0.8906
   17MOL   O33612208   5.287   1.390   3.466 -0.9284  0.3307  0.2272
   17MOL   C33712209   5.102   1.495   3.362 -0.1276 -0.1526  0.2502
   17MOL   C33812210   5.040   1.410   3.252 -0.4477  0.2630 -1.0042
   17MOL   C33912211   4.944   1.485   3.161 -0.6387  0.4743  0.4748
   17MOL   C34012212   4.874   1.388   3.067 -0.8706  0.9892  0.5990
   17MOL   C34112213   4.978   1.311   2.975 -0.1155 -0.4613 -0.2716
   17MOL   C34212214   4.898   1.210   2.888 -0.1294 -0.1094 -0.3171
   17MOL   C34312215   4.981   1.144   2.781 -0.4974  0.1602  0.3540
   17MOL   C34412216   4.898   1.057   2.677 -0.0220 -0.3074  0.4809
   17MOL   C34512217   4.987   1.001   2.564 -0.2906 -0.3798  0.0761
   17MOL   C34612218   4.911   0.942   2.451  0.2216  0.0801 -0.2156
   17MOL   C34712219   4.983   0.854   2.346 -0.1940 -0.0261 -1.1922
   17MOL   N34812220   4.902   0.842   2.233  0.8730 -0.0751 -0.5058
   17MOL   H34912221   5.173   1.558   3.307  0.4607 -1.1763 -0.1853
   17MOL   H35012222   5.025   1.563   3.396  0.7692  1.6453 -1.2205
   17MOL   H35112223   5.119   1.364   3.193 -0.1688 -0.8935  0.2592
   17MOL   H35212224   4.987   1.332   3.306  0.8494  0.0541 -0.0284
   17MOL   H35312225   4.985   1.572   3.110  0.7230  0.0337  0.7829
   17MOL   H35412226   4.871   1.547   3.214 -2.1335  1.7328 -2.9182
   17MOL   H35512227   4.827   1.316   3.134  1.1400 -1.3615 -0.4243
   17MOL   H35612228   4.795   1.436   3.009 -1.0449 -0.2941 -0.2453
   17MOL   H35712229   5.050   1.247   3.024  2.8657  2.4553 -0.6814
   17MOL   H35812230   5.045   1.382   2.927 -0.7646  0.3808  0.0431
   17MOL   H35912231   4.828   1.279   2.840 -0.6423 -0.6536 -0.3666
   17MOL   H36012232   4.839   1.135   2.941 -1.7846  2.8488  2.1686
   17MOL   H36112233   5.053   1.076   2.826  1.8389  1.1703 -1.7318
   17MOL   H36212234   5.040   1.220   2.729 -0.5712 -0.8519 -1.2476
   17MOL   H36312235   4.819   1.115   2.630  0.1737 -1.8557 -1.8845
   17MOL   H36412236   4.856   0.966   2.719 -0.4044 -0.9187 -1.1853
   17MOL   H36512237   5.066   0.941   2.610  1.0466 -1.1133 -3.0847
   17MOL   H36612238   5.050   1.078   2.520  1.1223 -0.5855  1.7072
   17MOL   H36712239   4.858   1.017   2.392 -1.4826 -0.1653  0.9761
   17MOL   H36812240   4.831   0.885   2.498 -1.3533  2.7628  0.4514
   17MOL   H36912241   5.005   0.759   2.396 -1.0345  0.2083 -0.3520
   17MOL   H37012242   5.077   0.907   2.330  0.3317  0.3408  2.5092
   17MOL   H37112243   4.849   0.756   2.225  0.4008  0.2672 -1.0712
   17MOL   C37212244   4.929   0.907   2.118  0.6014 -0.3201  0.0870
   17MOL   O37312245   5.012   0.998   2.113 -0.2678  0.6959  0.3080
   17MOL   C37412246   4.853   0.854   1.997 -0.0022 -0.1398 -0.2643
   17MOL   C37512247   4.769   0.970   1.932  0.9759 -0.2767 -0.1599
   17MOL   C37612248   4.653   1.022   2.022  0.4133 -0.0647  0.1254
   17MOL   C37712249   4.580   1.134   1.946  0.8220 -0.2821  0.3695
   17MOL   C37812250   4.442   1.169   2.012 -0.2172  0.6568  0.5958
   17MOL   C37912251   4.398   1.311   1.998 -0.6344  0.4277  0.4038
   17MOL   C38012252   4.275   1.365   2.080  0.7057 -0.4312  0.1722
   17MOL   C38112253   4.293   1.382   2.235  0.1937  0.5598 -0.2591
   17MOL   C38212254   4.180   1.471   2.283  0.0803  0.2719 -0.0377
   17MOL   C38312255   4.200   1.507   2.432 -0.0455  0.3594 -0.0838
   17MOL   C38412256   4.093   1.611   2.482 -1.0999  0.3852 -0.4554
   17MOL   N38512257   4.118   1.627   2.626  0.2824  0.2601 -0.0224
   17MOL   H38612258   4.791   0.765   2.014  1.6906 -1.4679 -0.9077
   17MOL   H38712259   4.926   0.815   1.926 -0.9020  0.4043 -1.4998
   17MOL   H38812260   4.840   1.049   1.909  3.1208 -2.2182 -0.3518
   17MOL   H38912261   4.734   0.937   1.835  0.2396 -1.9381  0.6551
   17MOL   H39012262   4.689   1.057   2.118  0.8802  0.9624 -0.4112
   17MOL   H39112263   4.591   0.936   2.046 -1.6333  1.6757  1.1738
   17MOL   H39212264   4.631   1.228   1.929  0.0832  0.1653  0.6004
   17MOL   H39312265   4.555   1.107   1.843  0.7872  1.6223 -0.1353
   17MOL   H39412266   4.436   1.141   2.117 -2.2737 -1.9473 -0.1365
   17MOL   H39512267   4.366   1.105   1.966  0.5603 -0.3946  0.7657
   17MOL   H39612268   4.394   1.324   1.890 -2.4787  0.0306  0.4037
   17MOL   H39712269   4.489   1.363   2.026 -0.2461 -0.5264  0.9324
   17MOL   H39812270   4.199   1.287   2.077  0.7885 -0.6582  2.7493
   17MOL   H39912271   4.239   1.452   2.024 -1.6384 -0.6950  1.2052
   17MOL   H40012272   4.392   1.423   2.258  0.5385 -0.5089  0.1903
   17MOL   H40112273   4.298   1.284   2.282 -0.8796  0.6517  0.0622
   17MOL   H40212274   4.082   1.430   2.261  0.7023 -1.0214 -0.4891
   17MOL   H40312275   4.195   1.563   2.227  0.7390  1.2218  1.6554
   17MOL   H40412276   4.298   1.552   2.436  0.9213 -1.8385  4.4886
   17MOL   H40512277   4.200   1.411   2.485  2.4736 -0.9514 -2.3669
   17MOL   H40612278   3.995   1.575   2.453 -0.7138 -0.2863 -0.9420
   17MOL   H40712279   4.107   1.701   2.422 -1.6183  1.0002  0.3222
   17MOL   H40812280   4.202   1.597   2.672  0.1630  0.1951  0.1530
   17MOL   C40912281   4.018   1.664   2.713  0.2415 -0.1149  0.6859
   17MOL   O41012282   3.902   1.695   2.678 -0.0218  0.0859  0.4070
   17MOL   C41112283   4.052   1.656   2.870 -0.5162  0.3394 -0.6010
   17MOL   C41212284   3.944   1.692   2.967  0.4267  0.4047 -0.7153
   17MOL   C41312285   3.962   1.834   3.026  0.3476  0.5275  0.2792
   17MOL   C41412286   4.058   1.837   3.145 -0.1468 -0.6367  0.3828
   17MOL   C41512287   4.057   1.976   3.206  0.7338  0.3175  0.3619
   17MOL   C41612288   4.157   1.984   3.326 -0.1949  0.2579  0.6074
   17MOL   C41712289   4.173   2.122   3.387 -0.5445 -0.0809  0.1459
   17MOL   C41812290   4.082   2.125   3.518  0.3757 -0.4147 -0.5327
   17MOL   C41912291   4.054   2.271   3.555 -0.0760  0.3581  0.3881
   17MOL   C42012292   3.982   2.292   3.688  0.7927  0.5554 -0.7870
   17MOL   C42112293   3.974   2.435   3.733  0.0904 -0.2501  0.0476
   17MOL   N42212294   3.893   2.450   3.851  0.4924 -0.0621  0.4971
   17MOL   H42312295   4.148   1.706   2.884  0.1549 -1.4145  1.4483
   17MOL   H42412296   4.078   1.551   2.878 -0.9282  0.2385 -0.5510
   17MOL   H42512297   3.847   1.675   2.920 -0.9164 -1.9429  2.7397
   17MOL   H42612298   3.942   1.633   3.059  1.8735  1.3062 -0.0962
   17MOL   H42712299   3.866   1.873   3.060  1.0631  2.7728 -0.1525
   17MOL   H42812300   3.988   1.906   2.948 -1.4913  0.4028 -0.4765
   17MOL   H42912301   4.039   1.768   3.226  1.1590 -0.6232  0.7093
   17MOL   H43012302   4.159   1.822   3.105 -1.2976 -2.6475 -1.8514
   17MOL   H43112303   3.954   1.983   3.242  0.6129 -2.6427  0.7712
   17MOL   H43212304   4.067   2.044   3.121 -1.2493 -0.4338 -0.5195
   17MOL   H43312305   4.247   1.943   3.281 -0.7233  0.5606 -0.7686
   17MOL   H43412306   4.132   1.920   3.410 -0.9332  2.2141  1.9287
   17MOL   H43512307   4.154   2.195   3.308 -0.7823 -0.8178 -0.4796
   17MOL   H43612308   4.278   2.132   3.414 -0.9362  1.7961  1.0893
   17MOL   H43712309   4.127   2.067   3.599  0.2769 -0.1900 -0.3178
   17MOL   H43812310   3.985   2.083   3.493  0.6554 -1.1438 -0.4081
   17MOL   H43912311   3.996   2.311   3.472  0.9646  0.3913 -0.3290
   17MOL   H44012312   4.147   2.329   3.553 -0.3531  0.8532  1.3053
   17MOL   H44112313   4.027   2.221   3.758  0.9737  1.2030 -0.2410
   17MOL   H44212314   3.884   2.248   3.666  1.0238  0.4409 -1.5729
   17MOL   H44312315   3.932   2.495   3.652 -0.8025 -0.1072  0.6096
   17MOL   H44412316   4.075   2.470   3.755 -1.0536  1.2580  3.1234
   17MOL   H44512317   3.795   2.469   3.839  0.8288  2.2188  1.0814
   17MOL   C44612318   3.938   2.431   3.975 -0.2142 -0.2260  1.2371
   17MOL   O44712319   4.054   2.403   4.005 -0.3954 -0.3367  0.2158
   17MOL   C44812320   3.837   2.464   4.086  0.4108  0.3427  0.7033
   17MOL   C44912321   3.862   2.385   4.214  0.3461 -0.1326  0.0010
   17MOL   C45012322   3.767   2.436   4.336 -0.7155 -0.2533  0.5982
   17MOL   C45112323   3.788   2.353   4.466 -0.3022  0.8585 -0.0342
   17MOL   C45212324   3.705   2.406   4.587  0.2902  0.0297 -0.0204
   17MOL   C45312325   3.557   2.366   4.592  0.6771 -0.1893 -0.2417
   17MOL   C45412326   3.488   2.419   4.716 -0.8295 -0.2850 -0.3896
   17MOL   C45512327   3.349   2.358   4.732 -0.1625  0.1143 -0.2556
   17MOL   C45612328   3.285   2.389   4.871 -0.0804  0.1814  0.8912
   17MOL   C45712329   3.136   2.387   4.874  0.2613  0.1945  0.1661
   17MOL   C45812330   3.088   2.442   5.012 -0.2233 -0.0205  0.1406
   17MOL   N45912331   2.954   2.414   5.046 -0.1061  0.3039 -0.1553
   17MOL   H46012332   3.733   2.454   4.055  0.5174  0.8858  0.1723
   17MOL   H46112333   3.855   2.570   4.101  2.2909 -0.1201  1.9678
   17MOL   H46212334   3.852   2.279   4.192 -0.9007  0.3543 -1.8675
   17MOL   H46312335   3.964   2.401   4.249 -0.5981  0.3835  2.6666
   17MOL   H46412336   3.664   2.420   4.306  0.5349 -1.2244 -3.5080
   17MOL   H46512337   3.783   2.541   4.360  1.9463 -0.9619  2.1267
   17MOL   H46612338   3.754   2.253   4.440  0.1952  0.8740 -0.7643
   17MOL   H46712339   3.894   2.344   4.490 -0.3136  1.0676  0.0934
   17MOL   H46812340   3.714   2.514   4.593 -1.1677  0.1327  0.7232
   17MOL   H46912341   3.737   2.370   4.684 -0.7078  0.4458  0.4693
   17MOL   H47012342   3.545   2.257   4.593 -1.2994 -0.0055 -0.9291
   17MOL   H47112343   3.502   2.396   4.503 -1.5581 -0.2374  1.0704
   17MOL   H47212344   3.471   2.526   4.702 -0.7589 -0.4237 -1.6871
   17MOL   H47312345   3.550   2.421   4.805 -0.5264  3.1872 -0.5765
   17MOL   H47412346   3.363   2.250   4.719 -0.5011  0.1250 -0.7007
   17MOL   H47512347   3.282   2.385   4.651 -2.8135 -0.6444  1.6191
   17MOL   H47612348   3.308   2.493   4.895 -1.9404  0.0751  3.2807
   17MOL   H47712349   3.332   2.318   4.940 -0.9156 -0.9805  0.2688
   17MOL   H47812350   3.105   2.284   4.864 -1.5416  0.6863  0.5866
   17MOL   H47912351   3.085   2.444   4.797  3.1168 -0.4039 -2.2752
   17MOL   H48012352   3.097   2.550   5.022 -0.1616  0.3077 -3.0974
   17MOL   H48112353   3.154   2.415   5.094  0.9924  1.0594 -0.4715
   17MOL   H48212354   2.887   2.490   5.047  0.9882  1.3007 -0.8287
   17MOL   C48312355   2.901   2.300   5.099 -0.2554 -0.1527  0.1651
   17MOL   O48412356   2.962   2.192   5.102  0.3294 -0.4613 -0.3191
   17MOL   C48512357   2.763   2.318   5.159 -0.4701 -0.2247  0.5144
   17MOL   C48612358   2.731   2.213   5.263  0.3923  0.3549 -0.5069
   17MOL   C48712359   2.642   2.265   5.391  0.3409 -0.7076 -0.2794
   17MOL   C48812360   2.490   2.283   5.357 -0.5713  0.2681  0.1965
   17MOL   C48912361   2.457   2.409   5.273  0.1045  0.3979  0.3918
   17MOL   C49012362   2.310   2.412   5.234 -0.0000 -0.4501 -0.2005
   17MOL   C49112363   2.278   2.536   5.157  0.3550  0.4854  0.4280
   17MOL   C49212364   2.137   2.529   5.090 -0.3332 -0.1100 -0.0213
   17MOL   C49312365   2.117   2.427   4.975 -0.3113 -0.6704 -0.3082
   17MOL   C49412366   2.236   2.423   4.871  1.1650  0.6125 -0.1897
   17MOL   C49512367   2.201   2.357   4.735  0.0034 -0.9123 -0.5379
   17MOL   N49612368   2.311   2.309   4.658 -0.3542 -0.4188  0.3049
   17MOL   H49712369   2.681   2.325   5.088  1.1345  1.4977 -1.2273
   17MOL   H49812370   2.760   2.411   5.217 -1.8494  0.5028 -0.6861
   17MOL   H49912371   2.688   2.123   5.218 -0.0876  1.1743 -1.6955
   17MOL   H50012372   2.821   2.186   5.319 -1.2866 -1.3137  1.5208
   17MOL   H50112373   2.685   2.362   5.416 -0.9828 -0.4375  1.0028
   17MOL   H50212374   2.667   2.198   5.473 -0.9612 -1.3426 -0.3932
   17MOL   H50312375   2.452   2.190   5.315  2.1709 -1.4852  1.4386
   17MOL   H50412376   2.442   2.287   5.455  1.6050 -0.3283  1.3068
   17MOL   H50512377   2.528   2.417   5.191 -1.0498 -3.0820 -1.0398
   17MOL   H50612378   2.479   2.489   5.344  2.6827 -0.9278  1.1352
   17MOL   H50712379   2.246   2.406   5.321  1.3919  2.1549  1.0857
   17MOL   H50812380   2.281   2.326   5.174 -0.7211  0.4533 -1.1670
   17MOL   H50912381   2.361   2.540   5.087 -0.6623 -2.4769 -1.0519
   17MOL   H51012382   2.292   2.622   5.223 -0.7881  0.0622  1.2363
   17MOL   H51112383   2.111   2.622   5.039  1.6609  0.8647  0.7234
   17MOL   H51212384   2.072   2.505   5.174 -2.4046  0.7578 -1.3341
   17MOL   H51312385   2.024   2.454   4.925 -0.5373  0.5638  0.7618
   17MOL   H51412386   2.098   2.330   5.020 -0.4819 -0.4431  0.1107
   17MOL   H51512387   2.329   2.378   4.906  2.3133  2.0563 -1.3370
   17MOL   H51612388   2.278   2.521   4.852 -0.0826  0.9916 -1.0744
   17MOL   H51712389   2.155   2.432   4.672 -2.7586 -2.2510 -0.2216
   17MOL   H51812390   2.131   2.273   4.732  0.7864 -1.5421 -1.4800
   17MOL   H51912391   2.404   2.336   4.689 -0.1832  0.0619 -0.5962
   17MOL   C52012392   2.282   2.253   4.538  0.6502 -0.3792  0.1400
   17MOL   O52112393   2.170   2.227   4.499 -0.3441 -0.0588 -0.0744
   17MOL   C52212394   2.400   2.215   4.453 -0.4961  0.7664 -0.4886
   17MOL   C52312395   2.384   2.211   4.299  0.4962 -0.4688 -0.2298
   17MOL   C52412396   2.388   2.349   4.231  0.0338  0.3149  0.0439
   17MOL   C52512397   2.423   2.345   4.088  0.5282  0.4959 -0.1089
   17MOL   C52612398   2.421   2.476   4.009 -0.5481 -0.3182  0.3322
   17MOL   C52712399   2.468   2.465   3.868 -0.6015 -0.2298  0.4074
   17MOL   C52812400   2.412   2.578   3.781 -0.0867  0.5186 -0.3981
   17MOL   C52912401   2.478   2.555   3.641 -0.6314 -0.6110 -0.2223
   17MOL   C53012402   2.460   2.671   3.545 -0.2715 -0.3601 -0.2994
   17MOL   C53112403   2.523   2.673   3.410 -0.1907 -0.1754  0.3337
   17MOL   C53212404   2.676   2.676   3.413  0.3001  0.2737 -0.1939
   17MOL   N53312405   2.729   2.704   3.284  0.3655 -0.4601  0.2458
   17MOL   H53412406   2.427   2.120   4.500 -1.8806  0.8824  0.5851
   17MOL   H53512407   2.472   2.295   4.472  2.4475 -2.2029  1.3129
   17MOL   H53612408   2.461   2.155   4.246 -0.2679 -0.0526 -1.8449
   17MOL   H53712409   2.287   2.161   4.288  0.2411 -0.5157  2.0484
   17MOL   H53812410   2.460   2.418   4.275 -0.6906  3.1173 -2.9999
   17MOL   H53912411   2.292   2.399   4.237 -0.2771 -0.3651  0.9423
   17MOL   H54012412   2.522   2.298   4.088  0.2915 -0.0161  0.1211
   17MOL   H54112413   2.357   2.279   4.032  0.2149  0.1268  0.6900
   17MOL   H54212414   2.484   2.546   4.062 -2.5786 -0.1014  2.5705
   17MOL   H54312415   2.316   2.505   4.009 -0.3335  0.4768  1.0219
   17MOL   H54412416   2.445   2.370   3.820  0.5270  0.4521 -1.5282
   17MOL   H54512417   2.577   2.461   3.870 -0.6047 -1.7598 -1.3759
   17MOL   H54612418   2.445   2.676   3.816 -0.3678 -0.3433  2.3925
   17MOL   H54712419   2.305   2.596   3.771 -0.1295 -0.5948 -2.1433
   17MOL   H54812420   2.430   2.466   3.599  0.7450 -1.9285  0.9476
   17MOL   H54912421   2.584   2.538   3.658 -0.2548  0.7270 -1.2154
   17MOL   H55012422   2.488   2.764   3.595 -0.4170  0.1033 -1.0697
   17MOL   H55112423   2.355   2.675   3.515 -1.2135 -2.3424  2.4618
   17MOL   H55212424   2.492   2.764   3.359 -0.6878  1.0347  2.7471
   17MOL   H55312425   2.497   2.579   3.360 -0.2679 -0.1196  0.2696
   17MOL   H55412426   2.721   2.587   3.455  0.6016 -0.1401 -1.3795
   17MOL   H55512427   2.702   2.750   3.489  1.0170 -0.9137  0.7170
   17MOL   H55612428   2.765   2.796   3.268  0.4131 -0.5008  0.1215
   17MOL   C55712429   2.741   2.616   3.181  0.2998  0.6693  0.0482
   17MOL   O55812430   2.705   2.499   3.193 -0.0101  0.0234  0.0338
   17MOL   C55912431   2.803   2.665   3.051 -0.3876 -0.1461  0.3722
   17MOL   C56012432   2.908   2.569   3.021 -0.4356  0.6190  0.6728
   17MOL   C56112433   3.022   2.603   2.924  0.6173 -0.6028  0.4037
   17MOL   C56212434   2.978   2.634   2.780  0.6389 -0.2667 -0.5489
   17MOL   C56312435   3.093   2.641   2.679  1.0709 -0.1943 -0.4297
   17MOL   C56412436   3.042   2.624   2.536 -0.9508 -0.5295 -0.1710
   17MOL   C56512437   2.946   2.729   2.482  1.0165  0.0150  0.0423
   17MOL   C56612438   2.866   2.678   2.360 -0.3386  0.5954  0.1178
   17MOL   C56712439   2.779   2.793   2.293 -0.3557  0.2419 -0.0681
   17MOL   C56812440   2.692   2.749   2.176  0.2313  0.6561  1.0863
   17MOL   C56912441   2.761   2.730   2.036  0.1095  0.6284 -0.5331
   17MOL   N57012442   2.663   2.668   1.941 -0.3253 -0.3762 -0.0392
   17MOL   H57112443   2.850   2.763   3.047  2.2622 -1.3489  1.3459
   17MOL   H57212444   2.722   2.664   2.977 -0.9728  2.7804  0.9175
   17MOL   H57312445   2.959   2.540   3.113  1.5522 -2.5235 -1.3011
   17MOL   H57412446   2.878   2.471   2.984  0.4871  0.7356 -0.4070
   17MOL   H57512447   3.098   2.524   2.917  0.9304 -0.2321 -0.4055
   17MOL   H57612448   3.063   2.692   2.970  0.3480 -0.6284  0.6924
   17MOL   H57712449   2.900   2.561   2.760  1.2800 -1.1796  0.1991
   17MOL   H57812450   2.923   2.728   2.772 -1.2730 -1.1298  1.9128
   17MOL   H57912451   3.166   2.565   2.709  0.8309 -0.0812  0.4769
   17MOL   H58012452   3.145   2.736   2.686 -0.6064  0.7468 -0.3588
   17MOL   H58112453   2.985   2.532   2.543  0.3949 -1.4228 -0.8412
   17MOL   H58212454   3.125   2.605   2.467 -0.3873 -1.2654  0.7093
   17MOL   H58312455   2.992   2.822   2.449  0.7687 -0.8364 -2.9010
   17MOL   H58412456   2.870   2.741   2.559  1.8581 -1.5542  1.1459
   17MOL   H58512457   2.795   2.599   2.385 -0.0275  1.0586  2.6355
   17MOL   H58612458   2.933   2.638   2.283 -0.0782 -0.8562  1.0683
   17MOL   H58712459   2.841   2.877   2.261  0.6121  0.8527  3.2813
   17MOL   H58812460   2.720   2.832   2.376  1.0561  1.4685  0.3715
   17MOL   H58912461   2.616   2.827   2.174 -0.2964  0.1212  0.0795
   17MOL   H59012462   2.640   2.657   2.203 -0.5475  0.9381  0.5618
   17MOL   H59112463   2.848   2.666   2.052 -0.8049 -0.3614  0.5754
   17MOL   H59212464   2.804   2.823   1.998  1.4138  0.0810 -0.4076
   17MOL   H59312465   2.625   2.577   1.962 -0.8120 -0.4500 -1.2282
   17MOL   C59412466   2.621   2.735   1.833  0.1473 -0.1853 -0.6765
   17MOL   O59512467   2.666   2.846   1.807 -0.3810  0.0823 -0.1135
   17MOL   C59612468   2.509   2.673   1.754 -0.2009 -0.2734  0.3172
   17MOL   C59712469   2.382   2.759   1.741  0.2377 -0.8072  0.5687
   17MOL   C59812470   2.311   2.764   1.874  0.3227 -0.1419  0.0345
   17MOL   C59912471   2.164   2.819   1.861 -0.2922 -0.2727 -0.6121
   17MOL   C60012472   2.106   2.829   1.999 -0.8648 -0.6075 -0.3176
   17MOL   C60112473   1.954   2.852   1.994 -0.1158 -0.8862 -0.2963
   17MOL   C60212474   1.882   2.833   2.139 -0.2147  0.2102  0.3032
   17MOL   C60312475   1.731   2.845   2.126 -0.3508 -0.8696  0.5422
   17MOL   C60412476   1.666   2.814   2.262 -0.4099 -0.4433 -0.0172
   17MOL   C60512477   1.693   2.901   2.379 -0.0225  0.1676 -0.1493
   17MOL   C60612478   1.624   2.829   2.498 -0.3794 -0.1724 -0.2911
   17MOL   N60712479   1.658   2.908   2.615  0.2655  0.0253 -0.2444
   17MOL   H60812480   2.492   2.572   1.791 -4.8443  0.3846  0.2371
   17MOL   H60912481   2.545   2.659   1.652 -1.1385  1.9372 -0.3508
   17MOL   H61012482   2.391   2.855   1.691 -2.6740 -0.3768  0.7983
   17MOL   H61112483   2.310   2.705   1.680  0.4704 -1.8477  1.1982
   17MOL   H61212484   2.370   2.822   1.945 -2.9591  2.3244  0.8452
   17MOL   H61312485   2.305   2.666   1.922 -2.6933 -0.5907 -1.1440
   17MOL   H61412486   2.156   2.909   1.800  1.1669 -0.6185 -1.3269
   17MOL   H61512487   2.104   2.754   1.798  0.0743 -2.8500  1.6184
   17MOL   H61612488   2.157   2.904   2.059 -0.2779 -1.0029 -0.3274
   17MOL   H61712489   2.136   2.737   2.050  2.2493 -0.0915 -1.1337
   17MOL   H61812490   1.908   2.791   1.917 -0.2299  0.3986 -1.2496
   17MOL   H61912491   1.931   2.954   1.966  0.5910 -0.0650  1.9645
   17MOL   H62012492   1.916   2.899   2.219  1.3830 -0.6830  0.3690
   17MOL   H62112493   1.913   2.731   2.161 -1.1317 -0.2935 -0.6810
   17MOL   H62212494   1.700   2.787   2.039  0.2974  1.0574 -1.0101
   17MOL   H62312495   1.703   2.948   2.102  0.8824 -0.6028  0.2307
   17MOL   H62412496   1.701   2.713   2.286 -3.5306 -0.8701  3.1743
   17MOL   H62512497   1.558   2.816   2.252 -0.2116  2.8036 -1.9084
   17MOL   H62612498   1.646   2.997   2.359 -0.0279  0.0816 -0.5620
   17MOL   H62712499   1.800   2.919   2.391 -0.3644  1.7678  0.6265
   17MOL   H62812500   1.667   2.732   2.522  0.9656  0.6612  0.7404
   17MOL   H62912501   1.516   2.822   2.485 -0.5865  1.7205  0.2010
   17MOL   H63012502   1.738   2.967   2.597  0.2301  1.0642  2.7052
   17MOL   C63112503   1.582   2.908   2.726 -0.2972 -0.3604  1.4513
   17MOL   O63212504   1.496   2.830   2.754 -0.4194 -0.1126  0.3335
   17MOL   C63312505   1.623   3.009   2.834 -0.0771 -0.4374  0.2998
   17MOL   C63412506   1.658   2.952   2.972 -0.0770  0.4120  0.1701
   17MOL   C63512507   1.770   2.845   2.981 -0.0830  0.2246  0.7439
   17MOL   C63612508   1.723   2.697   2.971 -0.6790 -0.0846  0.2907
   17MOL   C63712509   1.841   2.600   2.966 -0.0687  0.0106  0.6940
   17MOL   C63812510   1.800   2.458   2.922 -0.0597  0.1537  0.8636
   17MOL   C63912511   1.914   2.355   2.914 -0.4278  0.3122 -0.2525
   17MOL   C64012512   1.864   2.221   2.865  0.2625 -0.2703  0.6885
   17MOL   C64112513   1.949   2.101   2.904 -0.0993 -1.0102  0.1164
   17MOL   C64212514   1.927   1.973   2.835  0.0108 -0.0634  0.7042
   17MOL   C64312515   2.028   1.871   2.889 -0.4579  0.8373 -0.2491
   17MOL   N64412516   1.992   1.737   2.856 -0.0854  0.3643 -0.3604
   17MOL   H64512517   1.549   3.087   2.856 -0.2196 -0.6174  0.4613
   17MOL   H64612518   1.712   3.060   2.799 -0.0374 -1.1448 -0.6332
   17MOL   H64712519   1.687   3.045   3.020 -0.4676  0.7068 -0.1712
   17MOL   H64812520   1.568   2.906   3.014  1.1994 -0.9121  1.5402
   17MOL   H64912521   1.836   2.859   3.067 -0.4873  0.7819  0.9619
   17MOL   H65012522   1.835   2.859   2.894 -2.3283 -1.6166 -1.2829
   17MOL   H65112523   1.655   2.677   3.054 -1.9476  1.9207 -0.2364
   17MOL   H65212524   1.663   2.695   2.880 -0.3879  2.1446  0.0236
   17MOL   H65312525   1.891   2.606   3.062 -0.0211 -1.5111  0.7813
   17MOL   H65412526   1.909   2.641   2.891 -1.3688  1.0026  0.0401
   17MOL   H65512527   1.745   2.462   2.827  0.9463  0.2249  0.2742
   17MOL   H65612528   1.728   2.425   2.997  0.0416  0.2636  1.0098
   17MOL   H65712529   1.935   2.331   3.019  0.4402 -0.6404 -0.6331
   17MOL   H65812530   2.002   2.397   2.865  1.4293 -3.2000 -0.1582
   17MOL   H65912531   1.851   2.229   2.757 -0.7107 -0.9187  0.7628
   17MOL   H66012532   1.766   2.198   2.906 -0.3851  1.8697  0.4096
   17MOL   H66112533   1.920   2.095   3.009  0.7441 -3.0289  0.2585
   17MOL   H66212534   2.057   2.119   2.907 -0.0376 -1.2719 -0.5121
   17MOL   H66312535   1.936   1.985   2.727 -0.4571 -0.4044  0.6263
   17MOL   H66412536   1.821   1.948   2.847 -0.5221  1.1904 -1.1868
   17MOL   H66512537   2.029   1.879   2.997 -3.0467  0.2925 -0.1678
   17MOL   H66612538   2.128   1.898   2.855  0.0559 -1.2810 -0.5250
   17MOL   H66712539   1.964   1.673   2.929 -2.0233 -0.7908 -2.0561
   17MOL   C66812540   2.010   1.681   2.731 -0.3491 -0.4253  0.8134
   17MOL   O66912541   2.058   1.745   2.634  0.3778 -0.1194  0.4191
   17MOL   C67012542   1.994   1.529   2.733 -0.0911 -0.6773 -0.1189
   17MOL   C67112543   1.870   1.479   2.657 -0.2815 -0.1612 -0.2993
   17MOL   C67212544   1.736   1.540   2.711 -0.1137  0.2008 -0.4795
   17MOL   C67312545   1.609   1.511   2.632 -0.6437  0.1593 -0.8705
   17MOL   C67412546   1.477   1.574   2.686 -0.2101 -0.0324  0.1147
   17MOL   C67512547   1.350   1.544   2.599 -0.2617 -0.0865 -1.0572
   17MOL   C67612548   1.212   1.572   2.673 -0.1826  0.0577  0.0049
   17MOL   C67712549   1.201   1.720   2.724 -0.3605 -0.5842  0.2584
   17MOL   C67812550   1.088   1.743   2.830  0.4756  0.4471 -0.0432
   17MOL   C67912551   1.115   1.683   2.964 -0.0652 -0.0426  0.1399
   17MOL   C68012552   0.987   1.705   3.052 -0.4462 -0.1774 -0.1977
   17MOL   N68112553   1.023   1.668   3.188  0.1791  0.0945 -0.9100
   17MOL   H68212554   1.994   1.484   2.832 -0.9530 -1.5547 -0.5094
   17MOL   H68312555   2.081   1.477   2.692 -0.6525 -1.1634 -0.7033
   17MOL   H68412556   1.899   1.508   2.556  1.4403 -0.2687  0.1470
   17MOL   H68512557   1.861   1.371   2.658 -1.3693 -0.0739  0.6876
   17MOL   H68612558   1.740   1.649   2.716  0.5332  0.1028  2.1936
   17MOL   H68712559   1.710   1.500   2.809  0.3269  0.4821 -0.2438
   17MOL   H68812560   1.625   1.552   2.532 -0.5768  0.8392 -0.5803
   17MOL   H68912561   1.598   1.402   2.626  2.2753 -0.2295 -0.2112
   17MOL   H69012562   1.492   1.681   2.699  1.9923 -0.3948  0.7340
   17MOL   H69112563   1.456   1.530   2.783 -0.8141 -1.4328 -0.6419
   17MOL   H69212564   1.349   1.441   2.564 -0.4563 -0.0551 -1.1436
   17MOL   H69312565   1.362   1.610   2.513 -0.2457  0.6675 -0.4811
   17MOL   H69412566   1.201   1.506   2.758  0.3596 -1.2177 -0.8950
   17MOL   H69512567   1.134   1.559   2.597 -1.6369  1.9003  1.1189
   17MOL   H69612568   1.195   1.796   2.646  2.4135 -0.8434 -0.2970
   17MOL   H69712569   1.294   1.747   2.776 -0.3927 -2.4830  1.3370
   17MOL   H69812570   1.009   1.680   2.790  1.2120 -0.0604 -0.7073
   17MOL   H69912571   1.041   1.842   2.832 -1.1416 -0.2829 -0.8788
   17MOL   H70012572   1.200   1.728   3.015  0.9451 -1.3361 -0.3647
   17MOL   H70112573   1.144   1.578   2.958 -0.5667 -0.1391 -0.7706
   17MOL   H70212574   0.908   1.645   3.007  0.9759 -1.9851 -0.3535
   17MOL   H70312575   0.933   1.799   3.047 -1.8871 -0.8640  1.7237
   17MOL   H70412576   1.026   1.573   3.221  1.1083 -0.0484 -1.3871
   17MOL   C70512577   1.064   1.742   3.291  0.2616  0.0357 -0.1417
   17MOL   O70612578   1.069   1.864   3.282  0.2297 -0.4713  0.0166
   17MOL   C70712579   1.122   1.664   3.412 -0.0621 -0.5526 -0.3420
   17MOL   C70812580   1.163   1.763   3.526 -0.5532  0.1587  0.5924
   17MOL   C70912581   1.299   1.838   3.499 -0.2491  0.0525 -0.8386
   17MOL   C71012582   1.336   1.963   3.577 -0.1731  0.0849 -0.0206
   17MOL   C71112583   1.473   2.024   3.534  0.0101 -0.5751 -0.4006
   17MOL   C71212584   1.527   2.130   3.636  0.3304 -0.2948  0.5964
   17MOL   C71312585   1.617   2.245   3.566 -0.7562  0.4907 -0.3832
   17MOL   C71412586   1.641   2.375   3.652  0.6879  0.5829 -0.7227
   17MOL   C71512587   1.509   2.454   3.675  0.0377 -0.4272  0.6494
   17MOL   C71612588   1.530   2.584   3.745  0.9410  0.0340 -0.3420
   17MOL   C71712589   1.404   2.662   3.741  0.4853  0.4698  0.0597
   17MOL   N71812590   1.426   2.790   3.795  0.8000 -0.2249  0.0381
   17MOL   H71912591   1.204   1.601   3.378 -1.0096 -1.1923 -1.5005
   17MOL   H72012592   1.055   1.585   3.446  3.3272 -3.7580 -0.9074
   17MOL   H72112593   1.087   1.840   3.537 -0.4342  0.6732 -1.9695
   17MOL   H72212594   1.168   1.706   3.619 -3.1066 -1.0751  0.0344
   17MOL   H72312595   1.294   1.864   3.393 -2.5145 -0.9596 -1.0132
   17MOL   H72412596   1.379   1.765   3.497  0.1071  0.4316 -0.4550
   17MOL   H72512597   1.261   2.040   3.558  1.2487  1.2620 -0.9994
   17MOL   H72612598   1.343   1.941   3.684 -0.0284  2.2718  0.4537
   17MOL   H72712599   1.462   2.063   3.433  0.9455  0.8236  0.0150
   17MOL   H72812600   1.539   1.938   3.538 -1.5528 -1.7375  0.9165
   17MOL   H72912601   1.572   2.089   3.726 -0.7990  0.8339  1.7074
   17MOL   H73012602   1.437   2.184   3.667  0.4862  0.0639  0.4312
   17MOL   H73112603   1.589   2.276   3.466  0.1730 -1.0099 -1.1134
   17MOL   H73212604   1.712   2.194   3.554 -0.6088  1.1324 -2.0391
   17MOL   H73312605   1.711   2.445   3.606  1.0539  0.3241 -0.5601
   17MOL   H73412606   1.670   2.344   3.752 -1.9722  1.0224  0.2455
   17MOL   H73512607   1.435   2.414   3.744 -0.9352  0.0257 -0.1116
   17MOL   H73612608   1.452   2.471   3.583  0.4190 -1.1636  0.2752
   17MOL   H73712609   1.607   2.649   3.702  1.7530  0.3367  1.5358
   17MOL   H73812610   1.552   2.572   3.851 -0.2426 -1.5028 -0.2643
   17MOL   H73912611   1.319   2.613   3.788  1.9587 -0.1862  2.1300
   17MOL   H74012612   1.361   2.681   3.643 -1.4638  1.4129  1.0599
   17MOL   H74112613   1.346   2.850   3.800  1.9416  1.4466 -1.2551
   17MOL   H74212614   1.461   2.779   3.889 -0.2142 -1.1455  0.3197
   18MOL     C112615   6.377   2.351   0.362 -0.3294 -0.3957 -0.5511
   18MOL     O212616   6.340   2.347   0.479 -0.3056  0.1913  0.2585
   18MOL     C312617   6.458   2.463   0.305  0.5655  0.6543  0.5541
   18MOL     C412618   6.418   2.608   0.336  0.2544  0.2668 -0.0760
   18MOL     C512619   6.279   2.656   0.281 -0.0611 -0.1966 -0.0477
   18MOL     C612620   6.280   2.666   0.130 -0.3609 -0.6207 -0.4735
   18MOL     C712621   6.352   2.800   0.091 -0.2981  0.4909 -0.3104
   18MOL     C812622   6.352   2.805   7.630  0.8061  0.6878  0.0290
   18MOL     C912623   6.391   2.949   7.579 -0.1080  0.4922 -0.1481
   18MOL    C1012624   6.524   3.002   7.632 -0.5346  0.2214 -0.0534
   18MOL    C1112625   6.578   3.109   7.539  1.0549 -0.4342 -0.4538
   18MOL    C1212626   6.707   3.172   7.586  0.5613  0.0454 -0.5890
   18MOL    C1312627   6.779   3.269   7.489  0.0167  0.0366 -0.1910
   18MOL    N1412628   6.710   3.393   7.480  0.4926 -0.5062 -0.0828
   18MOL    H1512629   6.438   2.448   0.199  1.6019 -0.0867  0.4550
   18MOL    H1612630   6.565   2.455   0.328  0.7046  3.4611  1.0714
   18MOL    H1712631   6.405   2.606   0.444  0.6965 -0.6721 -0.0399
   18MOL    H1812632   6.499   2.668   0.295  0.4681  1.0476  1.4425
   18MOL    H1912633   6.254   2.746   0.337 -0.5793  0.0144 -0.6139
   18MOL    H2012634   6.195   2.588   0.298 -0.0095 -0.2225  0.1012
   18MOL    H2112635   6.319   2.577   0.081 -1.0256 -2.0337  1.5269
   18MOL    H2212636   6.181   2.668   0.085 -0.7780  2.7563  0.4192
   18MOL    H2312637   6.454   2.797   0.130 -0.4858  0.3158  0.1727
   18MOL    H2412638   6.295   2.883   0.133  0.6398  1.6724 -1.3336
   18MOL    H2512639   6.266   2.757   7.583  0.0810  0.8532  1.1590
   18MOL    H2612640   6.435   2.740   7.602  0.7616  0.7245 -0.1906
   18MOL    H2712641   6.303   3.011   7.601  0.8734  1.3072  1.6045
   18MOL    H2812642   6.401   2.927   7.473 -0.5272 -3.0996  0.5011
   18MOL    H2912643   6.600   2.924   7.636 -1.4647 -0.6080  2.5983
   18MOL    H3012644   6.525   3.044   0.039 -1.2516  0.2839 -0.0716
   18MOL    H3112645   6.504   3.188   7.556 -2.0231 -3.7476  2.1643
   18MOL    H3212646   6.578   3.061   7.441  1.9450 -3.7055  1.0952
   18MOL    H3312647   6.784   3.096   7.596 -0.2726 -0.7964 -0.4742
   18MOL    H3412648   6.693   3.216   7.685  0.1046 -1.0217 -0.1692
   18MOL    H3512649   6.786   3.226   7.389 -0.2668  0.3029 -0.3278
   18MOL    H3612650   6.877   3.295   7.530  0.5587  2.1088 -2.6634
   18MOL    H3712651   6.732   3.461   7.551 -1.6072  0.6469 -0.5178
   18MOL    H3812652   6.349   2.275   0.288 -4.0625  0.1531  0.1756
   18MOL    C3912653   6.650   3.449   7.383 -0.3677  0.0095  0.4159
   18MOL    O4012654   6.644   3.407   7.269 -0.3016  0.3965  0.8233
   18MOL    C4112655   6.593   3.588   7.406 -0.1822 -0.2420  0.5254
   18MOL    C4212656   6.444   3.598   7.402 -0.1710 -0.3172  0.0974
   18MOL    C4312657   6.375   3.521   7.512 -0.1343  0.2499 -0.1892
   18MOL    C4412658   6.220   3.506   7.488 -0.0891  0.4780  0.6884
   18MOL    C4512659   6.149   3.427   7.596 -0.0810  0.2383  0.2443
   18MOL    C4612660   6.001   3.399   7.558  0.6548  0.2821 -0.8210
   18MOL    C4712661   5.916   3.338   7.669  0.5964 -0.0144 -0.1875
   18MOL    C4812662   5.922   3.421   0.107 -0.1857  0.2190  0.6930
   18MOL    C4912663   5.826   3.365   0.210  0.2335  0.2167 -0.3660
   18MOL    C5012664   5.782   3.466   0.323  0.0843 -0.6766 -0.5701
   18MOL    C5112665   5.698   3.381   0.410 -0.5272 -0.2316  0.1234
   18MOL    N5212666   5.661   3.465   0.519 -0.5521  0.4128 -0.5817
   18MOL    H5312667   6.629   3.658   7.330 -0.5993 -2.2048 -1.5372
   18MOL    H5412668   6.632   3.629   7.499  1.3407 -0.8284  0.1725
   18MOL    H5512669   6.408   3.700   7.417 -2.2780 -1.3817  2.8110
   18MOL    H5612670   6.409   3.552   7.310 -1.0848  0.4325  0.0641
   18MOL    H5712671   6.384   3.576   7.605 -0.5053 -1.2909  0.7647
   18MOL    H5812672   6.421   3.422   7.512  0.9843  0.7568 -0.9969
   18MOL    H5912673   6.173   3.604   7.487 -1.1645 -0.0286 -1.0610
   18MOL    H6012674   6.198   3.450   7.397  0.5186  2.3000 -0.6036
   18MOL    H6112675   6.160   3.495   7.681  0.5186  1.2770 -0.6403
   18MOL    H6212676   6.204   3.336   7.618 -0.9050 -0.8754 -2.1757
   18MOL    H6312677   6.005   3.335   7.470 -0.8116  2.4731 -2.5367
   18MOL    H6412678   5.961   3.497   7.533  0.5633  0.4476 -0.0165
   18MOL    H6512679   5.938   3.233   7.688 -0.3949 -0.1042  0.5252
   18MOL    H6612680   5.811   3.352   7.642  0.8646  1.4025 -0.5141
   18MOL    H6712681   5.904   3.528   0.095  0.2431  0.3095  0.8209
   18MOL    H6812682   6.025   3.423   0.143 -0.0515 -2.7998  0.5556
   18MOL    H6912683   5.850   3.270   0.258  1.6722 -0.1400 -1.7321
   18MOL    H7012684   5.738   3.351   0.148  1.2478 -3.1022 -1.1096
   18MOL    H7112685   5.729   3.547   0.274  0.2740 -1.1717 -1.6043
   18MOL    H7212686   5.876   3.508   0.361  0.2796 -1.2695 -0.4014
   18MOL    H7312687   5.758   3.299   0.448  1.8071 -0.3402 -3.5825
   18MOL    H7412688   5.602   3.354   0.366  0.1048  0.1762 -1.5200
   18MOL    H7512689   5.710   3.467   0.607  1.2583 -1.2814 -1.5103
   18MOL    C7612690   5.566   3.553   0.513 -0.4501 -0.3590 -0.1606
   18MOL    O7712691   5.507   3.575   0.409 -0.0029  0.1846  0.2202
   18MOL    C7812692   5.540   3.634   0.639 -0.0162  0.5306  0.0570
   18MOL    C7912693   5.508   3.779   0.618 -0.3492 -0.7357 -0.4895
   18MOL    C8012694   5.553   3.869   0.744 -0.2992  0.0666 -0.2109
   18MOL    C8112695   5.512   4.014   0.721 -0.4589  0.0510  0.2073
   18MOL    C8212696   5.557   4.095   0.841 -0.4916 -0.4956  0.0203
   18MOL    C8312697   5.497   4.233   0.850 -0.1763  0.0119  0.9491
   18MOL    C8412698   5.566   4.304   0.970 -0.0933  0.4240 -0.6296
   18MOL    C8512699   5.554   4.454   0.966 -1.1522  0.2620 -0.6058
   18MOL    C8612700   5.413   4.515   0.982 -0.3043  0.4070  0.6408
   18MOL    C8712701   5.431   4.668   0.993  0.9037  0.1243 -0.5279
   18MOL    C8812702   5.294   4.725   1.002  0.0617 -1.1928 -0.2172
   18MOL    N8912703   5.299   4.867   1.032 -0.5763 -0.4772 -0.2654
   18MOL    H9012704   5.629   3.627   0.703  1.7681  0.5376 -2.3623
   18MOL    H9112705   5.457   3.580   0.683 -0.5415  1.5578  0.3546
   18MOL    H9212706   5.547   3.825   0.527  1.8424 -0.3871  0.5810
   18MOL    H9312707   5.400   3.776   0.633 -0.1387  0.3630  1.5141
   18MOL    H9412708   5.658   3.858   0.770  0.5263  0.1094 -3.2685
   18MOL    H9512709   5.496   3.832   0.829 -0.5196  0.0065 -0.3831
   18MOL    H9612710   5.556   4.055   0.630  0.3150 -1.9505 -0.3439
   18MOL    H9712711   5.405   4.024   0.704 -0.4973  1.3178  1.1179
   18MOL    H9812712   5.666   4.105   0.844 -0.5751  0.0195  2.8762
   18MOL    H9912713   5.523   4.041   0.929 -0.9755  1.1524  0.8539
   18MOL   H10012714   5.388   4.227   0.847 -0.2082 -1.2404  3.4292
   18MOL   H10112715   5.537   4.287   0.764 -1.3157  1.8150  1.5253
   18MOL   H10212716   5.672   4.281   0.961  0.8459  2.7983  3.3747
   18MOL   H10312717   5.548   4.267   1.071  3.3361  0.7202  0.1417
   18MOL   H10412718   5.597   4.484   0.870 -0.2983  2.3191  0.3959
   18MOL   H10512719   5.629   4.493   1.035 -1.2757 -0.0014 -0.3180
   18MOL   H10612720   5.368   4.461   1.065  1.9279 -0.0458  1.5923
   18MOL   H10712721   5.359   4.489   0.892 -1.8745  1.4644  1.2539
   18MOL   H10812722   5.466   4.724   0.907  1.0335  1.2258  0.2365
   18MOL   H10912723   5.477   4.703   1.085  0.2656 -0.1122 -0.1102
   18MOL   H11012724   5.234   4.675   1.078 -0.9258  0.8804  0.4130
   18MOL   H11112725   5.243   4.715   0.906  1.8155  0.5937 -1.3826
   18MOL   H11212726   5.378   4.929   1.025 -0.3853 -0.6023  0.6971
   18MOL   C11312727   5.197   4.944   1.075  0.3400  0.1020  0.9221
   18MOL   O11412728   5.077   4.898   1.076  0.1999 -0.0935 -0.6492
   18MOL   C11512729   5.224   5.089   1.104  0.4201  0.6877 -0.5148
   18MOL   C11612730   5.136   5.140   1.219  0.6212 -0.0619  0.2425
   18MOL   C11712731   5.201   5.268   1.259 -0.2650  0.3717  0.5730
   18MOL   C11812732   5.178   5.378   1.143  0.1673 -0.6413  0.2944
   18MOL   C11912733   5.230   5.517   1.168  0.3339  0.4799 -0.3734
   18MOL   C12012734   5.184   5.618   1.066  0.5233  0.4545  0.1035
   18MOL   C12112735   5.244   5.762   1.090  0.2429 -0.2826  0.5168
   18MOL   C12212736   5.160   5.837   1.196 -0.3776 -0.2994 -0.0329
   18MOL   C12312737   5.037   5.912   1.141 -0.1438 -0.1690  0.0447
   18MOL   C12412738   4.983   6.008   1.242 -0.4689 -0.5218 -0.1167
   18MOL   C12512739   4.873   6.106   1.197 -0.0008  0.1665  0.8016
   18MOL   N12612740   4.856   6.213   1.296 -0.7159 -0.4523 -0.3559
   18MOL   H12712741   5.194   5.142   1.014 -3.3905  2.0047  1.4059
   18MOL   H12812742   5.332   5.098   1.118  0.6035 -3.7172  1.9897
   18MOL   H12912743   5.030   5.149   1.194  1.2439 -0.7163 -2.9538
   18MOL   H13012744   5.148   5.062   1.294 -0.0381 -1.3687 -0.9830
   18MOL   H13112745   5.302   5.257   1.298  0.9453  1.6248 -2.0176
   18MOL   H13212746   5.159   5.304   1.353  0.9350  3.1501  0.1171
   18MOL   H13312747   5.230   5.348   1.052 -0.4945  0.7613 -0.5642
   18MOL   H13412748   5.071   5.386   1.123  0.3756  1.9733  0.0936
   18MOL   H13512749   5.337   5.507   1.154  0.1985  0.0140 -1.1127
   18MOL   H13612750   5.189   5.549   1.264 -0.5812  2.2750 -1.3326
   18MOL   H13712751   5.077   5.617   1.043  0.2443  0.4807  1.3766
   18MOL   H13812752   5.226   5.587   0.971  2.0916 -1.5323  1.4110
   18MOL   H13912753   5.240   5.820   0.997 -0.7109  0.0498  0.7569
   18MOL   H14012754   5.348   5.752   1.118  1.0394 -3.1675 -3.0414
   18MOL   H14112755   5.228   5.909   1.240  1.1382 -0.1253 -2.6026
   18MOL   H14212756   5.126   5.767   1.272 -1.0912  0.2735  0.1797
   18MOL   H14312757   4.960   5.837   1.120  1.1793 -1.0304 -1.8387
   18MOL   H14412758   5.060   5.976   1.056  2.1218 -0.5743  0.3216
   18MOL   H14512759   5.067   6.069   1.275 -0.0651 -0.0806 -1.9124
   18MOL   H14612760   4.968   5.949   1.332  0.3039  0.0323  0.3840
   18MOL   H14712761   4.779   6.054   1.181 -2.0797  3.5081  1.5872
   18MOL   H14812762   4.897   6.148   1.100 -0.9327  1.4434  1.0947
   18MOL   H14912763   4.924   6.210   1.371 -0.2972 -1.7575 -0.7776
   18MOL   C15012764   4.738   6.275   1.325 -0.1052 -0.4667  0.8221
   18MOL   O15112765   4.641   6.267   1.247 -0.2107 -0.5424 -0.7661
   18MOL   C15212766   4.729   6.354   1.459 -0.2333  0.0313  0.1436
   18MOL   C15312767   4.755   6.499   1.456  0.1910  0.0677  0.1341
   18MOL   C15412768   4.906   6.536   1.463 -0.2995  0.0709  0.2486
   18MOL   C15512769   4.926   6.687   1.466 -0.5721 -0.8288 -0.0777
   18MOL   C15612770   4.877   6.748   1.595 -0.0406 -0.2648 -0.2589
   18MOL   C15712771   4.924   6.896   1.612  0.2527 -0.1120 -0.3741
   18MOL   C15812772   4.876   6.967   1.743 -0.0128 -0.1128 -0.9362
   18MOL   C15912773   4.724   6.994   1.734 -0.8676  0.2192 -0.3321
   18MOL   C16012774   4.693   7.128   1.659  0.4758  0.2423 -0.3911
   18MOL   C16112775   4.715   7.246   1.754  0.0768 -0.2396  0.4733
   18MOL   C16212776   4.699   7.393   1.701 -0.1504 -0.1842  0.1953
   18MOL   N16312777   4.589   7.405   1.610  0.5118  0.3959  0.5269
   18MOL   H16412778   4.790   6.309   1.538 -0.7060  0.6987  0.9025
   18MOL   H16512779   4.632   6.342   1.508  0.6372  0.2066  1.9628
   18MOL   H16612780   4.703   6.543   1.371  2.4009  2.2422 -0.1636
   18MOL   H16712781   4.708   6.545   1.543  1.6735  0.3661  0.7931
   18MOL   H16812782   4.958   6.479   1.386  0.1060  0.7064  0.0364
   18MOL   H16912783   4.958   6.507   1.555 -0.1685 -0.6915 -0.0674
   18MOL   H17012784   5.033   6.708   1.456 -0.4613 -1.4996 -0.3378
   18MOL   H17112785   4.881   6.741   1.383 -0.5408  0.2184  0.5697
   18MOL   H17212786   4.905   6.691   1.684  0.3068 -1.8387 -1.3666
   18MOL   H17312787   4.769   6.741   1.582  0.4015 -3.5686 -2.5282
   18MOL   H17412788   4.891   6.960   1.529  1.5727  0.9679 -0.0772
   18MOL   H17512789   5.033   6.894   1.611  0.2739 -0.9203  1.4990
   18MOL   H17612790   4.926   7.064   1.751  0.7793 -0.6839  1.8285
   18MOL   H17712791   4.911   6.901   1.823  3.1776 -0.1356 -2.2554
   18MOL   H17812792   4.695   7.007   1.838 -1.5795 -0.4747 -0.4392
   18MOL   H17912793   4.667   6.905   1.708 -1.0702  0.5131 -0.9310
   18MOL   H18012794   4.587   7.123   1.633  0.3041 -2.8815  0.7008
   18MOL   H18112795   4.748   7.136   1.565  0.6676 -0.4125 -0.3414
   18MOL   H18212796   4.815   7.248   1.798  0.5685 -1.1651 -0.5875
   18MOL   H18312797   4.642   7.236   1.835 -0.4824  0.7006  0.0851
   18MOL   H18412798   4.787   7.425   1.645 -0.4724  1.9133  0.8306
   18MOL   H18512799   4.691   7.467   1.780  0.2207  0.6302 -0.5253
   18MOL   H18612800   4.497   7.412   1.650 -0.7184 -1.0775 -1.9117
   18MOL   C18712801   4.590   7.402   1.478  0.7206 -0.4312 -0.4728
   18MOL   O18812802   4.691   7.390   1.413  0.2969 -0.0308  0.5326
   18MOL   C18912803   4.451   7.415   1.402 -0.3998 -0.5269  0.1366
   18MOL   C19012804   4.453   7.406   1.247  0.0432  0.3983  0.3716
   18MOL   C19112805   4.326   7.422   1.175 -0.0191 -0.3425 -0.0567
   18MOL   C19212806   4.338   7.436   1.029  0.4711 -0.4655  0.8083
   18MOL   C19312807   4.212   7.414   0.941 -0.0548 -0.3249 -0.5722
   18MOL   C19412808   4.240   7.446   0.790 -0.2330 -0.1376  0.3592
   18MOL   C19512809   4.119   7.418   0.698 -0.1316  0.2021 -0.8012
   18MOL   C19612810   3.996   7.505   0.723  0.6463  0.4219 -0.2407
   18MOL   C19712811   3.870   7.449   0.657 -0.0013  0.6935  0.3508
   18MOL   C19812812   3.743   7.533   0.678  0.0104  0.1659  0.2431
   18MOL   C19912813   3.725   7.628   0.559 -0.0127 -0.2482  0.1361
   18MOL   N20012814   3.650   7.570   0.449  0.2514  0.2087  0.7374
   18MOL   H20112815   4.404   7.512   1.421 -0.4289 -0.0754 -2.0552
   18MOL   H20212816   4.378   7.342   1.438 -0.4115 -0.4904  0.1864
   18MOL   H20312817   4.527   7.477   1.212  0.5590  0.4740  1.5901
   18MOL   H20412818   4.487   7.306   1.219 -0.6748  0.1235  0.4617
   18MOL   H20512819   4.287   7.511   1.225 -0.1143 -2.1354  3.1578
   18MOL   H20612820   4.266   7.336   1.202 -0.8954  0.7295  1.5396
   18MOL   H20712821   4.385   7.531   1.006  0.4619 -0.8774 -0.9849
   18MOL   H20812822   4.409   7.362   0.993 -0.0089 -0.6834  0.2956
   18MOL   H20912823   4.139   7.487   0.976  1.9087  1.1882  0.4755
   18MOL   H21012824   4.174   7.314   0.958 -3.1809  0.4558 -2.7276
   18MOL   H21112825   4.333   7.394   0.767 -0.0426 -0.0709  0.9791
   18MOL   H21212826   4.266   7.551   0.786 -1.5390  0.1443 -1.7127
   18MOL   H21312827   4.103   7.310   0.700  0.2135  0.1316  3.5960
   18MOL   H21412828   4.155   7.458   0.603  0.2488  2.2744  0.1794
   18MOL   H21512829   4.003   7.605   0.680  0.9583  1.1964  1.5837
   18MOL   H21612830   3.974   7.515   0.829 -2.0577  0.5157 -0.7880
   18MOL   H21712831   3.854   7.355   0.710  0.1374  1.3403  1.5716
   18MOL   H21812832   3.898   7.434   0.553 -0.8992 -1.7370  0.4190
   18MOL   H21912833   3.761   7.586   0.772  1.1062  0.6328 -0.2175
   18MOL   H22012834   3.651   7.476   0.694 -0.5667  0.4878 -1.7947
   18MOL   H22112835   3.824   7.662   0.528 -1.3345  2.5168 -1.3160
   18MOL   H22212836   3.682   0.028   0.596 -0.0990 -0.0105 -0.5568
   18MOL   H22312837   3.550   7.567   0.456  0.1890 -0.2740 -0.2832
   18MOL   C22412838   3.699   7.546   0.325  0.3702  0.3645 -0.6049
   18MOL   O22512839   3.813   7.561   0.302 -0.0210 -0.2779  0.6315
   18MOL   C22612840   3.596   7.497   0.217 -0.3315  0.6039 -0.1798
   18MOL   C22712841   3.658   7.407   0.110 -0.0839 -0.0473 -0.7782
   18MOL   C22812842   3.672   7.262   0.156 -0.6531 -0.4020 -0.2507
   18MOL   C22912843   3.546   7.179   0.195 -0.3039  0.1669  0.0570
   18MOL   C23012844   3.561   7.114   0.333  0.6336  0.4592  0.8349
   18MOL   C23112845   3.555   7.201   0.455 -0.1941 -0.8970  0.6153
   18MOL   C23212846   3.617   7.131   0.574 -0.5625 -0.4561  0.0731
   18MOL   C23312847   3.552   7.157   0.706  0.6155  0.7350  0.4527
   18MOL   C23412848   3.412   7.091   0.722  0.4764  0.1232 -0.3732
   18MOL   C23512849   3.351   7.119   0.864  0.2804  0.3562  0.1275
   18MOL   C23612850   3.219   7.048   0.894 -0.8658 -0.1845  0.2735
   18MOL   N23712851   3.231   6.903   0.893  0.1177  0.6919 -0.5988
   18MOL   H23812852   3.540   7.579   0.174 -0.4529  0.0023 -1.1930
   18MOL   H23912853   3.515   7.438   0.261 -0.6350  0.8220 -0.4401
   18MOL   H24012854   3.600   7.403   0.017 -2.5471  1.3547  0.6497
   18MOL   H24112855   3.759   7.441   0.085  0.4572 -0.7184  0.4837
   18MOL   H24212856   3.741   7.253   0.240 -0.3362  2.7141 -0.1044
   18MOL   H24312857   3.741   7.226   0.079  1.0486  0.2080  0.9664
   18MOL   H24412858   3.450   7.228   0.180 -0.9664 -1.0727  0.1610
   18MOL   H24512859   3.551   7.102   0.117 -0.1514  0.1813  0.0520
   18MOL   H24612860   3.656   7.059   0.330  0.3723  0.0766 -1.2586
   18MOL   H24712861   3.478   7.045   0.348  2.1081 -1.4220  0.6288
   18MOL   H24812862   3.450   7.227   0.469 -0.2677 -0.7869 -0.1369
   18MOL   H24912863   3.606   7.297   0.445 -0.0957 -0.9057  1.0025
   18MOL   H25012864   3.712   7.183   0.585 -1.6380  1.7219 -0.7538
   18MOL   H25112865   3.639   7.024   0.565 -0.5766 -0.3288 -1.5007
   18MOL   H25212866   3.544   7.265   0.703  1.3259  0.7528 -1.3649
   18MOL   H25312867   3.624   7.132   0.784  1.0399 -0.8788 -0.4077
   18MOL   H25412868   3.422   6.984   0.703 -0.4731 -0.3151  1.4419
   18MOL   H25512869   3.345   7.134   0.648 -1.3328 -0.3529  0.9486
   18MOL   H25612870   3.333   7.225   0.883  0.1762  0.6968 -1.7506
   18MOL   H25712871   3.425   7.091   0.939  0.5265 -2.8351 -1.2227
   18MOL   H25812872   3.150   7.084   0.817  0.3629  1.1377 -0.2215
   18MOL   H25912873   3.180   7.082   0.990 -2.5237  0.7245 -0.6904
   18MOL   H26012874   3.311   6.872   0.841  0.6239  0.9822  0.0078
   18MOL   C26112875   3.136   6.819   0.929 -0.7360  0.0408 -0.2766
   18MOL   O26212876   3.029   6.842   0.986 -0.0171 -0.6514  0.2108
   18MOL   C26312877   3.172   6.672   0.908  0.2841 -0.6230 -0.5063
   18MOL   C26412878   3.087   6.596   0.808  0.2566  0.8452 -0.7624
   18MOL   C26512879   3.141   6.619   0.663  0.5181 -0.2778  0.1325
   18MOL   C26612880   3.074   6.536   0.544 -0.0637  0.2229 -0.0355
   18MOL   C26712881   2.923   6.557   0.541 -0.7623 -0.2863 -0.1262
   18MOL   C26812882   2.871   6.479   0.416  1.2145  0.0384  0.5437
   18MOL   C26912883   2.717   6.498   0.396 -0.4260  0.4149  0.3891
   18MOL   C27012884   2.683   6.449   0.257  0.4829 -0.0674  0.5322
   18MOL   C27112885   2.529   6.445   0.231  1.0832  0.2516  0.4351
   18MOL   C27212886   2.458   6.580   0.223 -0.2931 -0.0578 -0.0279
   18MOL   C27312887   2.302   6.582   0.196  0.3999 -0.1794 -0.3021
   18MOL   N27412888   2.268   6.517   0.075  0.5038  0.0046 -0.2783
   18MOL   H27512889   3.161   6.626   1.006 -1.8412 -2.4861 -1.5758
   18MOL   H27612890   3.280   6.661   0.899  0.5697 -0.3609  2.3797
   18MOL   H27712891   3.090   6.487   0.815  0.4134  0.9106  0.2123
   18MOL   H27812892   2.983   6.630   0.812 -0.2438 -0.6094 -1.1121
   18MOL   H27912893   3.250   6.606   0.663  0.9131  2.5480  1.2435
   18MOL   H28012894   3.132   6.726   0.641 -0.2078 -0.3851 -0.0872
   18MOL   H28112895   3.106   6.577   0.448  0.6197  1.1006  0.5536
   18MOL   H28212896   3.094   6.429   0.544  2.4871  0.6526  0.5520
   18MOL   H28312897   2.898   6.663   0.532 -0.7730 -0.4590 -2.6953
   18MOL   H28412898   2.877   6.522   0.633  0.7166 -2.1857 -0.0928
   18MOL   H28512899   2.899   6.375   0.433 -1.2656 -0.6954  0.4184
   18MOL   H28612900   2.922   6.517   0.327  0.9945  0.2959  0.5267
   18MOL   H28712901   2.692   6.604   0.404  2.1973  0.9453  2.4368
   18MOL   H28812902   2.658   6.452   0.475 -0.7322  2.6758  1.5292
   18MOL   H28912903   2.722   6.350   0.232  0.5810 -0.3286  1.7320
   18MOL   H29012904   2.743   6.511   0.191 -0.6432 -0.0510 -0.5076
   18MOL   H29112905   2.473   6.403   0.315 -0.8665  2.1061  0.1273
   18MOL   H29212906   2.507   6.378   0.148 -0.3934 -1.0705  1.8306
   18MOL   H29312907   2.506   6.649   0.153 -0.7098 -0.0890 -0.3450
   18MOL   H29412908   2.475   6.627   0.320  0.8472  0.4697 -0.4714
   18MOL   H29512909   2.271   6.686   0.183 -2.7722 -1.3551 -3.0723
   18MOL   H29612910   2.234   6.550   0.275  0.9955 -1.5643 -0.3328
   18MOL   H29712911   2.298   6.570   7.688 -0.6790  0.7650 -0.2260
   18MOL   C29812912   2.229   6.385   0.073 -0.2657  0.1433  0.0143
   18MOL   O29912913   2.195   6.326   0.168  0.1336 -0.6880 -0.1023
   18MOL   C30012914   2.225   6.320   7.630 -0.3613  0.3045  0.3340
   18MOL   C30112915   2.292   6.179   7.619 -0.3418 -0.1930 -0.0366
   18MOL   C30212916   2.282   6.122   7.476  0.7615  0.0415  0.0755
   18MOL   C30312917   2.316   5.972   7.449  0.0940 -0.2075  0.4895
   18MOL   C30412918   2.469   5.954   7.458 -0.3102 -0.0410  0.5193
   18MOL   C30512919   2.508   5.817   7.409  0.5291  0.2969 -0.0162
   18MOL   C30612920   2.653   5.781   7.430 -0.9135  0.3854  0.1569
   18MOL   C30712921   2.686   5.730   7.574  0.4770  0.3412  0.8930
   18MOL   C30812922   2.830   5.677   7.586 -0.0383 -0.8264 -0.1899
   18MOL   C30912923   2.869   5.618   0.022  0.0274 -0.1655  0.0116
   18MOL   C31012924   3.009   5.554   0.010 -0.2858 -0.3841 -0.4644
   18MOL   N31112925   3.075   5.544   0.145  0.1350  0.3141  0.1676
   18MOL   H31212926   2.259   6.391   7.555 -0.4567  0.3226  0.3084
   18MOL   H31312927   2.120   6.308   7.601  0.3811 -1.1978 -1.8936
   18MOL   H31412928   2.397   6.181   7.647  0.1662 -0.8270 -1.7927
   18MOL   H31512929   2.243   6.119   0.001  2.8921 -2.3442  0.4413
   18MOL   H31612930   2.342   6.189   7.414 -0.8871  1.9496  0.4906
   18MOL   H31712931   2.180   6.122   7.438 -0.6327 -0.5899  3.5777
   18MOL   H31812932   2.264   5.910   7.522 -1.9553 -0.2340 -0.9398
   18MOL   H31912933   2.281   5.928   7.356 -0.6351  1.2641  0.0419
   18MOL   H32012934   2.486   5.965   7.565 -0.3512 -2.1197  0.7607
   18MOL   H32112935   2.518   6.039   7.409  0.8403 -0.8781  0.1910
   18MOL   H32212936   2.491   5.802   7.303 -0.1477 -1.1308  0.2679
   18MOL   H32312937   2.448   5.743   7.462  1.3976 -2.1970 -2.3882
   18MOL   H32412938   2.728   5.858   7.415 -0.7258  0.3335  0.8209
   18MOL   H32512939   2.665   5.706   7.351 -0.0694 -0.3887  1.0016
   18MOL   H32612940   2.620   5.647   7.596  0.7237 -0.1802 -0.3010
   18MOL   H32712941   2.670   5.806   7.651 -1.5779  1.3259 -0.4711
   18MOL   H32812942   2.896   5.762   7.572 -0.6057 -0.0674  1.6588
   18MOL   H32912943   2.840   5.605   7.504  0.5762  0.2963 -1.1088
   18MOL   H33012944   2.783   5.553   0.038 -2.4161  3.3014  1.6034
   18MOL   H33112945   2.864   5.689   0.104 -0.2112  1.4988 -1.4193
   18MOL   H33212946   3.070   5.629   7.655 -0.2006 -0.3776 -0.3474
   18MOL   H33312947   3.021   5.467   7.638  2.4088 -0.1691 -0.3192
   18MOL   H33412948   3.090   5.449   0.177 -0.7469 -0.5560 -1.9662
   18MOL   C33512949   3.134   5.644   0.211 -0.7709  0.1041  0.0599
   18MOL   O33612950   3.143   5.761   0.174 -0.0817 -0.4236 -0.3679
   18MOL   C33712951   3.187   5.606   0.352  0.4923 -0.1120  0.8136
   18MOL   C33812952   3.233   5.722   0.446  0.5159  0.6252  0.0738
   18MOL   C33912953   3.254   5.692   0.595 -0.0020  0.2525  0.1586
   18MOL   C34012954   3.362   5.770   0.669  0.3552 -0.1397  0.1794
   18MOL   C34112955   3.320   5.917   0.688 -0.2006 -0.0330  0.5835
   18MOL   C34212956   3.429   6.009   0.755 -0.2093 -0.0116 -0.0634
   18MOL   C34312957   3.394   6.159   0.766  0.0305 -0.3888  0.5089
   18MOL   C34412958   3.512   6.241   0.837 -0.1202  0.1155  0.3523
   18MOL   C34512959   3.656   6.222   0.786 -0.3894 -0.3263  0.2905
   18MOL   C34612960   3.764   6.310   0.865  0.0561 -0.5852  0.7335
   18MOL   C34712961   3.908   6.292   0.808  0.3253  0.1395  0.1507
   18MOL   N34812962   4.008   6.385   0.860  0.0580  0.7229 -0.1080
   18MOL   H34912963   3.259   5.525   0.338 -0.4804 -1.1752  1.8247
   18MOL   H35012964   3.108   5.556   0.408 -0.2126  1.2840  1.0776
   18MOL   H35112965   3.317   5.771   0.397 -0.0979  0.3848 -1.2224
   18MOL   H35212966   3.157   5.799   0.451  0.2771  0.4595 -0.8967
   18MOL   H35312967   3.280   5.587   0.594  1.6513  0.6527 -0.8524
   18MOL   H35412968   3.160   5.711   0.647 -0.0373  0.3849  0.0475
   18MOL   H35512969   3.384   5.717   0.761 -0.1388 -0.6281  0.0224
   18MOL   H35612970   3.454   5.759   0.612  1.2836  1.2835  1.3909
   18MOL   H35712971   3.229   5.917   0.748 -1.5834 -0.0873 -1.4759
   18MOL   H35812972   3.292   5.962   0.593  1.3419  0.1386  0.1906
   18MOL   H35912973   3.505   6.011   0.676  0.2586  0.8015  0.4030
   18MOL   H36012974   3.475   5.972   0.846  0.0006  1.4058  0.4147
   18MOL   H36112975   3.302   6.168   0.824  1.5199 -2.2263  3.2227
   18MOL   H36212976   3.376   6.183   0.661 -2.9385 -2.5046  0.4647
   18MOL   H36312977   3.510   6.205   0.939  1.4486 -2.0087 -0.3423
   18MOL   H36412978   3.482   6.346   0.842 -0.0792  0.1973 -0.9965
   18MOL   H36512979   3.657   6.251   0.681  1.1149 -3.2323 -0.5552
   18MOL   H36612980   3.678   6.116   0.797  1.2175 -0.0184  0.2570
   18MOL   H36712981   3.760   6.302   0.973 -0.8175 -2.2369  0.5825
   18MOL   H36812982   3.737   6.415   0.851  0.2618 -0.5397  0.6665
   18MOL   H36912983   3.910   6.291   0.699  2.7455  3.5702  0.0691
   18MOL   H37012984   3.942   6.193   0.837  0.2808  0.0516 -0.0940
   18MOL   H37112985   4.071   6.335   0.922 -2.1520 -2.0107  0.0546
   18MOL   C37212986   4.040   6.506   0.810 -0.0435  0.1152  1.0046
   18MOL   O37312987   3.962   6.574   0.751  0.4639  0.7763 -0.4568
   18MOL   C37412988   4.175   6.562   0.854 -0.9551 -0.3610  0.0818
   18MOL   C37512989   4.265   6.594   0.737 -0.2085  0.9001  0.3730
   18MOL   C37612990   4.351   6.473   0.689  0.3413  0.3827 -0.3144
   18MOL   C37712991   4.447   6.496   0.575 -0.4543 -0.3824 -0.0553
   18MOL   C37812992   4.386   6.555   0.443  0.0084  0.4207  0.2293
   18MOL   C37912993   4.455   6.496   0.318  0.3178  0.6031  0.4758
   18MOL   C38012994   4.602   6.541   0.292  0.2075  0.2721  0.4181
   18MOL   C38112995   4.685   6.437   0.215 -0.1404  0.7785  0.8759
   18MOL   C38212996   4.621   6.380   0.089  0.1542 -0.2014  0.3678
   18MOL   C38312997   4.620   6.467   7.655 -0.5905  0.8641  0.7692
   18MOL   C38412998   4.555   6.400   7.531 -0.2731 -0.3958  0.2946
   18MOL   N38512999   4.595   6.479   7.409  0.2508  0.4614  0.0757
   18MOL   H38613000   4.223   6.496   0.926 -0.6830 -0.3761 -0.1120
   18MOL   H38713001   4.163   6.641   0.928 -0.7384 -0.2603  0.0115
   18MOL   H38813002   4.209   6.634   0.652  1.1451  0.1398 -0.8979
   18MOL   H38913003   4.334   6.675   0.762  0.1885  0.3760  0.9835
   18MOL   H39013004   4.287   6.392   0.656 -0.5068  1.6604 -1.8780
   18MOL   H39113005   4.393   6.436   0.782  1.4629  2.7225  0.1519
   18MOL   H39213006   4.532   6.554   0.612 -0.8775  0.2402 -0.0322
   18MOL   H39313007   4.497   6.401   0.559  0.1808 -0.3953  1.8195
   18MOL   H39413008   4.390   6.664   0.451 -0.0819  0.5156 -0.8849
   18MOL   H39513009   4.282   6.524   0.440 -0.1092  0.8529 -0.3148
   18MOL   H39613010   4.390   6.527   0.236 -0.7304  1.0568  1.4691
   18MOL   H39713011   4.459   6.387   0.323  2.1278  0.6466  0.2141
   18MOL   H39813012   4.648   6.555   0.390 -0.2090  0.2390  0.6182
   18MOL   H39913013   4.608   6.642   0.252 -2.1102  0.3956  0.3105
   18MOL   H40013014   4.701   6.347   0.274  1.9139  2.1262  2.4058
   18MOL   H40113015   4.781   6.484   0.198 -0.4427  0.7997 -0.8605
   18MOL   H40213016   4.515   6.358   0.105  0.8002 -1.3020  3.5149
   18MOL   H40313017   4.663   6.283   0.062 -1.8673 -0.6581 -1.3034
   18MOL   H40413018   4.721   6.472   7.614 -0.1160 -2.6166  1.3107
   18MOL   H40513019   4.572   6.563   7.675 -0.6731  1.0205 -0.1652
   18MOL   H40613020   4.447   6.391   7.547  0.1955 -2.8685  2.3389
   18MOL   H40713021   4.587   6.298   7.509 -0.1636 -0.4487  0.7107
   18MOL   H40813022   4.683   6.455   7.364  0.6939  2.0138  0.0799
   18MOL   C40913023   4.514   6.574   7.360  0.1836  0.0919 -0.3526
   18MOL   O41013024   4.412   6.615   7.413  0.5767  0.5284 -0.4544
   18MOL   C41113025   4.562   6.642   7.232 -0.5480 -0.5786  0.5079
   18MOL   C41213026   4.655   6.762   7.254 -0.2320 -0.3695  0.0902
   18MOL   C41313027   4.589   6.887   7.321 -0.0499  0.7223  0.7227
   18MOL   C41413028   4.686   7.004   7.338 -0.9330  0.1800  0.4261
   18MOL   C41513029   4.635   7.102   7.442  0.3881 -0.7953 -0.4656
   18MOL   C41613030   4.723   7.230   7.452 -0.3822 -0.2549  0.1859
   18MOL   C41713031   4.685   7.337   7.340 -0.1218  0.2050 -0.3551
   18MOL   C41813032   4.762   7.472   7.342  0.3149  0.3083 -0.7325
   18MOL   C41913033   4.666   7.595   7.302 -0.2493 -0.3594 -0.0293
   18MOL   C42013034   4.725   0.039   7.327 -0.0588 -0.2737 -0.4631
   18MOL   C42113035   4.647   0.136   7.245  0.5635 -0.5285 -0.0386
   18MOL   N42213036   4.502   0.133   7.276 -0.7514  0.3211 -0.4038
   18MOL   H42313037   4.470   6.674   7.184 -1.7939 -0.3748  2.9503
   18MOL   H42413038   4.600   6.566   7.164  2.7378  0.4132  1.1444
   18MOL   H42513039   4.725   6.721   7.326  1.2973  0.8835 -0.6623
   18MOL   H42613040   4.721   6.785   7.170 -0.5026  1.7490  0.4340
   18MOL   H42713041   4.553   6.858   7.419  2.6684  2.0397  2.1562
   18MOL   H42813042   4.498   6.921   7.270 -0.5503 -0.9137  0.4859
   18MOL   H42913043   4.785   6.971   7.371 -0.1255  0.0803 -1.9857
   18MOL   H43013044   4.696   7.062   7.246  0.4888  0.1486  0.5401
   18MOL   H43113045   4.641   7.044   7.534 -1.3967  1.5612  1.2185
   18MOL   H43213046   4.531   7.130   7.425  0.2745 -0.8408  0.1506
   18MOL   H43313047   4.831   7.214   7.442 -0.3220  0.4718 -0.3992
   18MOL   H43413048   4.706   7.269   7.552  1.5607 -1.0922  0.8698
   18MOL   H43513049   4.581   7.353   7.367  0.3374  1.4956  0.6585
   18MOL   H43613050   4.687   7.296   7.238 -0.5802  1.3719 -0.8357
   18MOL   H43713051   4.855   7.459   7.286  0.2853  1.4128 -1.0555
   18MOL   H43813052   4.778   7.501   7.446 -0.0282  1.1584 -0.9112
   18MOL   H43913053   4.582   7.600   7.372  1.2992 -1.4231  1.9635
   18MOL   H44013054   4.628   7.586   7.200 -0.8072  2.1565 -0.0775
   18MOL   H44113055   4.831   0.047   7.302 -0.3517 -1.0704 -2.0397
   18MOL   H44213056   4.712   0.073   7.429 -0.8715 -0.4968 -0.4908
   18MOL   H44313057   4.648   0.142   7.136 -0.4267 -0.9483 -0.0742
   18MOL   H44413058   4.684   0.236   7.267  1.9851 -0.3726 -2.8888
   18MOL   H44513059   4.479   0.080   7.359 -1.0019 -0.6862 -1.0984
   18MOL   C44613060   4.399   0.178   7.200  0.1556  0.0290  0.2203
   18MOL   O44713061   4.417   0.224   7.083 -0.3950  0.5818 -0.5103
   18MOL   C44813062   4.253   0.175   7.253  0.6454 -0.0741  0.5285
   18MOL   C44913063   4.185   0.315   7.229 -0.3557 -0.9131  0.1536
   18MOL   C45013064   4.033   0.326   7.242  0.6318  0.5182 -0.1696
   18MOL   C45113065   3.988   0.356   7.392 -0.0658 -0.2593 -0.1228
   18MOL   C45213066   3.839   0.344   7.423 -0.9271  0.0456 -0.1575
   18MOL   C45313067   3.789   0.203   7.454 -0.2830  0.2083 -0.2149
   18MOL   C45413068   3.827   0.162   7.598  0.0847 -0.1119  0.1716
   18MOL   C45513069   3.792   0.016   7.638  0.3829 -0.0665 -0.1846
   18MOL   C45613070   3.879   7.603   7.568  0.1766  0.2802 -0.4999
   18MOL   C45713071   4.033   7.623   7.591 -0.3072  0.2170 -0.0416
   18MOL   C45813072   4.112   7.489   7.576  0.3137 -0.1412  0.9150
   18MOL   N45913073   4.244   7.504   7.631  0.4403 -0.0320  0.4616
   18MOL   H46013074   4.253   0.133   7.354  0.5821 -0.3923  0.3978
   18MOL   H46113075   4.203   0.096   7.198  1.6372  0.4909 -1.2393
   18MOL   H46213076   4.243   0.383   7.292  0.0685  0.7956 -2.0322
   18MOL   H46313077   4.206   0.356   7.130 -0.3255 -3.2328 -0.8230
   18MOL   H46413078   3.986   0.230   7.220 -0.1816  0.9946 -0.5144
   18MOL   H46513079   3.991   0.402   7.177  1.4284  1.1978  0.1082
   18MOL   H46613080   4.040   0.287   7.459  1.0589  0.6372 -0.0702
   18MOL   H46713081   4.016   0.459   7.411  1.0913 -0.6993  0.5968
   18MOL   H46813082   3.784   0.388   7.339 -3.1594 -1.7647  0.3534
   18MOL   H46913083   3.808   0.408   7.505 -0.0526 -3.2845  2.8691
   18MOL   H47013084   3.826   0.130   7.383 -1.9476 -1.5115  0.6267
   18MOL   H47113085   3.680   0.200   7.458 -0.2844 -2.6172 -1.4978
   18MOL   H47213086   3.784   0.224   7.677  0.3583 -1.7108  1.5936
   18MOL   H47313087   3.934   0.174   7.616  0.5174  0.6928 -2.6983
   18MOL   H47413088   3.689   0.001   7.607 -0.1658  2.2511  0.4643
   18MOL   H47513089   3.808   7.690   0.050 -1.5448 -0.6707  0.0170
   18MOL   H47613090   3.855   7.603   7.462 -3.5877  0.5377  0.2845
   18MOL   H47713091   3.860   7.502   7.605  0.2204  0.4296 -0.0673
   18MOL   H47813092   4.049   7.663   7.691 -2.6463 -1.0834  0.9041
   18MOL   H47913093   4.076   0.009   7.530  1.4036 -0.4538  0.2614
   18MOL   H48013094   4.117   7.444   7.477  0.1708  0.1534  0.7726
   18MOL   H48113095   4.052   7.415   7.629 -2.1850  0.5808 -0.8157
   18MOL   H48213096   4.249   7.497   0.038 -0.2476  0.2956  0.5182
   18MOL   C48313097   4.352   7.558   7.576 -0.1990 -0.2359  0.3558
   18MOL   O48413098   4.356   7.593   7.458 -0.0965  0.5490 -0.4994
   18MOL   C48513099   4.468   7.607   7.669  0.3819 -0.7636  0.2624
   18MOL   C48613100   4.490   0.062   7.666 -0.9043 -0.2950 -0.0105
   18MOL   C48713101   4.354   0.136   7.669 -0.4389  0.9261 -0.4346
   18MOL   C48813102   4.378   0.290   0.012  0.9751 -0.2584 -0.3316
   18MOL   C48913103   4.241   0.358   0.019  0.1056  0.0802 -0.4601
   18MOL   C49013104   4.241   0.507   0.060  0.1346 -0.3303 -0.1858
   18MOL   C49113105   4.324   0.593   7.661  0.3505 -0.5821  0.6601
   18MOL   C49213106   4.282   0.739   7.669  0.0730 -0.0998  0.2498
   18MOL   C49313107   4.349   0.822   7.553 -0.2898 -0.9128 -1.0472
   18MOL   C49413108   4.377   0.967   7.604 -0.1671  0.0446  0.0205
   18MOL   C49513109   4.483   0.973   0.017  0.1566  0.0010  0.6508
   18MOL   N49613110   4.488   1.109   0.064 -0.1430 -0.4692  0.0784
   18MOL   H49713111   4.556   7.544   7.651 -0.3003 -1.6426 -0.0688
   18MOL   H49813112   4.431   7.588   0.076  2.2567  1.2437  1.3711
   18MOL   H49913113   4.546   0.086   0.063  1.1203  1.6831 -1.7126
   18MOL   H50013114   4.553   0.083   7.580  0.2941 -1.9655  0.4413
   18MOL   H50113115   4.298   0.103   0.063  1.0940 -0.1586  0.1572
   18MOL   H50213116   4.294   0.130   7.579 -0.1188  2.0097 -0.7231
   18MOL   H50313117   4.436   0.298   0.104  2.2592 -0.1514 -1.1322
   18MOL   H50413118   4.429   0.336   7.621  1.8254 -1.8939 -0.7223
   18MOL   H50513119   4.180   0.312   0.097 -0.6131  0.6721 -0.6720
   18MOL   H50613120   4.189   0.343   7.619 -1.5943  1.1302  0.3042
   18MOL   H50713121   4.283   0.514   0.160  0.5287  0.0061 -0.3706
   18MOL   H50813122   4.139   0.542   0.067 -0.2601 -1.0818 -1.8471
   18MOL   H50913123   4.308   0.577   7.555 -0.1063  0.3367  0.5936
   18MOL   H51013124   4.431   0.576   7.670  0.5089 -0.9091 -1.6501
   18MOL   H51113125   4.311   0.764   0.077 -0.1498  1.6143 -0.0988
   18MOL   H51213126   4.174   0.753   7.670  0.3179  1.8253  0.8314
   18MOL   H51313127   4.285   0.820   7.465 -2.7566  0.3467  0.6751
   18MOL   H51413128   4.439   0.775   7.512  1.5725  0.3100  1.5247
   18MOL   H51513129   4.290   1.007   7.657  1.3805  0.2089  2.5174
   18MOL   H51613130   4.398   1.026   7.515 -0.8745  0.0358 -0.1579
   18MOL   H51713131   4.580   0.941   7.673  0.3431  0.6587  0.5608
   18MOL   H51813132   4.457   0.916   0.107 -1.1577  0.3982  0.5370
   18MOL   H51913133   4.397   1.148   0.083  0.4296  1.0460 -0.2216
   18MOL   C52013134   4.595   1.177   0.094  0.5019  0.0433 -0.3807
   18MOL   O52113135   4.701   1.116   0.100 -0.2119  0.2661 -0.0902
   18MOL   C52213136   4.584   1.333   0.135 -0.4359 -0.5647 -0.5729
   18MOL   C52313137   4.603   1.342   0.287  0.7099  0.2803  0.2268
   18MOL   C52413138   4.689   1.448   0.337  0.6110  0.2168 -0.4003
   18MOL   C52513139   4.668   1.490   0.486  0.4069 -0.5508  0.2563
   18MOL   C52613140   4.740   1.410   0.588  0.3731  0.6132  0.6733
   18MOL   C52713141   4.717   1.436   0.736  0.1799  0.3139  0.4401
   18MOL   C52813142   4.777   1.336   0.836 -0.4007 -0.5318  0.4985
   18MOL   C52913143   4.764   1.382   0.980 -0.6932  0.6705 -0.2241
   18MOL   C53013144   4.861   1.318   1.080  0.2393 -0.4310  0.8641
   18MOL   C53113145   4.802   1.310   1.222 -0.1161 -0.4847 -0.7663
   18MOL   C53213146   4.789   1.447   1.285 -0.0036  0.8806 -0.5493
   18MOL   N53313147   4.912   1.509   1.277 -0.7133 -0.5258  0.3906
   18MOL   H53413148   4.481   1.365   0.121  0.4733  2.8483  0.1591
   18MOL   H53513149   4.655   1.390   0.074 -0.5896  0.2575  0.0060
   18MOL   H53613150   4.502   1.359   0.324  0.6534  0.6576 -0.1041
   18MOL   H53713151   4.638   1.251   0.335 -1.6536 -0.4440  0.6449
   18MOL   H53813152   4.661   1.536   0.278 -3.6022 -1.3853 -0.9408
   18MOL   H53913153   4.794   1.432   0.313  1.0846  0.9484  1.0933
   18MOL   H54013154   4.706   1.591   0.496 -1.2561 -0.0039  1.1339
   18MOL   H54113155   4.562   1.485   0.512 -0.0804  2.7250 -0.8471
   18MOL   H54213156   4.846   1.420   0.564  0.2441 -1.4934 -1.0079
   18MOL   H54313157   4.722   1.305   0.562  0.1331  1.1491 -1.4053
   18MOL   H54413158   4.612   1.443   0.763  0.3675  0.3575  1.1667
   18MOL   H54513159   4.738   1.542   0.753  0.4484  0.0613  1.7310
   18MOL   H54613160   4.883   1.332   0.814 -0.8240 -0.6964 -1.5760
   18MOL   H54713161   4.741   1.234   0.820 -2.1031 -0.0834  1.2993
   18MOL   H54813162   4.660   1.363   1.009 -1.4176  0.7537 -2.6195
   18MOL   H54913163   4.785   1.488   0.974 -0.3175  0.4676 -3.3933
   18MOL   H55013164   4.956   1.371   1.075 -1.2444  2.0390 -2.3072
   18MOL   H55113165   4.872   1.211   1.060 -1.4752 -0.8501  1.9848
   18MOL   H55213166   4.865   1.246   1.284 -2.3058 -0.2538  1.7894
   18MOL   H55313167   4.701   1.271   1.216  0.6458 -2.4524 -1.2773
   18MOL   H55413168   4.774   1.446   1.393 -0.0937  3.1373 -0.5217
   18MOL   H55513169   4.719   1.511   1.232 -0.8429  2.6806  2.6342
   18MOL   H55613170   4.925   1.566   1.194  0.3089 -0.2274  0.7466
   18MOL   C55713171   5.016   1.497   1.363  0.9006  0.3822 -0.6639
   18MOL   O55813172   5.000   1.442   1.474 -0.0299  0.2223  0.1898
   18MOL   C55913173   5.151   1.556   1.340  1.0450 -0.3110 -0.8143
   18MOL   C56013174   5.274   1.466   1.357  0.2183 -0.3802 -0.1969
   18MOL   C56113175   5.286   1.334   1.280 -0.2195 -0.0444 -0.1760
   18MOL   C56213176   5.302   1.348   1.126 -0.6392 -0.0346  0.0157
   18MOL   C56313177   5.244   1.221   1.061 -0.6892  0.4608 -0.4508
   18MOL   C56413178   5.236   1.216   0.906 -0.7158 -0.4867  0.2321
   18MOL   C56513179   5.120   1.135   0.847  0.1726 -0.5103  0.2851
   18MOL   C56613180   5.125   1.123   0.694 -0.5025  0.3327  1.0017
   18MOL   C56713181   4.995   1.119   0.604 -0.7414  0.0385  0.9502
   18MOL   C56813182   5.033   1.082   0.457 -0.0505 -0.0399 -0.2886
   18MOL   C56913183   4.916   1.122   0.369  0.4806 -1.3147  0.2021
   18MOL   N57013184   4.954   1.147   0.235 -0.0827 -0.1605  0.4952
   18MOL   H57113185   5.156   1.627   1.424  2.4253  2.1665 -2.9210
   18MOL   H57213186   5.149   1.612   1.246 -0.7506 -0.4198 -0.8722
   18MOL   H57313187   5.367   1.520   1.338  0.6328 -1.8273 -2.4907
   18MOL   H57413188   5.283   1.439   1.462 -0.3611  1.2370  0.2920
   18MOL   H57513189   5.199   1.271   1.302 -0.1101  0.2135  1.0124
   18MOL   H57613190   5.369   1.279   1.325  0.0287  2.1108  2.0893
   18MOL   H57713191   5.230   1.424   1.096 -1.7500 -0.1979  2.1325
   18MOL   H57813192   5.401   1.386   1.101 -0.3586 -2.3763 -2.6408
   18MOL   H57913193   5.143   1.209   1.101 -0.6371 -0.5075 -0.5950
   18MOL   H58013194   5.291   1.128   1.093  0.9021  2.0447  2.0233
   18MOL   H58113195   5.328   1.172   0.869 -1.0092 -0.8173 -0.1017
   18MOL   H58213196   5.231   1.315   0.861 -0.4663  0.0573  1.3625
   18MOL   H58313197   5.024   1.181   0.871 -1.0558 -3.7654  1.9823
   18MOL   H58413198   5.121   1.038   0.897 -1.2046  1.6804  4.8685
   18MOL   H58513199   5.168   1.027   0.666 -1.0831  1.3027 -3.6528
   18MOL   H58613200   5.183   1.205   0.651 -1.6984  0.2072 -0.8849
   18MOL   H58713201   4.952   1.219   0.615 -0.1033  0.1815  2.2176
   18MOL   H58813202   4.924   1.049   0.648  2.5152 -3.1774  1.3487
   18MOL   H58913203   5.052   0.975   0.446 -0.8022 -0.2838  0.6597
   18MOL   H59013204   5.126   1.132   0.433  0.6604 -0.1780  2.0907
   18MOL   H59113205   4.870   1.214   0.405  0.0476 -1.1363 -0.7750
   18MOL   H59213206   4.838   1.045   0.361 -0.5549 -0.2021 -0.6658
   18MOL   H59313207   4.926   1.078   0.167  2.3824 -0.7766  0.0315
   18MOL   C59413208   4.991   1.263   0.179 -0.2060  0.2976 -0.3423
   18MOL   O59513209   5.043   1.352   0.245 -0.1422 -0.6440  0.3170
   18MOL   C59613210   4.982   1.270   0.037  0.0490 -0.2012 -0.0451
   18MOL   C59713211   5.112   1.327   7.665  0.0268  0.0809  0.2552
   18MOL   C59813212   5.108   1.482   7.659  0.0514 -0.4968 -0.3171
   18MOL   C59913213   5.212   1.551   7.564 -0.7064  0.1544  0.8053
   18MOL   C60013214   5.358   1.515   7.585 -0.4396  0.6377  0.4420
   18MOL   C60113215   5.421   1.608   7.688  0.0617  0.3800  0.1602
   18MOL   C60213216   5.558   1.556   0.048  0.1109  0.1013  0.7584
   18MOL   C60313217   5.620   1.618   0.180 -0.4143 -0.3632  0.5446
   18MOL   C60413218   5.761   1.558   0.208 -0.6397 -0.1242  0.3583
   18MOL   C60513219   5.824   1.619   0.341 -0.5617 -0.1750  0.0638
   18MOL   C60613220   5.756   1.591   0.474  0.1762 -0.2939  0.4714
   18MOL   N60713221   5.800   1.691   0.579 -0.3226  0.8850  0.2069
   18MOL   H60813222   4.891   1.328   0.022 -0.1868 -0.9582 -1.6620
   18MOL   H60913223   4.953   1.177   7.683  1.3096 -0.2058 -0.8297
   18MOL   H61013224   5.201   1.299   0.027  1.1925  3.2855  0.0923
   18MOL   H61113225   5.125   1.283   7.566  0.3246 -0.0104  0.3370
   18MOL   H61213226   5.128   1.516   0.067  2.7480 -2.4941 -0.1302
   18MOL   H61313227   5.008   1.512   7.628 -0.4566 -2.0784 -0.2253
   18MOL   H61413228   5.196   1.527   7.459 -1.4257  2.6736  0.3088
   18MOL   H61513229   5.206   1.659   7.570 -0.7494  0.1133  1.5955
   18MOL   H61613230   5.419   1.512   7.495  0.4584  0.9881  1.0361
   18MOL   H61713231   5.368   1.411   7.615  1.3655  1.2246  1.9708
   18MOL   H61813232   5.355   1.617   0.081 -1.4732 -1.9631 -0.7033
   18MOL   H61913233   5.424   1.706   7.642 -0.4881  0.7586  0.9114
   18MOL   H62013234   5.623   1.580   7.658  0.5741  1.5077  1.4971
   18MOL   H62113235   5.561   1.449   0.065 -0.0705 -0.1449 -0.7000
   18MOL   H62213236   5.555   1.581   0.259 -1.8637  2.2824  0.6672
   18MOL   H62313237   5.624   1.727   0.175  1.6876 -0.4175  0.7720
   18MOL   H62413238   5.829   1.592   0.130 -0.4267 -0.1642  0.5260
   18MOL   H62513239   5.742   1.451   0.215  1.0052 -0.4083  0.6535
   18MOL   H62613240   5.824   1.726   0.320 -2.1778 -0.1925 -0.1122
   18MOL   H62713241   5.923   1.574   0.340 -0.4101  0.1243  0.9039
   18MOL   H62813242   5.771   1.486   0.501 -0.6197 -0.4294  0.4004
   18MOL   H62913243   5.650   1.615   0.463 -0.4606 -1.8005  2.7895
   18MOL   H63013244   5.862   1.768   0.562 -1.3207  1.0289 -3.2131
   18MOL   C63113245   5.757   1.674   0.708  0.5104 -0.0311  0.4173
   18MOL   O63213246   5.684   1.586   0.749 -0.0066 -0.4618 -0.4306
   18MOL   C63313247   5.807   1.786   0.799  0.4736  0.9785 -0.2804
   18MOL   C63413248   5.696   1.888   0.847 -0.5678  0.1855 -0.1589
   18MOL   C63513249   5.619   1.965   0.742  0.2856 -0.1079  0.2464
   18MOL   C63613250   5.693   2.070   0.666  0.7312  0.5008  0.2822
   18MOL   C63713251   5.620   2.096   0.531  0.2055 -0.0819 -0.0270
   18MOL   C63813252   5.662   2.209   0.439  0.1982 -0.4524 -0.0384
   18MOL   C63913253   5.806   2.179   0.376  0.1885 -0.3500  0.1598
   18MOL   C64013254   5.870   2.303   0.296  0.6328 -0.4940  0.6484
   18MOL   C64113255   5.911   2.433   0.377 -0.8262  0.4764 -0.0046
   18MOL   C64213256   5.984   2.413   0.512  0.4280  0.4455 -0.5610
   18MOL   C64313257   6.032   2.543   0.579  0.7027  0.0432 -0.3814
   18MOL   N64413258   6.007   2.541   0.717 -0.5416  0.2364 -0.1877
   18MOL   H64513259   5.884   1.837   0.742  0.5429 -0.0475 -1.1304
   18MOL   H64613260   5.854   1.735   0.883 -0.8392 -2.4631 -1.5137
   18MOL   H64713261   5.620   1.834   0.904  0.2488  0.3270  1.0755
   18MOL   H64813262   5.735   1.964   0.915  0.1509  1.7362 -2.2709
   18MOL   H64913263   5.527   2.004   0.786 -0.0028 -1.8224  1.1829
   18MOL   H65013264   5.583   1.888   0.674  3.2768 -0.3267 -1.1526
   18MOL   H65113265   5.704   2.154   0.734 -0.9257  2.5692 -1.9303
   18MOL   H65213266   5.792   2.031   0.644  0.3675 -0.5226  0.4434
   18MOL   H65313267   5.514   2.108   0.556 -0.1651 -3.0135 -0.0304
   18MOL   H65413268   5.617   2.007   0.469  0.2667  2.2513 -3.5197
   18MOL   H65513269   5.672   2.304   0.491  1.1787  0.1419 -1.2847
   18MOL   H65613270   5.587   2.231   0.364  1.5033  1.3791 -0.8311
   18MOL   H65713271   5.796   2.096   0.306  0.5941 -0.9678  0.8218
   18MOL   H65813272   5.885   2.151   0.446 -0.0339  1.7880  1.2994
   18MOL   H65913273   5.808   2.320   0.208  1.5114  4.3303  0.8221
   18MOL   H66013274   5.959   2.260   0.250  1.3283  0.5885  0.9449
   18MOL   H66113275   5.826   2.500   0.394 -0.4590  1.5003 -2.0231
   18MOL   H66213276   5.983   2.488   0.317  1.5440 -0.8418  1.5703
   18MOL   H66313277   6.069   2.347   0.501  1.1247  1.1198  0.7169
   18MOL   H66413278   5.911   2.354   0.568 -0.6900  2.8240  0.5690
   18MOL   H66513279   5.981   2.626   0.530  0.7994  0.8455  0.8527
   18MOL   H66613280   6.136   2.564   0.557  1.3205 -0.4420  1.9344
   18MOL   H66713281   6.044   2.459   0.763 -3.3082  0.6437  2.9184
   18MOL   C66813282   5.925   2.619   0.786 -1.1612  0.0080  0.0892
   18MOL   O66913283   5.861   2.712   0.729  0.5227 -0.1095  0.1925
   18MOL   C67013284   5.931   2.602   0.940  0.3534 -0.6836  0.5755
   18MOL   C67113285   5.896   2.728   1.027  0.4209 -0.1130 -0.3988
   18MOL   C67213286   5.828   2.699   1.170 -0.5609  0.3282  0.0571
   18MOL   C67313287   5.926   2.702   1.295  0.3130 -0.3440 -0.0042
   18MOL   C67413288   5.981   2.565   1.345 -0.0285 -0.5750 -0.0907
   18MOL   C67513289   6.078   2.563   1.455 -0.3812  0.0372 -0.3208
   18MOL   C67613290   6.007   2.555   1.598 -0.4171 -0.4585  0.4671
   18MOL   C67713291   5.978   2.410   1.622  0.6785  0.1705 -0.0456
   18MOL   C67813292   5.905   2.395   1.754 -0.5144  0.9482  0.4769
   18MOL   C67913293   5.869   2.246   1.780 -0.0469  0.1943 -0.2328
   18MOL   C68013294   5.777   2.238   1.897  0.4140 -0.2591  0.7164
   18MOL   N68113295   5.765   2.101   1.940 -0.1901 -0.2692  0.1963
   18MOL   H68213296   6.023   2.558   0.978  0.3400  0.8038  2.4578
   18MOL   H68313297   5.851   2.533   0.965 -0.5716  0.4668  0.8575
   18MOL   H68413298   5.980   2.794   1.046  0.0490  0.6503 -1.3932
   18MOL   H68513299   5.837   2.790   0.960 -0.6686 -2.1491 -1.3678
   18MOL   H68613300   5.754   2.619   1.172 -1.0720  0.8225  1.4595
   18MOL   H68713301   5.758   2.781   1.183 -3.6976 -1.8447 -2.3036
   18MOL   H68813302   6.015   2.762   1.275  0.0743  0.3935  1.1179
   18MOL   H68913303   5.884   2.764   1.374 -0.7582  0.9325 -1.5525
   18MOL   H69013304   6.042   2.532   1.260 -0.6070 -0.7004 -0.4612
   18MOL   H69113305   5.908   2.484   1.343 -1.0043  0.2694  0.9706
   18MOL   H69213306   6.160   2.634   1.447 -0.5355  0.3582  0.8420
   18MOL   H69313307   6.139   2.478   1.426 -1.1520 -0.1762 -1.3555
   18MOL   H69413308   5.918   2.617   1.606 -1.3326 -1.5665 -0.9047
   18MOL   H69513309   6.069   2.601   1.674  0.3679  1.9032 -1.5314
   18MOL   H69613310   6.072   2.356   1.620 -0.1446 -1.2494 -2.4620
   18MOL   H69713311   5.913   2.374   1.542 -0.0976 -1.9152  1.4714
   18MOL   H69813312   5.808   2.444   1.748  0.3084  2.5780  0.2093
   18MOL   H69913313   5.961   2.443   1.834  2.1544 -1.9400  0.4277
   18MOL   H70013314   5.957   2.190   1.812  0.5423  1.7914  1.0152
   18MOL   H70113315   5.818   2.203   1.694  0.4024 -1.1201  0.1479
   18MOL   H70213316   5.686   2.275   1.850  1.3915  0.0105 -1.0301
   18MOL   H70313317   5.806   2.304   1.979 -3.1379 -0.4221  2.1612
   18MOL   H70413318   5.849   2.044   1.943 -0.3811 -0.6339 -1.1619
   18MOL   C70513319   5.654   2.067   2.005 -0.1320  0.4847 -0.0724
   18MOL   O70613320   5.551   2.130   1.992  0.3464  0.4127  0.3357
   18MOL   C70713321   5.658   1.944   2.098 -1.1988 -0.3368 -0.1975
   18MOL   C70813322   5.566   1.825   2.076 -0.6358 -0.1913  0.4083
   18MOL   C70913323   5.424   1.844   2.115 -0.4566 -0.4188  0.4932
   18MOL   C71013324   5.334   1.719   2.124 -0.3304 -0.8550  0.4834
   18MOL   C71113325   5.185   1.747   2.160  0.4310  0.4277 -0.8708
   18MOL   C71213326   5.151   1.691   2.306 -0.7711 -0.2238 -0.1579
   18MOL   C71313327   5.233   1.736   2.427  0.0699  0.3605  0.4610
   18MOL   C71413328   5.182   1.691   2.556  0.0851  0.3432 -0.4101
   18MOL   C71513329   5.261   1.760   2.677 -0.1363  0.8030  0.0046
   18MOL   C71613330   5.230   1.696   2.815  0.4924 -0.6412  0.1515
   18MOL   C71713331   5.300   1.772   2.935 -0.1392 -0.2826  0.2028
   18MOL   N71813332   5.259   1.703   3.056 -0.2534  0.2361  0.1666
   18MOL   H71913333   5.643   1.968   2.204  0.0037 -0.9227  0.1162
   18MOL   H72013334   5.762   1.912   2.100 -0.1755  2.7719 -1.2493
   18MOL   H72113335   5.571   1.789   1.973 -1.6205 -1.0180  0.6432
   18MOL   H72213336   5.614   1.746   2.132  1.6456 -1.7449 -3.5054
   18MOL   H72313337   5.373   1.914   2.049 -1.5091 -0.4941  1.2047
   18MOL   H72413338   5.431   1.897   2.210  2.4074 -0.3248  0.2618
   18MOL   H72513339   5.339   1.670   2.027  0.1436 -1.5505  0.8533
   18MOL   H72613340   5.383   1.653   2.196  3.8400  1.5261  0.0246
   18MOL   H72713341   5.124   1.687   2.092 -0.8284  0.8421 -0.1322
   18MOL   H72813342   5.155   1.851   2.156 -0.4579  0.2307  0.1641
   18MOL   H72913343   5.159   1.582   2.312 -3.0162 -0.5818 -2.4499
   18MOL   H73013344   5.052   1.729   2.332  0.4096  2.6879  0.3178
   18MOL   H73113345   5.240   1.843   2.409  1.2938  0.0443 -1.0473
   18MOL   H73213346   5.334   1.697   2.413 -0.7179 -1.3311 -0.7831
   18MOL   H73313347   5.165   1.584   2.567 -0.1358  0.5476  1.2417
   18MOL   H73413348   5.080   1.728   2.563 -0.4312 -1.2039  0.3961
   18MOL   H73513349   5.251   1.869   2.676 -1.7545  0.6519 -0.6760
   18MOL   H73613350   5.364   1.740   2.647 -1.6991 -5.2330 -1.8651
   18MOL   H73713351   5.255   1.590   2.822 -1.9926 -1.3646 -1.3979
   18MOL   H73813352   5.123   1.691   2.831  0.4798  0.5310  0.3967
   18MOL   H73913353   5.259   1.872   2.951  0.3584  0.0712 -0.6421
   18MOL   H74013354   5.408   1.786   2.922  0.0006 -1.2335  0.3309
   18MOL   H74113355   5.289   1.606   3.054  1.0419  0.6401 -2.1924
   18MOL   H74213356   5.309   1.737   3.136 -0.8496 -0.3934  0.8164
   19MOL     C113357   5.183   3.579   0.908 -0.5390 -0.0919 -0.4646
   19MOL     O213358   5.270   3.660   0.937 -0.6328 -0.1696 -0.1589
   19MOL     C313359   5.085   3.523   1.008  0.9432  0.0039 -0.5594
   19MOL     C413360   4.978   3.439   0.954  0.0415  0.2534 -0.1812
   19MOL     C513361   4.854   3.517   0.902 -0.0091  0.3757  0.2728
   19MOL     C613362   4.787   3.607   1.011 -0.0709 -0.2489 -0.3042
   19MOL     C713363   4.642   3.623   0.970  0.5269  0.1858  0.2151
   19MOL     C813364   4.569   3.703   1.078 -0.3389  0.4878  0.0608
   19MOL     C913365   4.590   3.858   1.086 -0.3700 -0.6240 -0.7913
   19MOL    C1013366   4.483   3.935   1.179  0.0332  0.1202  0.4220
   19MOL    C1113367   4.498   4.087   1.183 -0.1883  0.6118 -0.1350
   19MOL    C1213368   4.387   4.152   1.252 -0.0858 -0.8258  0.5121
   19MOL    C1313369   4.407   4.309   1.249  0.8737  0.2957 -0.1400
   19MOL    N1413370   4.293   4.372   1.318 -0.2239  0.7719 -0.5124
   19MOL    H1513371   5.038   3.603   1.066  2.3945  0.1856  0.3800
   19MOL    H1613372   5.151   3.469   1.075  0.6888  0.9047  0.4419
   19MOL    H1713373   5.008   3.374   0.872 -0.3211 -0.6499  0.3902
   19MOL    H1813374   4.937   3.388   1.041 -0.9496  0.7131 -0.3713
   19MOL    H1913375   4.788   3.449   0.849  0.7441  1.1856 -1.7685
   19MOL    H2013376   4.879   3.589   0.823 -0.6408 -0.1070 -0.3702
   19MOL    H2113377   4.800   3.562   1.110 -1.0442  1.6284  0.6928
   19MOL    H2213378   4.847   3.697   1.019 -1.6915  0.6405  2.4901
   19MOL    H2313379   4.590   3.529   0.949 -1.0655  1.2463 -0.6675
   19MOL    H2413380   4.644   3.686   0.881 -0.1997 -0.7495 -0.4790
   19MOL    H2513381   4.579   3.658   1.177 -1.0307 -0.6770 -0.3946
   19MOL    H2613382   4.461   3.689   1.071 -0.4668  1.4860  0.0469
   19MOL    H2713383   4.597   3.903   0.987  0.7460  0.5473 -0.1855
   19MOL    H2813384   4.692   3.884   1.114 -1.2008  1.3638  0.5160
   19MOL    H2913385   4.474   3.899   1.281 -1.4402 -1.5072 -0.2481
   19MOL    H3013386   4.384   3.917   1.138  0.0154 -0.8882  0.8804
   19MOL    H3113387   4.506   4.128   1.082 -1.6811  0.6840 -0.2218
   19MOL    H3213388   4.598   4.110   1.221  0.1013  1.5223 -1.4212
   19MOL    H3313389   4.378   4.122   1.356  0.9632 -1.8210  0.3142
   19MOL    H3413390   4.295   4.122   1.202 -0.0557  3.0052 -2.0371
   19MOL    H3513391   4.422   4.329   1.143 -0.8204 -1.8388 -0.8060
   19MOL    H3613392   4.502   4.324   1.300  0.0210 -0.9577  1.8909
   19MOL    H3713393   4.267   4.335   1.408  0.1116 -0.3082 -0.8596
   19MOL    H3813394   5.161   3.533   0.812  0.9216 -1.4726 -0.1634
   19MOL    C3913395   4.222   4.473   1.268 -0.0012  0.1056 -0.2070
   19MOL    O4013396   4.234   4.514   1.154  0.4849 -0.6626  0.5212
   19MOL    C4113397   4.126   4.527   1.365  0.0051 -0.2992  0.6443
   19MOL    C4213398   4.044   4.648   1.317 -0.0858  0.0448 -0.2337
   19MOL    C4313399   3.957   4.731   1.408 -0.0144 -0.1751  0.0878
   19MOL    C4413400   3.953   4.888   1.394 -0.2494 -0.2875  0.4125
   19MOL    C4513401   3.887   4.951   1.524  1.0464 -0.4712  0.4107
   19MOL    C4613402   3.741   4.922   1.546 -0.1221 -1.2500  0.1284
   19MOL    C4713403   3.673   4.982   1.671  0.4418  0.4338  0.7895
   19MOL    C4813404   3.700   5.124   1.714 -0.5731  0.3294 -0.0715
   19MOL    C4913405   3.667   5.156   1.862 -0.0336 -0.2072 -0.3568
   19MOL    C5013406   3.699   5.298   1.910 -0.4056  0.3491 -0.1416
   19MOL    C5113407   3.640   5.319   2.049  0.0728 -0.8232 -0.5304
   19MOL    N5213408   3.723   5.261   2.145  0.0956 -0.0269 -0.4710
   19MOL    H5313409   4.176   4.557   1.458  0.3994 -1.5139  0.8403
   19MOL    H5413410   4.062   4.442   1.389  1.2950 -1.8048 -1.1187
   19MOL    H5513411   4.111   4.719   1.271 -0.1738 -1.0025 -2.0507
   19MOL    H5613412   3.966   4.613   1.249 -1.5108 -0.5960  1.6677
   19MOL    H5713413   3.979   4.705   1.512 -1.3424  2.0293  0.9490
   19MOL    H5813414   3.854   4.701   1.392  0.4610 -1.5304 -0.5241
   19MOL    H5913415   4.055   4.926   1.390  0.2064 -1.7374 -2.9903
   19MOL    H6013416   3.900   4.925   1.306 -0.4803 -1.0596  0.2265
   19MOL    H6113417   3.897   5.060   1.520  0.9408 -0.4363  1.0758
   19MOL    H6213418   3.944   4.920   1.612 -0.2393 -1.4195  0.9185
   19MOL    H6313419   3.729   4.815   1.556  0.7148 -1.2124  1.5399
   19MOL    H6413420   3.685   4.966   1.463  0.7392  2.2335  1.3054
   19MOL    H6513421   3.726   4.938   1.755  0.8421  1.8512  1.2836
   19MOL    H6613422   3.566   4.963   1.683  0.4393 -0.7264 -0.8621
   19MOL    H6713423   3.647   5.200   1.656 -2.6142 -0.8659  0.1567
   19MOL    H6813424   3.805   5.146   1.696 -0.1309 -0.4950  1.4363
   19MOL    H6913425   3.718   5.080   1.920  0.5630  0.6646  0.2672
   19MOL    H7013426   3.560   5.136   1.862  0.0612 -0.7119  0.3946
   19MOL    H7113427   3.652   5.367   1.839 -1.2433 -1.3057 -1.2504
   19MOL    H7213428   3.807   5.307   1.912 -0.2420 -0.3522 -3.2723
   19MOL    H7313429   3.533   5.300   2.057 -0.0611 -0.4849 -1.4234
   19MOL    H7413430   3.653   5.421   2.087 -0.8184 -0.6179 -0.7591
   19MOL    H7513431   3.823   5.272   2.134  0.6437 -2.5271  1.4074
   19MOL    C7613432   3.679   5.176   2.236  0.7517  1.0639 -0.1306
   19MOL    O7713433   3.570   5.119   2.241 -0.7708 -0.6772  0.1989
   19MOL    C7813434   3.782   5.136   2.339 -0.4632  0.1021  0.4802
   19MOL    C7913435   3.729   5.172   2.484 -0.2397 -0.0580  0.6035
   19MOL    C8013436   3.819   5.140   2.604 -0.4452 -0.6339 -0.4707
   19MOL    C8113437   3.830   4.986   2.630  0.5577 -0.3406 -0.0827
   19MOL    C8213438   3.928   4.950   2.738 -0.6356  0.3024  0.6712
   19MOL    C8313439   3.949   4.803   2.772 -0.4456  0.7491 -0.1070
   19MOL    C8413440   4.038   4.783   2.901  0.0137  0.2872  0.4557
   19MOL    C8513441   4.080   4.634   2.916 -0.3501  0.1331 -0.1037
   19MOL    C8613442   4.137   4.607   3.056 -0.3980  0.2958  0.5101
   19MOL    C8713443   4.184   4.459   3.078  0.0004 -0.0894  0.2263
   19MOL    C8813444   4.255   4.435   3.216 -1.1009 -0.7269 -0.1727
   19MOL    N8913445   4.161   4.452   3.331  0.3942 -0.1037  0.6967
   19MOL    H9013446   3.878   5.183   2.317  0.3284 -2.5532 -1.8913
   19MOL    H9113447   3.795   5.028   2.341  0.1229  0.1833  1.6976
   19MOL    H9213448   3.716   5.280   2.486 -0.1569 -0.0490  0.6350
   19MOL    H9313449   3.629   5.133   2.503 -0.5751  0.9970  0.9886
   19MOL    H9413450   3.783   5.195   2.691 -0.8367 -2.5067  0.5757
   19MOL    H9513451   3.918   5.181   2.589 -0.0087 -1.9991 -1.4796
   19MOL    H9613452   3.733   4.961   2.672  0.1182  2.1219  0.4453
   19MOL    H9713453   3.848   4.935   2.536 -1.3176  0.0291 -0.6581
   19MOL    H9813454   3.890   4.987   2.833 -2.3126  0.2987  0.0178
   19MOL    H9913455   4.022   5.001   2.716 -0.0581 -0.5484  1.1240
   19MOL   H10013456   4.006   4.753   2.694  0.0415  2.0075 -0.5700
   19MOL   H10113457   3.847   4.765   2.779 -0.3551  0.3971 -0.6378
   19MOL   H10213458   3.985   4.813   2.992  1.7119  0.1762  1.5019
   19MOL   H10313459   4.129   4.841   2.890 -0.0069  0.5432  1.5689
   19MOL   H10413460   4.161   4.614   2.846 -0.9404  0.2722 -0.8394
   19MOL   H10513461   4.001   4.561   2.896  1.0528 -1.4790  0.1623
   19MOL   H10613462   4.071   4.636   3.138 -0.5805  1.6027 -0.0713
   19MOL   H10713463   4.225   4.669   3.073  0.2409 -0.7954  1.1691
   19MOL   H10813464   4.254   4.427   3.001 -2.6186 -0.8471 -1.9043
   19MOL   H10913465   4.106   4.384   3.064  0.8200 -0.9832  0.3661
   19MOL   H11013466   4.333   4.509   3.230 -1.1924 -0.5795 -0.4268
   19MOL   H11113467   4.297   4.334   3.208  0.2981 -0.2260  0.7651
   19MOL   H11213468   4.129   4.546   3.348  0.6624  0.3934 -1.4228
   19MOL   C11313469   4.093   4.350   3.382 -0.0050 -0.5071 -0.3745
   19MOL   O11413470   4.096   4.233   3.344 -0.6720  0.7200  0.5604
   19MOL   C11513471   4.006   4.393   3.503  0.1194 -0.9383  0.2330
   19MOL   C11613472   3.866   4.336   3.489  0.3880 -0.0496  0.0017
   19MOL   C11713473   3.765   4.429   3.417 -0.5778  0.0743  0.0024
   19MOL   C11813474   3.812   4.482   3.275 -0.7834  0.6884  0.1688
   19MOL   C11913475   3.693   4.555   3.197  0.7569  0.5571 -0.1478
   19MOL   C12013476   3.713   4.593   3.047  0.2449 -0.2292 -0.9526
   19MOL   C12113477   3.601   4.674   2.988  0.3076  0.3565 -0.0505
   19MOL   C12213478   3.462   4.606   2.970 -0.0251  0.6956  0.0702
   19MOL   C12313479   3.345   4.701   2.940 -0.1425 -0.1694  0.3539
   19MOL   C12413480   3.213   4.630   2.896 -0.0536  0.1772  0.0384
   19MOL   C12513481   3.142   4.542   3.006  0.9065 -0.4080 -0.3141
   19MOL   N12613482   3.047   4.454   2.939 -0.0013 -0.5217  0.0893
   19MOL   H12713483   4.006   4.499   3.529  0.0874 -0.9629  0.3337
   19MOL   H12813484   4.065   4.349   3.584  0.0300 -1.6905 -0.1045
   19MOL   H12913485   3.865   4.242   3.434 -0.0418  0.0881 -0.2247
   19MOL   H13013486   3.822   4.312   3.586  0.2678 -1.0613 -0.2963
   19MOL   H13113487   3.748   4.517   3.479 -0.2064  0.1879 -0.0593
   19MOL   H13213488   3.666   4.384   3.413 -0.3758 -0.3469 -0.4105
   19MOL   H13313489   3.900   4.547   3.268  0.0853 -0.7472 -3.5206
   19MOL   H13413490   3.832   4.396   3.211 -1.5854  0.0634  0.7482
   19MOL   H13513491   3.656   4.635   3.261 -2.3450 -1.8691  1.2301
   19MOL   H13613492   3.610   4.486   3.205  1.4307 -0.2214  0.2541
   19MOL   H13713493   3.725   4.510   2.978 -0.7377 -1.9043  0.8676
   19MOL   H13813494   3.800   4.658   3.042  0.1128  0.0061 -0.2985
   19MOL   H13913495   3.639   4.706   2.891  1.3351  1.6094  0.7669
   19MOL   H14013496   3.593   4.770   3.038  2.3083  0.0564  0.8846
   19MOL   H14113497   3.433   4.540   3.052  1.0681  0.5121  0.3150
   19MOL   H14213498   3.477   4.541   2.884  0.3406  2.7360 -1.4350
   19MOL   H14313499   3.372   4.761   2.853 -0.7910  0.1219  0.3472
   19MOL   H14413500   3.318   4.772   3.018 -2.3093  0.3345 -0.8006
   19MOL   H14513501   3.221   4.577   2.801  0.5256  1.4200 -0.6180
   19MOL   H14613502   3.140   4.704   2.865  0.8871  0.8455 -0.6247
   19MOL   H14713503   3.082   4.592   3.083  2.9698  1.5086  0.0921
   19MOL   H14813504   3.210   4.476   3.061 -0.3676  1.3726  3.5705
   19MOL   H14913505   3.067   4.419   2.846  0.1243 -2.4321  0.8162
   19MOL   C15013506   2.932   4.412   2.985 -0.6767  0.3559  0.6192
   19MOL   O15113507   2.886   4.449   3.092  0.4412 -0.2044  0.3909
   19MOL   C15213508   2.863   4.298   2.900 -0.1749 -0.0953  0.1996
   19MOL   C15313509   2.701   4.303   2.896  0.1362  1.1471 -0.1044
   19MOL   C15413510   2.633   4.433   2.853 -0.0978  0.1735  0.2015
   19MOL   C15513511   2.478   4.443   2.883 -0.6344 -0.6139  0.0584
   19MOL   C15613512   2.434   4.589   2.846  0.3744  0.3741 -0.3639
   19MOL   C15713513   2.293   4.602   2.905  0.4456 -0.2275 -0.4198
   19MOL   C15813514   2.244   4.739   2.878  0.1248  0.1719 -0.0591
   19MOL   C15913515   2.114   4.780   2.962 -0.0254  0.0754  0.1416
   19MOL   C16013516   2.154   4.819   3.104 -0.1884  0.3697 -0.1354
   19MOL   C16113517   2.031   4.883   3.179 -0.8172 -0.5139  0.5917
   19MOL   C16213518   2.053   4.901   3.328  0.7722 -0.0873  0.4583
   19MOL   N16313519   2.058   4.769   3.386  0.2889  1.0127  0.4684
   19MOL   H16413520   2.898   4.216   2.962 -1.6577 -1.8976 -1.2839
   19MOL   H16513521   2.896   4.288   2.797  1.4700  0.1534  0.6872
   19MOL   H16613522   2.661   4.220   2.837 -0.3187  0.9435  0.4904
   19MOL   H16713523   2.669   4.289   2.999  2.5720 -2.2827  0.2342
   19MOL   H16813524   2.639   4.449   2.745  1.1453  1.1030  0.3846
   19MOL   H16913525   2.680   4.519   2.903  0.5788  0.2004 -0.4659
   19MOL   H17013526   2.426   4.366   2.826 -1.7833 -1.0000  1.5954
   19MOL   H17113527   2.481   4.425   2.991 -0.6817  0.0077  0.1656
   19MOL   H17213528   2.447   4.600   2.738 -0.0590  0.4263 -0.4135
   19MOL   H17313529   2.504   4.661   2.887  0.2406 -0.0881  0.6766
   19MOL   H17413530   2.303   4.585   3.012 -1.1858 -3.2481 -0.7064
   19MOL   H17513531   2.223   4.528   2.868  0.6364 -0.4541 -0.3280
   19MOL   H17613532   2.238   4.762   2.772  0.4897 -1.5418 -0.4616
   19MOL   H17713533   2.328   4.797   2.916  0.9860  0.2939 -2.0972
   19MOL   H17813534   2.042   4.699   2.972  1.3943 -1.0371  1.7263
   19MOL   H17913535   2.056   4.856   2.911  0.6363 -1.7966 -3.5507
   19MOL   H18013536   2.220   4.906   3.104 -1.3423  1.2825  1.8589
   19MOL   H18113537   2.207   4.732   3.143  0.3083  0.1839 -1.2183
   19MOL   H18213538   1.938   4.827   3.170 -0.6015 -0.6868 -0.6721
   19MOL   H18313539   2.008   4.984   3.144  1.4141  1.1299  3.6293
   19MOL   H18413540   1.969   4.953   3.374 -0.0456 -1.4579  0.5530
   19MOL   H18513541   2.147   4.955   3.334  1.1816 -0.6331 -0.7360
   19MOL   H18613542   2.139   4.751   3.444  0.2949  2.0346  0.7829
   19MOL   C18713543   1.951   4.691   3.397 -0.2798  0.1154  0.0608
   19MOL   O18813544   1.848   4.708   3.337 -0.3393  0.1586  0.1888
   19MOL   C18913545   1.965   4.563   3.488 -0.4367  0.8693 -0.3673
   19MOL   C19013546   1.983   4.436   3.405  0.4486 -0.1521  0.6446
   19MOL   C19113547   2.114   4.441   3.307 -0.4766 -0.2007  0.0348
   19MOL   C19213548   2.141   4.299   3.251  0.0205 -0.3341 -0.4959
   19MOL   C19313549   2.276   4.293   3.177 -0.1367  0.7235 -0.7915
   19MOL   C19413550   2.317   4.168   3.112  0.4941  0.1590 -0.4969
   19MOL   C19513551   2.348   4.059   3.214  0.1469 -0.5256 -0.0182
   19MOL   C19613552   2.402   3.927   3.155 -0.0466  0.4995  0.2683
   19MOL   C19713553   2.457   3.830   3.260  0.7274  0.4835 -0.4371
   19MOL   C19813554   2.336   3.747   3.312  0.2268 -0.1148 -0.3924
   19MOL   C19913555   2.352   3.692   3.455  0.3732  0.1175 -0.9354
   19MOL   N20013556   2.218   3.640   3.491  0.3370 -0.7361 -0.4451
   19MOL   H20113557   1.869   4.556   3.538 -0.5661  2.5491 -0.3636
   19MOL   H20213558   2.043   4.579   3.562 -2.2458  1.2148  1.5016
   19MOL   H20313559   1.991   4.359   3.481 -1.2090 -1.7544 -0.7592
   19MOL   H20413560   1.891   4.427   3.347  1.6204  1.8576 -1.6224
   19MOL   H20513561   2.200   4.477   3.364  1.7855 -0.1013 -3.3380
   19MOL   H20613562   2.091   4.513   3.229 -1.5038 -0.4815  0.0654
   19MOL   H20713563   2.144   4.218   3.325  0.8997 -0.0239 -0.1854
   19MOL   H20813564   2.051   4.286   3.190 -0.6981  1.5671  0.1326
   19MOL   H20913565   2.359   4.323   3.241 -1.5273  0.6242  1.0863
   19MOL   H21013566   2.287   4.378   3.109  0.6475  0.7942 -0.5828
   19MOL   H21113567   2.405   4.186   3.051  0.5899  1.7106  0.0762
   19MOL   H21213568   2.228   4.143   3.053 -2.1431  0.8662  2.9650
   19MOL   H21313569   2.253   4.036   3.262  0.4785  2.0398  1.9826
   19MOL   H21413570   2.416   4.106   3.285 -0.4438 -0.0910  0.2567
   19MOL   H21513571   2.473   3.950   3.075  0.0394  1.3344  0.5845
   19MOL   H21613572   2.330   3.875   3.091  0.5289  1.5398 -1.2426
   19MOL   H21713573   2.507   3.880   3.342  2.1811 -1.3196 -0.1739
   19MOL   H21813574   2.538   3.772   3.216  0.7759  1.2703 -1.3982
   19MOL   H21913575   2.307   3.672   3.238 -1.2771 -1.6028  1.6015
   19MOL   H22013576   2.255   3.819   3.317 -0.0673 -0.2487 -2.9229
   19MOL   H22113577   2.374   3.763   3.535 -1.7503 -0.5339  0.2567
   19MOL   H22213578   2.433   3.619   3.462  2.1938  2.1421  0.0043
   19MOL   H22313579   2.142   3.649   3.425  1.0298 -1.6314 -1.3864
   19MOL   C22413580   2.193   3.570   3.604 -0.3097  0.0143 -0.7486
   19MOL   O22513581   2.265   3.566   3.705  0.3816  0.3555 -0.0590
   19MOL   C22613582   2.060   3.496   3.603  0.2335 -0.2548  0.5026
   19MOL   C22713583   2.029   3.409   3.729 -0.4796 -0.7464 -0.6330
   19MOL   C22813584   1.880   3.349   3.727 -0.1501  0.0660 -0.7610
   19MOL   C22913585   1.874   3.218   3.802 -0.7302  0.5517  0.1258
   19MOL   C23013586   1.729   3.151   3.814 -0.4307 -1.0767 -0.1049
   19MOL   C23113587   1.658   3.112   3.680  0.2972 -0.5299 -0.6103
   19MOL   C23213588   1.565   3.216   3.617  0.2386  0.5251  0.2810
   19MOL   C23313589   1.417   3.199   3.669 -0.3514  0.2122  0.3722
   19MOL   C23413590   1.390   3.262   3.806 -0.0226 -0.0333  0.0902
   19MOL   C23513591   1.439   3.409   3.836  0.5758  0.1409 -0.1737
   19MOL   C23613592   1.389   3.516   3.742 -0.1363  0.2042 -0.5687
   19MOL   N23713593   1.251   3.551   3.758  0.5806  0.4711  0.2009
   19MOL   H23813594   2.065   3.425   3.520 -1.4487  0.8464 -0.5706
   19MOL   H23913595   1.981   3.567   3.578  2.1059  1.2457 -1.3406
   19MOL   H24013596   2.104   3.330   3.736 -1.6106 -1.8504 -0.6847
   19MOL   H24113597   2.055   3.476   3.811  0.5899 -1.0116 -0.7477
   19MOL   H24213598   1.851   3.312   3.628 -3.3466 -2.7621  1.1089
   19MOL   H24313599   1.794   3.411   3.753  1.1828  1.1192  1.2155
   19MOL   H24413600   1.939   3.142   3.759 -1.6792 -1.2614  1.8246
   19MOL   H24513601   1.912   3.233   3.903 -1.0849 -0.0641  0.3526
   19MOL   H24613602   1.673   3.194   3.896  0.6826 -2.2726  1.3105
   19MOL   H24713603   1.760   3.055   3.856  1.0216 -0.1439  1.0122
   19MOL   H24813604   1.599   3.021   3.697 -2.5184  1.4953  0.7893
   19MOL   H24913605   1.735   3.093   3.605 -0.2944 -2.4787 -0.7572
   19MOL   H25013606   1.566   3.195   3.510 -1.6979  0.1875  0.3148
   19MOL   H25113607   1.595   3.317   3.644  0.9804  0.9801 -2.1694
   19MOL   H25213608   1.390   3.094   3.672  1.1224 -0.1490  2.9642
   19MOL   H25313609   1.356   3.254   3.597 -0.8931 -0.8124  0.0474
   19MOL   H25413610   1.415   3.199   3.891 -1.6104  0.2010  0.7413
   19MOL   H25513611   1.281   3.268   3.811 -0.0822 -0.3100 -0.7540
   19MOL   H25613612   1.547   3.414   3.849  0.3136 -0.0535  2.2192
   19MOL   H25713613   1.419   3.419   3.942  0.9206  0.5298 -0.1456
   19MOL   H25813614   1.399   3.478   3.640 -0.1600  1.4988 -1.0598
   19MOL   H25913615   1.441   3.612   3.741  0.2037  0.0416  0.8126
   19MOL   H26013616   1.182   3.497   3.708 -1.5640  3.3825 -0.1056
   19MOL   C26113617   1.204   3.633   3.848  0.5376  0.3263 -0.3177
   19MOL   O26213618   1.271   3.680   3.940 -0.3797  0.0918  0.1596
   19MOL   C26313619   1.056   3.668   3.835  0.1927 -0.6077 -0.1675
   19MOL   C26413620   0.999   3.786   3.925 -0.2304  1.3821  0.0773
   19MOL   C26513621   0.964   3.735   4.066  0.0202  0.0146 -0.1656
   19MOL   C26613622   0.901   3.833   4.165 -0.4846  0.0044 -0.6497
   19MOL   C26713623   0.876   3.777   4.303  0.2936  0.1056 -0.6559
   19MOL   C26813624   0.788   3.871   4.387 -0.0221  0.5969 -0.8614
   19MOL   C26913625   0.786   3.835   4.536 -0.3609  0.2395 -0.3420
   19MOL   C27013626   0.714   3.702   4.564 -0.3204 -0.1528 -0.0359
   19MOL   C27113627   0.712   3.659   4.705 -0.0099  0.1797  0.1963
   19MOL   C27213628   0.625   3.748   4.792  0.5496 -0.8347  0.2633
   19MOL   C27313629   0.649   3.720   4.941 -0.0470  0.7482  0.3527
   19MOL   N27413630   0.621   3.839   5.020 -0.5441  0.5760  0.6605
   19MOL   H27513631   0.989   3.588   3.865  1.4767 -1.6869 -0.1214
   19MOL   H27613632   1.035   3.690   3.731  0.6150  2.1192  0.2844
   19MOL   H27713633   1.064   3.873   3.934  1.1536  0.8345 -3.6971
   19MOL   H27813634   0.917   3.832   3.870  2.3460  0.4359 -4.8852
   19MOL   H27913635   1.047   3.685   4.115 -1.8666 -1.7291  1.3493
   19MOL   H28013636   0.886   3.661   4.047 -2.3972  1.7318  2.5947
   19MOL   H28113637   0.970   3.918   4.166 -1.1018  0.5019  0.8427
   19MOL   H28213638   0.818   3.877   4.111  0.2143 -0.4588 -2.1597
   19MOL   H28313639   0.971   3.765   4.355 -0.4777 -0.7631  0.5718
   19MOL   H28413640   0.832   3.678   4.294 -0.6628  0.4753 -0.1257
   19MOL   H28513641   0.689   3.877   4.343 -0.3748 -2.0977 -0.5149
   19MOL   H28613642   0.824   3.974   4.378  1.2173  0.4931  2.1991
   19MOL   H28713643   0.731   3.917   4.582 -1.2158 -0.5732  0.1059
   19MOL   H28813644   0.882   3.824   4.585 -1.6541 -0.1559  2.2020
   19MOL   H28913645   0.758   3.629   4.495 -1.4642 -1.5203  0.6438
   19MOL   H29013646   0.610   3.708   4.530 -1.4763 -1.2162  3.1608
   19MOL   H29113647   0.813   3.658   4.746  0.5749 -0.6327 -1.2244
   19MOL   H29213648   0.669   3.560   4.720 -0.5703  0.2812 -0.7340
   19MOL   H29313649   0.519   3.734   4.772  0.5321 -0.6712  0.2400
   19MOL   H29413650   0.651   3.853   4.780 -1.2427 -0.3975  0.0584
   19MOL   H29513651   0.755   3.704   4.961 -0.2652  1.5198  2.2960
   19MOL   H29613652   0.596   3.627   4.965 -1.2389  0.7863 -2.0411
   19MOL   H29713653   0.666   3.922   4.983 -1.6785  0.1769 -1.7684
   19MOL   C29813654   0.564   3.840   5.139 -0.2537  0.0506  0.8330
   19MOL   O29913655   0.495   3.750   5.184 -0.2742 -0.0324 -0.2715
   19MOL   C30013656   0.584   3.968   5.226 -0.4807 -0.0429 -0.2152
   19MOL   C30113657   0.615   3.949   5.373 -0.2484  0.5316 -0.1409
   19MOL   C30213658   0.736   3.856   5.411  0.4876 -0.1499  0.5102
   19MOL   C30313659   0.874   3.916   5.393 -0.0801 -0.2353  0.1275
   19MOL   C30413660   0.979   3.808   5.352 -0.4091 -0.0786  0.3094
   19MOL   C30513661   0.970   3.770   5.198  0.0433  0.0075 -0.2276
   19MOL   C30613662   1.038   3.642   5.160  0.2646  0.6139 -0.2588
   19MOL   C30713663   0.931   3.530   5.169 -0.4206 -0.3584  0.7786
   19MOL   C30813664   0.998   3.401   5.125  0.1269 -0.0677 -0.4877
   19MOL   C30913665   0.906   3.285   5.145  0.3446 -0.3919  0.3130
   19MOL   C31013666   0.968   3.161   5.075 -0.1297 -0.7621  0.4977
   19MOL   N31113667   0.902   3.043   5.119 -0.4954  0.6191 -0.1478
   19MOL   H31213668   0.503   4.041   5.220 -0.8032  0.1435  4.6004
   19MOL   H31313669   0.668   4.019   5.178 -1.6279  1.8616 -0.2720
   19MOL   H31413670   0.623   4.043   5.426 -0.5580  1.1476 -1.1630
   19MOL   H31513671   0.519   3.913   5.411 -0.0964  1.3076  1.0063
   19MOL   H31613672   0.726   3.772   5.342  0.1663 -1.0386  1.6111
   19MOL   H31713673   0.711   3.825   5.513 -0.1468  2.5536  1.2191
   19MOL   H31813674   0.881   3.999   5.322  1.8109  1.3472  2.0809
   19MOL   H31913675   0.908   3.955   5.489 -0.6248 -1.7500  0.9594
   19MOL   H32013676   0.956   3.725   5.419 -1.3067  0.2238  0.3834
   19MOL   H32113677   1.081   3.834   5.380  0.4443 -1.0126 -1.7789
   19MOL   H32213678   1.033   3.847   5.156  0.1065 -0.5194 -1.1135
   19MOL   H32313679   0.874   3.783   5.147  0.8371 -0.1483 -1.7777
   19MOL   H32413680   1.130   3.625   5.217  0.8570 -0.1351 -1.4013
   19MOL   H32513681   1.067   3.650   5.056  1.0892  0.2925 -0.0578
   19MOL   H32613682   0.844   3.548   5.105 -1.1581 -1.7485  1.3630
   19MOL   H32713683   0.887   3.533   5.269  0.4692  0.6447  1.1452
   19MOL   H32813684   1.095   3.372   5.166  0.1204 -0.4103 -0.7111
   19MOL   H32913685   1.020   3.426   5.021 -0.3493  0.7895 -0.3783
   19MOL   H33013686   0.808   3.294   5.100 -0.6923 -1.0135  2.3860
   19MOL   H33113687   0.876   3.261   5.247 -2.4407 -1.0332 -0.6344
   19MOL   H33213688   1.072   3.159   5.107 -0.1443  0.2775  0.6198
   19MOL   H33313689   0.965   3.184   4.968  1.4554  0.6980  0.7377
   19MOL   H33413690   0.898   3.026   5.219 -0.8071 -1.0227 -0.4223
   19MOL   C33513691   0.821   2.969   5.046  0.1798  0.0449  0.0753
   19MOL   O33613692   0.805   2.979   4.925 -0.5934  0.2204 -0.0673
   19MOL   C33713693   0.749   2.856   5.115  0.5737 -0.1376 -0.6018
   19MOL   C33813694   0.599   2.835   5.072 -0.8211  0.0159 -0.0791
   19MOL   C33913695   0.534   2.731   5.157  0.3660  0.5524 -0.1332
   19MOL   C34013696   0.391   2.705   5.115 -0.8974  0.1277 -0.4761
   19MOL   C34113697   0.299   2.609   5.180  0.6460 -1.1044 -0.7887
   19MOL   C34213698   0.246   2.641   5.324 -0.2197 -0.1234  0.3436
   19MOL   C34313699   0.165   2.524   5.382  0.0767 -0.6809 -0.1636
   19MOL   C34413700   0.128   2.541   5.530 -0.1163 -0.1393 -0.8564
   19MOL   C34513701   0.051   2.424   5.580 -0.3749  0.1267 -0.1864
   19MOL   C34613702   0.029   2.437   5.733  0.5605 -0.9765 -0.0681
   19MOL   C34713703   7.641   2.323   5.802 -0.6043  0.9575  0.1247
   19MOL   N34813704   7.648   2.346   5.947 -0.1911  0.6663  0.7935
   19MOL   H34913705   0.752   2.873   5.223 -0.4376  0.3060 -0.6357
   19MOL   H35013706   0.785   2.757   5.090 -0.6044 -0.3691 -1.4313
   19MOL   H35113707   0.541   2.927   5.074  1.3121  1.4916 -2.3605
   19MOL   H35213708   0.611   2.809   4.967  0.7786  2.7173 -0.6419
   19MOL   H35313709   0.544   2.771   5.258  1.0460 -0.4622  0.2158
   19MOL   H35413710   0.590   2.637   5.152 -1.2056 -0.4819  1.2330
   19MOL   H35513711   0.347   2.803   5.131  1.7502  0.8366  3.2009
   19MOL   H35613712   0.377   2.684   5.009  1.3018 -2.8098 -0.2384
   19MOL   H35713713   0.348   2.512   5.190  1.8254 -0.4706 -0.2548
   19MOL   H35813714   0.208   2.598   5.121  0.2344 -0.9759 -0.1887
   19MOL   H35913715   0.185   2.731   5.325 -1.9426 -1.1769 -3.7703
   19MOL   H36013716   0.328   2.662   5.394  0.7074  0.3350 -0.8556
   19MOL   H36113717   0.213   2.429   5.361 -1.1713 -1.0548 -1.4037
   19MOL   H36213718   0.074   2.521   5.323 -0.1620  0.0982  0.1555
   19MOL   H36313719   0.069   2.631   5.545 -1.0884 -0.8127 -0.6572
   19MOL   H36413720   0.214   2.565   5.593 -1.5661  0.1898  1.0006
   19MOL   H36513721   0.102   2.328   5.575  0.7302  0.5801  1.7075
   19MOL   H36613722   7.647   2.424   5.532 -0.2813 -0.5886 -0.3807
   19MOL   H36713723   7.668   2.531   5.743 -0.5704 -1.6536  0.2374
   19MOL   H36813724   0.121   2.448   5.790 -0.3765  0.7264  1.1857
   19MOL   H36913725   7.690   2.231   5.771  1.0353  1.6764  0.4946
   19MOL   H37013726   7.539   2.316   5.764 -1.1873  0.9918  1.6699
   19MOL   H37113727   0.030   2.402   5.983 -1.6195  3.9708 -1.1125
   19MOL   C37213728   7.559   2.310   6.038 -0.7443  0.1782 -0.8307
   19MOL   O37313729   7.449   2.263   6.012 -0.3845  0.2480 -0.0524
   19MOL   C37413730   7.592   2.357   6.179  0.5078 -0.3696 -0.3581
   19MOL   C37513731   7.577   2.251   6.288 -0.6137 -0.4246  0.1876
   19MOL   C37613732   7.622   2.311   6.422  0.6626  0.1880 -0.6096
   19MOL   C37713733   7.622   2.207   6.537 -0.0204 -0.1888  0.9165
   19MOL   C37813734   7.674   2.276   6.662  0.2496 -0.0180  0.3430
   19MOL   C37913735   7.682   2.175   6.779 -0.2023  0.5481 -1.2939
   19MOL   C38013736   0.073   2.230   6.894  0.2828 -0.2853 -0.2162
   19MOL   C38113737   0.225   2.235   6.877  0.6497 -0.3300 -0.4609
   19MOL   C38213738   0.291   2.247   7.018  0.1419  0.1926 -0.1569
   19MOL   C38313739   0.450   2.251   7.014  0.6690  0.5440 -0.1936
   19MOL   C38413740   0.511   2.278   7.151  0.1506 -0.3306 -0.2856
   19MOL   N38513741   0.650   2.248   7.154 -0.2353  0.4832  0.3314
   19MOL   H38613742   7.524   2.439   6.204  2.4440  1.1264  0.1558
   19MOL   H38713743   7.685   2.414   6.171 -0.3102  1.1779  0.8926
   19MOL   H38813744   7.475   2.214   6.299 -1.2829  0.8231 -1.6555
   19MOL   H38913745   7.644   2.168   6.266  1.2321  1.2261 -0.6254
   19MOL   H39013746   7.545   2.385   6.444 -2.7112 -3.2953 -0.3419
   19MOL   H39113747   0.021   2.365   6.404  0.4634  0.9254  0.5019
   19MOL   H39213748   7.515   2.185   6.544 -0.8885  3.2724 -0.7740
   19MOL   H39313749   7.667   2.111   6.512 -1.0856 -0.5699  0.4018
   19MOL   H39413750   7.605   2.355   6.692 -1.6756 -1.4769 -0.0675
   19MOL   H39513751   0.079   2.320   6.659 -0.8581  2.6527  1.3387
   19MOL   H39613752   0.034   2.087   6.735 -2.7810 -0.7326 -1.5362
   19MOL   H39713753   7.582   2.155   6.819  0.2765  1.6934  0.5245
   19MOL   H39813754   0.064   2.163   6.979  0.6373 -0.4793 -0.3305
   19MOL   H39913755   0.048   2.332   6.921  1.1606 -0.0702 -0.1858
   19MOL   H40013756   0.245   2.317   6.809  1.7151  1.3930  1.8474
   19MOL   H40113757   0.255   2.142   6.830  0.0346  0.0022 -1.5359
   19MOL   H40213758   0.274   2.160   7.082 -1.1766  0.6390  0.1153
   19MOL   H40313759   0.243   2.326   7.076  0.4778  0.9123 -0.8502
   19MOL   H40413760   0.500   2.320   6.947  0.5920  1.0464  0.2679
   19MOL   H40513761   0.485   2.153   6.981  0.1890  0.0596  0.7127
   19MOL   H40613762   0.456   2.220   7.224 -0.3182 -0.2018 -0.5368
   19MOL   H40713763   0.493   2.384   7.169  0.6696 -0.1939 -0.5693
   19MOL   H40813764   0.673   2.168   7.212 -1.2202 -0.2209 -0.2388
   19MOL   C40913765   0.746   2.331   7.122  0.1523 -0.2930 -0.7463
   19MOL   O41013766   0.728   2.445   7.083 -0.4858 -0.1698  0.2344
   19MOL   C41113767   0.889   2.290   7.143 -0.1954 -0.3695 -0.2115
   19MOL   C41213768   0.947   2.236   7.016  0.3171 -0.3836 -0.2658
   19MOL   C41313769   0.930   2.083   7.008  0.2639 -0.2494  0.6033
   19MOL   C41413770   1.001   2.011   6.893  0.2837  0.6449  0.7524
   19MOL   C41513771   1.012   1.856   6.910 -0.0244  0.3380  0.1045
   19MOL   C41613772   0.879   1.784   6.888  1.0485  0.4118 -0.0457
   19MOL   C41713773   0.901   1.641   6.902 -0.0019 -0.1207 -0.7119
   19MOL   C41813774   0.772   1.556   6.916 -0.5104 -0.7302  0.2742
   19MOL   C41913775   0.814   1.411   6.940  0.0967  0.4371 -0.3337
   19MOL   C42013776   0.694   1.311   6.934 -0.7606  0.2284  0.0275
   19MOL   C42113777   0.750   1.177   6.971 -0.7107 -0.6569  0.6348
   19MOL   N42213778   0.636   1.088   7.002  0.0860 -0.0653  0.1805
   19MOL   H42313779   0.901   2.229   7.232  0.6391 -1.9315 -1.3849
   19MOL   H42413780   0.946   2.377   7.176 -1.7461  0.5236  0.1795
   19MOL   H42513781   0.890   2.268   6.928  1.7878  2.1956 -0.3285
   19MOL   H42613782   1.049   2.272   7.016 -0.0882  0.7950  0.3462
   19MOL   H42713783   0.823   2.072   6.994 -0.1277  1.2879  2.2697
   19MOL   H42813784   0.944   2.037   7.106  3.0694  2.9651  1.8013
   19MOL   H42913785   0.939   2.029   6.805  0.2262 -2.2727  0.1366
   19MOL   H43013786   1.095   2.063   6.878  0.6326 -0.2901 -0.3241
   19MOL   H43113787   1.042   1.841   7.013  2.0489  1.5050 -0.2944
   19MOL   H43213788   1.088   1.820   6.840  0.2995 -1.2883  1.2541
   19MOL   H43313789   0.838   1.816   6.792 -1.4600  0.6627  1.0557
   19MOL   H43413790   0.812   1.826   6.963 -1.8161 -0.5078 -2.0024
   19MOL   H43513791   0.959   1.620   6.992  2.4718 -0.6554 -2.4033
   19MOL   H43613792   0.957   1.607   6.815  0.1551  0.1422 -0.7149
   19MOL   H43713793   0.707   1.553   6.829  1.4374  1.0525 -1.2769
   19MOL   H43813794   0.709   1.590   6.999  1.4396  1.2555  0.9994
   19MOL   H43913795   0.861   1.403   7.038 -0.7363  1.3037  0.1432
   19MOL   H44013796   0.886   1.377   6.865  0.1535 -0.1280 -0.0259
   19MOL   H44113797   0.640   1.298   6.840  0.0479  0.2340 -0.4385
   19MOL   H44213798   0.627   1.347   7.012 -0.5531 -1.0997  0.8300
   19MOL   H44313799   0.819   1.175   7.056 -1.6135 -0.0900  1.3891
   19MOL   H44413800   0.803   1.135   6.886 -2.8393 -2.8890  0.3589
   19MOL   H44513801   0.575   1.121   7.076  0.2735 -0.7499  0.6449
   19MOL   C44613802   0.613   0.967   6.956  0.4241  0.2713 -0.3684
   19MOL   O44713803   0.683   0.911   6.872 -0.1630 -0.4218  0.0968
   19MOL   C44813804   0.490   0.897   7.007  0.3034 -0.0534  0.3098
   19MOL   C44913805   0.361   0.963   6.963  0.3866 -0.2022  0.0804
   19MOL   C45013806   0.246   0.941   7.058  0.5464  0.8632  0.6241
   19MOL   C45113807   0.113   0.983   7.006 -0.2064 -0.1330  0.2857
   19MOL   C45213808   0.009   0.967   7.120 -0.1732  0.1271 -0.1413
   19MOL   C45313809   7.561   0.970   7.076 -0.9557  0.0880 -0.2207
   19MOL   C45413810   7.509   1.107   7.032  0.1216 -0.1351 -0.8317
   19MOL   C45513811   7.365   1.102   6.985 -0.1402 -0.2641 -0.0172
   19MOL   C45613812   7.329   1.020   6.861 -0.0965  0.2366  0.7148
   19MOL   C45713813   7.190   1.044   6.805  0.0913 -0.1462 -0.3952
   19MOL   C45813814   7.150   0.932   6.707 -0.0362 -0.2997 -0.1003
   19MOL   N45913815   7.232   0.935   6.591  0.2942 -0.6103  0.1321
   19MOL   H46013816   0.505   0.893   7.115 -1.0525 -2.0316  0.4583
   19MOL   H46113817   0.492   0.794   6.971  1.5359  0.0282  0.1053
   19MOL   H46213818   0.374   1.071   6.949 -4.4889  0.9077  3.0505
   19MOL   H46313819   0.327   0.932   6.864  0.6044  1.1967 -0.4555
   19MOL   H46413820   0.255   0.997   7.151  0.9669 -0.3977  1.3539
   19MOL   H46513821   0.238   0.835   7.083 -2.7588  0.5241 -1.4382
   19MOL   H46613822   0.127   1.087   6.977 -0.5241 -0.8224 -2.4788
   19MOL   H46713823   0.084   0.945   6.909  3.5258 -2.6145  0.0440
   19MOL   H46813824   0.036   1.037   7.199 -0.7129 -1.0928  1.1248
   19MOL   H46913825   0.021   0.873   7.172 -0.2634 -0.2686 -0.8266
   19MOL   H47013826   7.504   0.917   7.152 -2.5592  0.2271 -1.3063
   19MOL   H47113827   7.554   0.903   6.991 -1.1955  0.2646 -0.3417
   19MOL   H47213828   7.565   1.148   6.948  2.1300 -0.0307  0.5210
   19MOL   H47313829   7.517   1.173   7.119  0.0083 -1.2816  0.0711
   19MOL   H47413830   7.344   1.206   6.959  0.4231  0.0144  0.6509
   19MOL   H47513831   7.295   1.076   7.064  2.3107 -2.3640  1.5102
   19MOL   H47613832   7.334   0.913   6.883 -1.4607 -0.2393 -1.1847
   19MOL   H47713833   7.401   1.038   6.781 -0.8171  0.0842  0.0287
   19MOL   H47813834   7.183   1.139   6.753 -0.0798  0.3482  0.5103
   19MOL   H47913835   7.118   1.057   6.886 -0.0619 -2.3444 -0.1636
   19MOL   H48013836   7.050   0.957   6.671 -0.1351 -1.1213 -0.3995
   19MOL   H48113837   7.139   0.832   6.747  2.1079 -0.8157 -0.7292
   19MOL   H48213838   7.210   1.003   6.519 -0.2137 -0.1556  0.7113
   19MOL   C48313839   7.329   0.846   6.565  0.1123  0.4847 -0.3212
   19MOL   O48413840   7.334   0.737   6.625  0.2486 -0.0662 -0.1516
   19MOL   C48513841   7.424   0.868   6.447  0.0971  0.5760  0.4186
   19MOL   C48613842   7.538   0.967   6.494 -0.7579 -0.1854  0.3322
   19MOL   C48713843   7.499   1.111   6.496  0.4898  0.1152 -0.4702
   19MOL   C48813844   7.614   1.200   6.539  0.0373 -0.1719 -0.7268
   19MOL   C48913845   7.557   1.332   6.595 -0.2460 -0.2699 -0.0609
   19MOL   C49013846   7.494   1.419   6.483  0.4462 -0.3360 -0.6484
   19MOL   C49113847   7.597   1.444   6.368  0.0228  0.3030 -0.1265
   19MOL   C49213848   7.570   1.560   6.276  0.3792  0.5865 -0.6626
   19MOL   C49313849   7.676   1.587   6.170  0.3661  0.0741  0.0923
   19MOL   C49413850   0.115   1.645   6.219 -0.4736 -0.0430 -0.1692
   19MOL   C49513851   0.218   1.635   6.111 -0.7393 -0.1277  0.4250
   19MOL   N49613852   0.335   1.718   6.144 -0.6729  0.5406 -0.3119
   19MOL   H49713853   7.357   0.909   6.371 -0.7844  0.7328  1.2679
   19MOL   H49813854   7.479   0.779   6.418  1.4070  0.0729  4.1949
   19MOL   H49913855   7.572   0.924   6.588 -0.8155 -2.6381 -0.7259
   19MOL   H50013856   7.628   0.962   6.432 -0.1969  1.9364  0.9344
   19MOL   H50113857   7.416   1.131   6.563 -0.5548 -2.4195 -0.9325
   19MOL   H50213858   7.467   1.144   6.397 -0.2032  1.3516  0.1486
   19MOL   H50313859   7.659   1.146   6.622  1.6949  1.1263 -0.7267
   19MOL   H50413860   0.001   1.210   6.466  0.3336  1.4331 -0.2182
   19MOL   H50513861   7.628   1.402   6.640 -0.1880 -1.5630  1.9074
   19MOL   H50613862   7.495   1.316   6.684 -3.1383  0.6933 -1.8385
   19MOL   H50713863   7.467   1.510   6.537 -0.9350  0.3927 -2.5014
   19MOL   H50813864   7.406   1.369   6.444 -0.3463  0.0990  0.5666
   19MOL   H50913865   7.610   1.357   6.304  3.2327  0.1119  0.7027
   19MOL   H51013866   7.693   1.464   6.415  1.8355  0.9158 -3.9006
   19MOL   H51113867   7.553   1.648   6.338 -0.7771  0.4252 -0.7405
   19MOL   H51213868   7.470   1.551   6.232 -0.3766  1.4602  0.8243
   19MOL   H51313869   7.625   1.653   6.100 -0.9071  0.2220  1.1287
   19MOL   H51413870   7.689   1.494   6.116 -1.5648  1.3287 -2.6664
   19MOL   H51513871   0.151   1.601   6.312 -0.8902  0.4587  0.2278
   19MOL   H51613872   0.089   1.750   6.231  0.7717  0.0373  2.2422
   19MOL   H51713873   0.182   1.685   6.021  2.2841 -0.6936 -1.1999
   19MOL   H51813874   0.254   1.534   6.092 -1.9771 -0.4283 -0.3903
   19MOL   H51913875   0.340   1.798   6.082  2.7744  0.4555 -0.2645
   19MOL   C52013876   0.451   1.684   6.204 -0.8222  0.3284 -0.7840
   19MOL   O52113877   0.462   1.569   6.255 -0.3163 -0.2199 -0.1197
   19MOL   C52213878   0.560   1.787   6.204 -0.1862 -0.0082  0.3648
   19MOL   C52313879   0.684   1.746   6.286 -0.0314 -0.1979 -0.3036
   19MOL   C52413880   0.787   1.862   6.301 -0.0633 -0.2721 -0.4621
   19MOL   C52513881   0.930   1.815   6.325 -1.0791  0.3257  0.5156
   19MOL   C52613882   1.040   1.920   6.344 -0.0847  0.1764  0.3351
   19MOL   C52713883   1.055   1.978   6.486  0.2953 -0.6040  0.2878
   19MOL   C52813884   1.178   2.074   6.501  0.4266 -0.2554  0.1865
   19MOL   C52913885   1.220   2.123   6.640 -0.0684  0.2250 -0.2942
   19MOL   C53013886   1.334   2.223   6.656  0.4261  0.5674 -0.2258
   19MOL   C53113887   1.469   2.186   6.602  0.0976  0.3260  0.4617
   19MOL   C53213888   1.568   2.299   6.623 -0.4760 -0.1141 -0.8788
   19MOL   N53313889   1.695   2.294   6.556 -0.0022  0.1210  0.2959
   19MOL   H53413890   0.527   1.883   6.243  1.0000  1.0512 -1.1563
   19MOL   H53513891   0.596   1.814   6.105 -0.1762 -1.7035 -0.1094
   19MOL   H53613892   0.650   1.716   6.385  1.4726  0.0372  0.3072
   19MOL   H53713893   0.730   1.651   6.258 -1.2062 -1.2116  1.1163
   19MOL   H53813894   0.743   1.929   6.374 -0.2698 -0.5364 -0.3436
   19MOL   H53913895   0.791   1.920   6.210 -0.9854 -0.1768 -0.4445
   19MOL   H54013896   0.940   1.740   6.404  0.6867 -0.2302 -0.2089
   19MOL   H54113897   0.967   1.771   6.233  1.5250 -0.1096  1.7171
   19MOL   H54213898   1.023   2.004   6.276  0.5905  0.3497  0.3797
   19MOL   H54313899   1.135   1.883   6.306 -0.2177  0.4733 -0.3093
   19MOL   H54413900   1.071   1.885   6.541  0.3914 -0.3469  0.6949
   19MOL   H54513901   0.964   2.029   6.517  1.1458  0.8679  0.4265
   19MOL   H54613902   1.171   2.165   6.442 -1.5806 -2.0760 -2.5357
   19MOL   H54713903   1.269   2.033   6.457 -0.8882 -0.7007 -2.2617
   19MOL   H54813904   1.238   2.040   6.708  0.0292  1.5564  1.3394
   19MOL   H54913905   1.128   2.171   6.675 -0.0865 -0.3044  0.3955
   19MOL   H55013906   1.340   2.261   6.758  3.5076 -1.0820  0.2772
   19MOL   H55113907   1.305   2.311   6.599 -4.0980 -0.4747  0.2926
   19MOL   H55213908   1.459   2.170   6.495  0.3655 -0.5068  0.5616
   19MOL   H55313909   1.499   2.097   6.658  0.7918  1.5334  2.0631
   19MOL   H55413910   1.582   2.325   6.728  1.0975  0.2995 -1.1761
   19MOL   H55513911   1.527   2.396   6.595 -1.4077  0.9921  3.8827
   19MOL   H55613912   1.706   2.317   6.458  0.1666  1.5266  0.6248
   19MOL   C55713913   1.809   2.256   6.616  0.5629 -0.1864  0.2361
   19MOL   O55813914   1.813   2.214   6.731 -0.5890  0.5598  0.0083
   19MOL   C55913915   1.935   2.261   6.532  0.3220  0.2987  0.4512
   19MOL   C56013916   2.049   2.169   6.578  0.3342 -0.3030  0.3481
   19MOL   C56113917   2.003   2.020   6.566  0.2866  0.3063 -0.6572
   19MOL   C56213918   2.133   1.946   6.602 -1.0211 -0.9984 -0.7022
   19MOL   C56313919   2.112   1.791   6.599 -0.3296  0.2291  0.2260
   19MOL   C56413920   2.237   1.703   6.599 -0.4564 -0.3427  0.9071
   19MOL   C56513921   2.323   1.710   6.728  1.2779  0.2992 -0.1051
   19MOL   C56613922   2.267   1.621   6.838  0.1663 -0.5023 -0.1741
   19MOL   C56713923   2.109   1.622   6.868 -0.6641  0.5404  0.2687
   19MOL   C56813924   2.072   1.560   7.003 -0.7495 -0.0332  0.2093
   19MOL   C56913925   1.917   1.522   7.020  0.4797 -0.6606 -0.2014
   19MOL   N57013926   1.836   1.641   7.001  0.1815  0.1050 -0.0517
   19MOL   H57113927   1.969   2.365   6.533  2.2290 -0.2925  0.3832
   19MOL   H57213928   1.928   2.239   6.426  0.5761 -2.6361  1.0014
   19MOL   H57313929   2.134   2.183   6.511  1.2590 -2.5117  1.0396
   19MOL   H57413930   2.078   2.184   6.681  1.4887  1.1228 -0.1625
   19MOL   H57513931   1.959   1.994   6.469  0.9362 -1.6042 -0.4548
   19MOL   H57613932   1.926   2.005   6.642  0.5801  1.7987 -0.0571
   19MOL   H57713933   2.211   1.967   6.530 -0.3143  1.4055  0.7019
   19MOL   H57813934   2.171   1.974   6.700  1.1933 -0.5668 -1.6542
   19MOL   H57913935   2.067   1.767   6.503  1.3191 -1.2104 -0.2021
   19MOL   H58013936   2.032   1.762   6.668 -0.7440 -0.8043 -0.6741
   19MOL   H58113937   2.306   1.717   6.515 -0.2357 -0.0533  1.1372
   19MOL   H58213938   2.202   1.602   6.579  0.2856 -0.3504 -0.3955
   19MOL   H58313939   2.313   1.813   6.764  0.6359 -0.3854  1.6987
   19MOL   H58413940   2.428   1.682   6.715  1.7004  1.9083 -0.3188
   19MOL   H58513941   2.321   1.660   6.924 -0.9303 -1.5525  1.0067
   19MOL   H58613942   2.288   1.518   6.806  1.4468  0.1271 -1.4024
   19MOL   H58713943   2.055   1.560   6.796  1.7360 -1.0273 -0.2452
   19MOL   H58813944   2.057   1.718   6.872 -1.8942 -0.1135  0.3045
   19MOL   H58913945   2.109   1.626   7.082 -1.0874 -0.8920  1.0954
   19MOL   H59013946   2.137   1.473   7.009 -0.3701  0.1411 -1.2773
   19MOL   H59113947   1.911   1.461   7.110  2.2489  1.0632  1.1345
   19MOL   H59213948   1.890   1.457   6.936 -3.9303  2.5139 -1.3771
   19MOL   H59313949   1.880   1.730   7.021 -2.0391  0.9692  1.1569
   19MOL   C59413950   1.721   1.646   6.930 -0.1047 -0.9809  0.1515
   19MOL   O59513951   1.653   1.548   6.902  0.0325  0.1910 -0.5408
   19MOL   C59613952   1.678   1.784   6.880 -0.5059 -0.1791  0.0789
   19MOL   C59713953   1.651   1.793   6.725 -0.0695  0.1595 -0.0147
   19MOL   C59813954   1.504   1.791   6.683  0.3481 -0.0672 -0.3643
   19MOL   C59913955   1.445   1.654   6.690 -0.1261 -0.2032 -0.1781
   19MOL   C60013956   1.313   1.639   6.611 -0.2420 -0.1037  0.3054
   19MOL   C60113957   1.253   1.492   6.618 -0.8104 -0.5763 -0.8100
   19MOL   C60213958   1.103   1.474   6.580  0.8316 -0.5566 -0.7657
   19MOL   C60313959   1.042   1.336   6.573 -0.0283  0.5280 -0.2169
   19MOL   C60413960   0.891   1.354   6.543 -0.1754  0.4732  0.4450
   19MOL   C60513961   0.821   1.217   6.547  0.0691  0.2864  0.4749
   19MOL   C60613962   0.670   1.216   6.544 -0.6862 -0.3141 -0.0637
   19MOL   N60713963   0.608   1.086   6.552  0.4833 -0.1120  0.3898
   19MOL   H60813964   1.765   1.847   6.899 -2.0870  2.6173 -1.6877
   19MOL   H60913965   1.591   1.823   6.934 -2.1767 -1.1973 -1.8193
   19MOL   H61013966   1.681   1.894   6.697  0.1485  0.4713  1.3172
   19MOL   H61113967   1.710   1.720   6.670 -0.5439 -2.4230  2.7668
   19MOL   H61213968   1.504   1.817   6.577  1.1373  2.1656  0.1640
   19MOL   H61313969   1.441   1.861   6.738  1.0440 -0.2901  0.7417
   19MOL   H61413970   1.508   1.576   6.649  2.8904  1.9697  0.1861
   19MOL   H61513971   1.425   1.625   6.793 -0.3572 -1.4701 -0.5753
   19MOL   H61613972   1.338   1.666   6.509 -0.0542  0.4299  0.4930
   19MOL   H61713973   1.238   1.709   6.648 -2.0668 -2.2606  0.8462
   19MOL   H61813974   1.251   1.439   6.714 -0.8531  0.2682 -0.3390
   19MOL   H61913975   1.306   1.443   6.537 -1.4617 -0.9812 -0.9976
   19MOL   H62013976   1.101   1.525   6.484  1.2932  0.6745 -0.1484
   19MOL   H62113977   1.042   1.540   6.643 -0.1824 -0.5659 -1.7364
   19MOL   H62213978   1.071   1.285   6.665  1.1745  0.6071 -0.5448
   19MOL   H62313979   1.092   1.279   6.495  0.7433 -1.1794  1.4872
   19MOL   H62413980   0.864   1.385   6.442  1.5197  0.8671  0.1012
   19MOL   H62513981   0.849   1.415   6.623 -2.2204  0.0313 -0.2619
   19MOL   H62613982   0.847   1.160   6.636  2.5370  1.7366  0.7373
   19MOL   H62713983   0.853   1.154   6.463  1.7121 -1.0687  2.0832
   19MOL   H62813984   0.628   1.259   6.453  0.8852  0.8316 -0.2653
   19MOL   H62913985   0.632   1.278   6.625  0.1651  2.0186 -1.4166
   19MOL   H63013986   0.581   1.043   6.639  0.6356 -0.7444  0.1309
   19MOL   C63113987   0.606   0.999   6.453  0.0836  0.4152 -0.2195
   19MOL   O63213988   0.656   1.026   6.345 -0.1651 -0.0937 -0.1740
   19MOL   C63313989   0.548   0.859   6.491  0.5206  0.6567 -0.4115
   19MOL   C63413990   0.654   0.744   6.468  0.4718  0.7741 -0.2849
   19MOL   C63513991   0.585   0.606   6.513  0.4362 -1.4636  0.1133
   19MOL   C63613992   0.672   0.485   6.527 -0.0214 -0.3309 -0.4580
   19MOL   C63713993   0.594   0.359   6.550 -0.1768 -0.6567 -0.3159
   19MOL   C63813994   0.692   0.248   6.598 -0.7101  0.3059 -0.0789
   19MOL   C63913995   0.654   0.100   6.620  0.1926  0.3024  0.5771
   19MOL   C64013996   0.549   0.074   6.734  0.1104 -0.0341  0.0337
   19MOL   C64113997   0.495   7.624   6.744 -0.5335 -0.2701 -0.0139
   19MOL   C64213998   0.368   7.616   6.834 -0.3615 -0.1472  0.3752
   19MOL   C64313999   0.384   7.657   6.984 -0.3264  0.1154 -0.5595
   19MOL   N64414000   0.269   7.640   7.067  0.3530 -1.0236 -0.3638
   19MOL   H64514001   0.465   0.841   6.423 -0.4525 -1.6758  1.3083
   19MOL   H64614002   0.508   0.859   6.593  0.5612  0.0297 -0.3961
   19MOL   H64714003   0.680   0.746   6.362 -0.8301  1.6901 -0.6137
   19MOL   H64814004   0.741   0.755   6.533 -1.0625 -1.5058  2.2627
   19MOL   H64914005   0.502   0.581   6.446  0.4697  0.1582 -0.5536
   19MOL   H65014006   0.545   0.624   6.612  2.5916  1.5829  0.5106
   19MOL   H65114007   0.748   0.479   6.450 -1.2038 -2.2690 -1.4906
   19MOL   H65214008   0.721   0.513   6.620 -0.6819  0.8694 -0.4625
   19MOL   H65314009   0.560   0.322   6.453 -0.1420 -2.2475  0.2792
   19MOL   H65414010   0.513   0.369   6.622 -0.4539 -1.2311 -0.5447
   19MOL   H65514011   0.733   0.291   6.689  0.1714  0.9196 -0.7544
   19MOL   H65614012   0.770   0.251   6.521 -0.0104  5.1048  0.6639
   19MOL   H65714013   0.748   0.049   6.646  0.4225  1.1443  1.4304
   19MOL   H65814014   0.628   0.060   6.522  1.0347 -1.0958  0.9066
   19MOL   H65914015   0.467   0.144   6.717  0.4151  0.2952 -0.0794
   19MOL   H66014016   0.596   0.109   6.826  0.0508 -2.2794  0.9471
   19MOL   H66114017   0.571   7.556   6.783 -1.6669 -1.5896 -0.0462
   19MOL   H66214018   0.473   7.601   6.640  2.7462 -1.2005 -0.5308
   19MOL   H66314019   0.337   7.511   6.841 -1.1916  0.0402 -0.3205
   19MOL   H66414020   0.277   7.661   6.794  0.7993  0.7054 -1.3911
   19MOL   H66514021   0.423   0.065   6.985 -0.2049  0.0610  1.1489
   19MOL   H66614022   0.465   7.598   7.027 -1.3372 -1.1820 -0.4021
   19MOL   H66714023   0.204   0.022   7.060  1.0511 -0.4637 -0.8532
   19MOL   C66814024   0.238   7.522   7.120  0.7228 -0.5824 -0.0880
   19MOL   O66914025   0.309   7.422   7.113  0.1845  0.1527  0.3856
   19MOL   C67014026   0.105   7.501   7.188 -0.2797 -0.4378  0.2347
   19MOL   C67114027   0.088   7.387   7.288 -0.0996  0.2821  0.3159
   19MOL   C67214028   7.638   7.363   7.336 -0.3051 -0.4722  0.0590
   19MOL   C67314029   7.632   7.229   7.420 -0.5990  0.5447  0.5263
   19MOL   C67414030   7.484   7.166   7.428 -0.1144  0.0329  0.0012
   19MOL   C67514031   7.480   7.073   7.546  0.8249  0.2015  0.0683
   19MOL   C67614032   7.338   7.018   7.554  0.2321 -0.2785  0.3237
   19MOL   C67714033   7.316   6.924   7.675 -0.1370 -0.2996  0.3633
   19MOL   C67814034   7.253   6.787   7.638 -0.7880  0.0696  0.0815
   19MOL   C67914035   7.101   6.800   7.617 -0.6967  0.0060 -0.3481
   19MOL   C68014036   7.043   6.669   7.561  0.0217  0.3610 -0.7336
   19MOL   N68114037   6.894   6.676   7.568 -0.4278  0.6617  0.1065
   19MOL   H68214038   0.030   7.486   7.110 -0.6948 -0.4380  0.6330
   19MOL   H68314039   0.071   7.591   7.240  1.3604  0.5646 -0.3975
   19MOL   H68414040   0.114   7.293   7.241 -0.2627  0.4320 -0.0734
   19MOL   H68514041   0.154   7.403   7.374  0.2968  2.0678 -0.2839
   19MOL   H68614042   7.567   7.367   7.254 -1.0397 -1.2889  0.6462
   19MOL   H68714043   7.615   7.447   7.402 -2.2284 -1.4739  0.7120
   19MOL   H68814044   0.012   7.159   7.383 -2.1840 -0.4822 -0.7885
   19MOL   H68914045   7.661   7.257   7.521 -0.2115  1.0887  0.2674
   19MOL   H69014046   7.455   7.112   7.338  1.3538  0.1248 -0.5414
   19MOL   H69114047   7.425   7.249   7.465  0.0321  0.9548 -1.7606
   19MOL   H69214048   7.501   7.119   7.642  0.5344  1.8071 -0.6244
   19MOL   H69314049   7.548   6.988   7.535 -0.1943 -0.3584 -2.2800
   19MOL   H69414050   7.315   6.968   7.460 -0.7612 -0.5532  0.7018
   19MOL   H69514051   7.263   7.096   7.544  0.0318 -0.6824 -1.4459
   19MOL   H69614052   7.259   6.980   0.056 -1.2111 -1.2840  0.2951
   19MOL   H69714053   7.420   6.912   0.012  0.3921  0.9449 -0.8753
   19MOL   H69814054   7.280   6.711   0.018 -0.0116  0.9750  0.7383
   19MOL   H69914055   7.302   6.750   7.548  0.5792 -1.1963  1.3322
   19MOL   H70014056   7.060   6.885   7.564 -0.8755  0.7561  0.9646
   19MOL   H70114057   7.053   6.807   0.021 -0.8704 -2.1350 -0.2467
   19MOL   H70214058   7.086   6.591   7.625 -1.9682  0.1267  0.3710
   19MOL   H70314059   7.095   6.655   7.467  1.6029 -1.5521  0.3810
   19MOL   H70414060   6.843   6.720   7.493  1.1005  0.6314 -0.9672
   19MOL   C70514061   6.812   6.629   7.659  0.7387  0.4586  0.3697
   19MOL   O70614062   6.855   6.588   0.073  0.5259 -0.0522 -0.4108
   19MOL   C70714063   6.665   6.624   7.633 -0.4058 -0.3353  0.1874
   19MOL   C70814064   6.597   6.749   7.684 -0.0085 -0.3264 -0.7467
   19MOL   C70914065   6.586   6.850   7.567  0.8172 -0.5504  0.2477
   19MOL   C71014066   6.518   6.982   7.607 -0.0131 -0.2433  0.5851
   19MOL   C71114067   6.477   7.059   7.478 -0.2378  0.1494  0.3062
   19MOL   C71214068   6.448   7.208   7.510  0.6177  0.8705 -0.2156
   19MOL   C71314069   6.388   7.281   7.381 -0.4156  0.0763  0.0970
   19MOL   C71414070   6.504   7.293   7.278  0.5229  0.2191 -0.3198
   19MOL   C71514071   6.612   7.391   7.327  0.6176 -0.3335  0.2095
   19MOL   C71614072   6.697   7.454   7.209  0.1996  0.2009  0.1105
   19MOL   C71714073   6.804   7.556   7.247  0.2049 -0.3526  0.1488
   19MOL   N71814074   6.753   7.674   7.311 -0.0728  0.0361  0.0134
   19MOL   H71914075   6.640   6.530   7.683  0.3871  1.0131  3.2631
   19MOL   H72014076   6.656   6.598   7.528  0.1813 -0.9375  0.2815
   19MOL   H72114077   6.504   6.733   0.045  0.8476 -0.0432  0.8145
   19MOL   H72214078   6.669   6.794   0.058  0.3201 -1.6824 -0.1799
   19MOL   H72314079   6.519   6.801   7.496 -1.5163  2.2486  0.4569
   19MOL   H72414080   6.683   6.863   7.519  0.7861 -0.7567  0.1273
   19MOL   H72514081   6.429   6.956   7.664  0.5462 -0.3646  1.4087
   19MOL   H72614082   6.578   7.045   7.673 -0.2805 -0.4778  1.0474
   19MOL   H72714083   6.394   7.012   7.425  2.2264 -1.8918 -1.8915
   19MOL   H72814084   6.564   7.063   7.412 -0.3484 -1.5140  0.0176
   19MOL   H72914085   6.544   7.248   7.543  1.4513 -0.1746 -1.3044
   19MOL   H73014086   6.371   7.216   7.587  0.4741  2.4492 -0.5131
   19MOL   H73114087   6.344   7.378   7.403  2.9316  1.5139  0.7515
   19MOL   H73214088   6.308   7.221   7.338 -0.4273 -0.8359  1.3464
   19MOL   H73314089   6.461   7.341   7.190  0.0670  0.9799  0.3128
   19MOL   H73414090   6.548   7.196   7.253  1.4407  0.8107 -1.0579
   19MOL   H73514091   6.686   7.341   7.390 -0.1679 -1.6397  0.1123
   19MOL   H73614092   6.564   7.462   7.394 -0.5163 -1.0546  0.1825
   19MOL   H73714093   6.625   7.506   7.146 -0.0293  0.4103  0.5396
   19MOL   H73814094   6.740   7.379   7.143  1.2087  0.8251  0.0482
   19MOL   H73914095   6.856   7.589   7.157 -0.5256 -1.1641 -0.5797
   19MOL   H74014096   6.876   7.503   7.310 -1.8879 -1.1719  1.9164
   19MOL   H74114097   6.821   0.055   7.305  1.0424 -0.9330  0.3231
   19MOL   H74214098   6.685   0.013   7.244  0.1925 -2.7002 -1.6681
   20MOL     C114099   4.345   1.334   0.690 -0.6427  0.1568 -0.2129
   20MOL     O214100   4.352   1.301   0.803  0.3142 -0.2770  0.3081
   20MOL     C314101   4.400   1.242   0.580 -0.0166  0.8511  0.1637
   20MOL     C414102   4.366   1.094   0.588  0.4357  0.3540  0.1817
   20MOL     C514103   4.472   1.004   0.638  0.0979 -0.0596 -0.4882
   20MOL     C614104   4.493   1.008   0.794 -0.3807  0.3482  0.3983
   20MOL     C714105   4.584   0.896   0.844  0.1659  0.0931  0.7882
   20MOL     C814106   4.594   0.893   0.998  0.2016 -0.1107  0.2755
   20MOL     C914107   4.709   0.791   1.036  0.0796 -0.4377 -0.6610
   20MOL    C1014108   4.856   0.844   1.008 -0.1021 -0.8163 -0.0615
   20MOL    C1114109   4.965   0.759   1.077  0.3302 -0.0248 -0.2632
   20MOL    C1214110   4.981   0.617   1.030  0.2207 -0.0597  0.2700
   20MOL    C1314111   5.020   0.599   0.887 -0.2359  0.7867 -0.1872
   20MOL    N1414112   5.028   0.462   0.844 -0.1618  0.2134 -0.5613
   20MOL    H1514113   4.509   1.252   0.577 -0.0429  0.9092 -1.1046
   20MOL    H1614114   4.361   1.273   0.483  0.2877 -0.7248 -0.4809
   20MOL    H1714115   4.276   1.086   0.649  1.4366 -1.0811  1.5058
   20MOL    H1814116   4.327   1.062   0.492  0.0308  2.5737 -0.4254
   20MOL    H1914117   4.564   1.028   0.584  1.5274  1.4108  2.4902
   20MOL    H2014118   4.452   0.898   0.621  1.3006 -0.2328 -0.8500
   20MOL    H2114119   4.533   1.105   0.822 -2.9031  1.9293 -1.3639
   20MOL    H2214120   4.391   0.989   0.830 -0.8063  1.9626  0.0615
   20MOL    H2314121   4.682   0.900   0.798  0.3245  0.9073  1.1784
   20MOL    H2414122   4.539   0.801   0.816 -1.2581  0.7132  0.8897
   20MOL    H2514123   4.501   0.855   1.038  0.1568  0.9745  1.2127
   20MOL    H2614124   4.624   0.990   1.038  0.7446  0.3053 -1.1030
   20MOL    H2714125   4.691   0.697   0.984  0.0961 -0.1733 -1.1541
   20MOL    H2814126   4.687   0.776   1.142  1.2236  0.0580 -0.3471
   20MOL    H2914127   4.865   0.945   1.048 -0.8176  0.2736 -2.6039
   20MOL    H3014128   4.883   0.847   0.903 -0.5098  1.1295 -0.1193
   20MOL    H3114129   4.950   0.749   1.185  0.0603  0.4862 -0.2505
   20MOL    H3214130   5.060   0.812   1.073  0.0469  0.6823  1.5218
   20MOL    H3314131   4.896   0.554   1.054 -0.5332  1.0086  0.4211
   20MOL    H3414132   5.055   0.568   1.094  0.3661 -0.8918 -0.5262
   20MOL    H3514133   5.113   0.651   0.862  0.7601  0.3285  2.4096
   20MOL    H3614134   4.939   0.648   0.832  0.2340  0.4828 -1.1692
   20MOL    H3714135   5.117   0.414   0.839  0.1315  0.5468  1.1195
   20MOL    H3814136   4.301   1.429   0.661 -1.5291 -0.3771 -0.6407
   20MOL    C3914137   4.926   0.395   0.796  0.1436  1.0018  0.3843
   20MOL    O4014138   4.811   0.434   0.800  0.6543  0.0288 -0.3204
   20MOL    C4114139   4.948   0.263   0.727  0.3230  0.2576 -0.3267
   20MOL    C4214140   4.911   0.252   0.583  0.0051 -0.6096 -0.4033
   20MOL    C4314141   4.767   0.213   0.553 -0.0448  0.8725  0.3663
   20MOL    C4414142   4.741   0.167   0.406 -0.3003  0.3189 -0.3217
   20MOL    C4514143   4.805   0.256   0.294  0.6128 -0.0306 -0.1439
   20MOL    C4614144   4.757   0.232   0.156  0.9444  0.2019  0.6904
   20MOL    C4714145   4.817   0.329   0.056 -0.1555 -0.0160  0.9095
   20MOL    C4814146   4.766   0.301   7.609  0.3015  0.2963  0.2926
   20MOL    C4914147   4.806   0.408   7.502  0.1332  0.1247 -0.0802
   20MOL    C5014148   4.758   0.551   7.533  0.1990  0.0010 -0.3987
   20MOL    C5114149   4.793   0.642   7.418  0.2890  0.2573 -0.7143
   20MOL    N5214150   4.756   0.777   7.453  0.0968 -0.9422  0.1808
   20MOL    H5314151   4.899   0.188   0.789  1.1633 -0.3742 -0.4081
   20MOL    H5414152   5.050   0.228   0.746 -0.0901 -0.9393 -0.2433
   20MOL    H5514153   4.918   0.350   0.537 -0.7885  0.1579  1.0955
   20MOL    H5614154   4.982   0.184   0.535  2.6108  0.1606  2.2147
   20MOL    H5714155   4.701   0.298   0.572 -0.4877  0.2414  1.7381
   20MOL    H5814156   4.738   0.130   0.617  0.2489  0.8015  0.4069
   20MOL    H5914157   4.784   0.067   0.414 -0.5291  0.3602  1.7310
   20MOL    H6014158   4.635   0.154   0.387 -0.4482  1.5110 -0.3142
   20MOL    H6114159   4.913   0.241   0.288  0.7410  1.1350 -0.9741
   20MOL    H6214160   4.789   0.362   0.317 -0.8619 -0.3271  0.2722
   20MOL    H6314161   4.650   0.249   0.160  1.0684  1.3242 -0.2474
   20MOL    H6414162   4.767   0.129   0.123 -0.3254  0.1149  0.5815
   20MOL    H6514163   4.925   0.320   0.065 -0.1321 -1.1898 -0.3680
   20MOL    H6614164   4.795   0.431   0.085 -0.5413  0.5898 -1.4375
   20MOL    H6714165   4.658   0.306   7.613  0.2206 -1.9086  2.0130
   20MOL    H6814166   4.784   0.197   7.581  0.6822  0.4776 -0.1505
   20MOL    H6914167   4.758   0.385   7.406 -0.7451 -0.4736  0.5026
   20MOL    H7014168   4.913   0.420   7.487  0.4120  0.2667  1.9679
   20MOL    H7114169   4.808   0.595   7.620  0.1632  1.6143 -1.1681
   20MOL    H7214170   4.650   0.541   7.548  0.5664 -2.0583  1.1003
   20MOL    H7314171   4.745   0.615   7.324 -1.0422 -1.9902  0.5634
   20MOL    H7414172   4.901   0.648   7.405  0.3546 -0.6027 -0.5690
   20MOL    H7514173   4.733   0.798   7.549 -1.5617  0.6157 -0.5236
   20MOL    C7614174   4.746   0.880   7.362  0.0829  0.7987 -0.7245
   20MOL    O7714175   4.758   0.861   7.244 -0.7389  0.0721  0.1694
   20MOL    C7814176   4.721   1.024   7.414 -0.0745  0.1853 -1.1323
   20MOL    C7914177   4.700   1.143   7.311 -0.4077 -0.3057  0.3974
   20MOL    C8014178   4.814   1.194   7.232 -0.4098  0.1441  0.3444
   20MOL    C8114179   4.923   1.241   7.331 -0.0451  0.1070 -0.0742
   20MOL    C8214180   5.022   1.340   7.267 -0.0823 -0.4617 -0.0175
   20MOL    C8314181   4.949   1.477   7.241  0.2414  0.0807  0.0738
   20MOL    C8414182   5.037   1.581   7.174  0.1096 -0.5204  0.0324
   20MOL    C8514183   4.962   1.704   7.144 -0.2997 -1.0919 -0.5458
   20MOL    C8614184   5.034   1.804   7.047  0.3258  0.0548  0.2151
   20MOL    C8714185   4.958   1.942   7.019  0.1698  0.4315 -0.5928
   20MOL    C8814186   4.827   1.926   6.934 -0.1537  0.6076  0.8221
   20MOL    N8914187   4.768   2.049   6.889  0.4297 -0.7088  0.1348
   20MOL    H9014188   4.809   1.046   7.474  1.3778 -0.4364 -3.0045
   20MOL    H9114189   4.623   1.021   7.463 -0.1026  2.9513 -0.8970
   20MOL    H9214190   4.625   1.102   7.244 -0.8016 -2.3759  2.0437
   20MOL    H9314191   4.663   1.229   7.367 -0.8363 -0.8510  0.9629
   20MOL    H9414192   4.784   1.283   7.178 -0.0783 -0.2131 -0.4428
   20MOL    H9514193   4.855   1.123   7.159  0.7209  2.6827 -1.5703
   20MOL    H9614194   4.877   1.285   7.419 -4.1413 -4.3242  0.1671
   20MOL    H9714195   4.977   1.155   7.369 -1.4114 -0.2666  1.0518
   20MOL    H9814196   5.069   1.321   7.171 -0.2904 -0.0745 -0.1982
   20MOL    H9914197   5.100   1.364   7.339 -0.7224  1.7747 -0.0405
   20MOL   H10014198   4.920   1.512   7.341  1.4354 -0.2976  0.5598
   20MOL   H10114199   4.866   1.469   7.171 -1.7446 -0.9361  2.4437
   20MOL   H10214200   5.084   1.544   7.083 -0.2882 -0.1587 -0.3225
   20MOL   H10314201   5.126   1.598   7.234  0.5954 -0.6935 -0.6304
   20MOL   H10414202   4.938   1.761   7.234 -0.3680  0.2160 -1.3703
   20MOL   H10514203   4.866   1.675   7.102 -0.1965 -1.7562 -0.3271
   20MOL   H10614204   5.042   1.760   6.948 -0.1999  0.1730  0.1167
   20MOL   H10714205   5.134   1.821   7.085  0.2261  2.3938 -0.4827
   20MOL   H10814206   5.032   2.006   6.971  0.8280 -0.4292 -0.7375
   20MOL   H10914207   4.944   1.997   7.112  1.3512 -1.2057  0.5926
   20MOL   H11014208   4.748   1.876   6.990 -0.2769 -0.1411  0.0075
   20MOL   H11114209   4.839   1.851   6.856  1.5498  1.1145  0.5707
   20MOL   H11214210   4.815   2.137   6.900 -0.5486 -0.2112  0.4581
   20MOL   C11314211   4.652   2.049   6.826  0.2391  0.2863 -0.8874
   20MOL   O11414212   4.585   1.951   6.810 -0.2955 -0.5457 -0.4236
   20MOL   C11514213   4.595   2.191   6.791 -0.5348 -0.4361  0.4107
   20MOL   C11614214   4.540   2.207   6.643  0.6224 -0.4262 -0.1630
   20MOL   C11714215   4.643   2.263   6.545 -0.3990 -0.4722 -0.0357
   20MOL   C11814216   4.608   2.245   6.394 -0.1786 -0.4769  0.3426
   20MOL   C11914217   4.719   2.264   6.287 -0.0782  0.3536 -0.1558
   20MOL   C12014218   4.670   2.226   6.149  0.7057  0.6354  0.8009
   20MOL   C12114219   4.774   2.262   6.036  0.3769  0.9036 -0.5791
   20MOL   C12214220   4.741   2.175   5.905  0.0863  0.3168  0.6686
   20MOL   C12314221   4.631   2.225   5.815 -0.4771 -0.2279 -0.1254
   20MOL   C12414222   4.622   2.147   5.682  0.6466  1.3300  0.5870
   20MOL   C12514223   4.569   2.004   5.686  0.4181 -0.3749 -0.1193
   20MOL   N12614224   4.534   1.952   5.553  0.2678 -0.1010  0.3473
   20MOL   H12714225   4.674   2.261   6.817 -0.6048 -0.0377 -0.4250
   20MOL   H12814226   4.526   2.207   6.874 -1.8734  0.0793 -0.7787
   20MOL   H12914227   4.494   2.122   6.593  0.3941 -1.4440  1.7124
   20MOL   H13014228   4.452   2.271   6.657  0.4869 -1.1725  2.8140
   20MOL   H13114229   4.733   2.207   6.571  0.4089  0.3519 -1.0370
   20MOL   H13214230   4.652   2.370   6.563 -1.1052 -0.1841 -1.3373
   20MOL   H13314231   4.575   2.142   6.378  0.4032 -0.5246 -0.5783
   20MOL   H13414232   4.518   2.305   6.375  1.3201  1.0653 -2.2138
   20MOL   H13514233   4.809   2.215   6.324 -1.8115 -1.9170  1.2090
   20MOL   H13614234   4.752   2.368   6.298  1.3949 -0.0317 -0.8916
   20MOL   H13714235   4.578   2.281   6.130  2.5931  3.6605  0.0386
   20MOL   H13814236   4.656   2.118   6.157  3.1073  0.2695  0.4155
   20MOL   H13914237   4.874   2.236   6.070 -0.0622 -0.8663 -0.5897
   20MOL   H14014238   4.778   2.370   6.021 -0.1264  1.5433  3.4059
   20MOL   H14114239   4.716   2.076   5.943  3.0256 -0.4527  0.7105
   20MOL   H14214240   4.830   2.169   5.843  1.2983  2.8461  2.0466
   20MOL   H14314241   4.653   2.330   5.798  0.8740 -0.3692  0.6808
   20MOL   H14414242   4.538   2.229   5.871  0.2449  1.7015  1.0130
   20MOL   H14514243   4.718   2.150   5.631 -0.1967  0.3154 -1.0868
   20MOL   H14614244   4.565   2.213   5.617  0.5397  1.9703  1.3263
   20MOL   H14714245   4.484   2.005   5.755  0.9023 -0.5589  0.4823
   20MOL   H14814246   4.641   1.931   5.723  0.9729  1.4283  2.4970
   20MOL   H14914247   4.587   1.990   5.476  1.6518 -0.2986  1.1794
   20MOL   C15014248   4.418   1.884   5.530 -0.0562 -0.3079 -0.0056
   20MOL   O15114249   4.343   1.838   5.615  0.1865  0.7203 -0.0667
   20MOL   C15214250   4.385   1.858   5.380 -0.3393  0.4624 -0.3089
   20MOL   C15314251   4.238   1.847   5.341  0.5307  0.2955 -0.3672
   20MOL   C15414252   4.172   1.983   5.326 -0.3536 -0.6306  0.0725
   20MOL   C15514253   4.021   1.983   5.311  1.1528  0.1548 -0.6886
   20MOL   C15614254   3.947   1.953   5.443 -0.1306 -0.3938  0.1717
   20MOL   C15714255   3.792   1.948   5.433 -0.1892  0.7760 -0.0244
   20MOL   C15814256   3.749   1.836   5.332 -0.2102 -0.5012  0.3579
   20MOL   C15914257   3.600   1.804   5.337  0.1444  0.3134 -0.3003
   20MOL   C16014258   3.559   1.698   5.231  0.1243  0.2582  0.0208
   20MOL   C16114259   3.415   1.648   5.240 -0.6282  0.2024  0.0708
   20MOL   C16214260   3.368   1.554   5.123  0.9697  0.0321 -0.5895
   20MOL   N16314261   3.229   1.507   5.140 -0.2056  0.0615 -0.4817
   20MOL   H16414262   4.440   1.765   5.365 -0.9549 -0.0711  0.6883
   20MOL   H16514263   4.438   1.934   5.322  1.5856 -1.2369 -0.8435
   20MOL   H16614264   4.229   1.801   5.243 -0.7292  1.2255 -0.6899
   20MOL   H16714265   4.191   1.793   5.423  3.3852 -0.8329  0.6191
   20MOL   H16814266   4.216   2.041   5.245  3.0632 -2.8760  0.1969
   20MOL   H16914267   4.193   2.040   5.417 -2.0762  1.9720 -1.1216
   20MOL   H17014268   3.989   2.079   5.269  1.1041 -0.3241 -1.7705
   20MOL   H17114269   3.994   1.919   5.226  1.0584 -0.0871 -0.4767
   20MOL   H17214270   3.991   2.024   5.512  1.7595  0.8733 -2.2706
   20MOL   H17314271   3.981   1.856   5.480  0.9723 -0.6300 -1.3795
   20MOL   H17414272   3.743   2.044   5.419 -1.2426  0.6226  2.4519
   20MOL   H17514273   3.763   1.912   5.531 -0.3451 -0.1556 -0.4036
   20MOL   H17614274   3.800   1.744   5.358 -1.2914 -0.7724  1.5582
   20MOL   H17714275   3.778   1.862   5.230  1.3896  1.2052  1.2214
   20MOL   H17814276   3.556   1.903   5.326 -3.3322 -1.0023  1.0622
   20MOL   H17914277   3.572   1.767   5.436  3.4677  0.9740  0.9569
   20MOL   H18014278   3.618   1.607   5.238 -1.8250 -0.8599  3.0746
   20MOL   H18114279   3.585   1.735   5.132 -0.1701 -1.2006 -0.6132
   20MOL   H18214280   3.343   1.730   5.243 -1.4634 -0.5560  0.8062
   20MOL   H18314281   3.417   1.594   5.334 -0.5384 -0.2095 -0.1679
   20MOL   H18414282   3.446   1.480   5.105 -0.3245 -1.8588  1.2872
   20MOL   H18514283   3.359   1.621   5.038  0.8308 -0.2685 -0.8094
   20MOL   H18614284   3.162   1.575   5.107 -0.0834  1.8143  2.7039
   20MOL   C18714285   3.195   1.394   5.204 -0.0284  0.6364  0.0311
   20MOL   O18814286   3.272   1.309   5.245 -0.0394  0.5735 -0.4109
   20MOL   C18914287   3.048   1.380   5.233  0.5827 -0.0476 -0.6685
   20MOL   C19014288   3.036   1.384   5.389 -0.3989 -0.3416 -0.3327
   20MOL   C19114289   3.042   1.526   5.453 -0.0578 -0.6792 -0.4869
   20MOL   C19214290   2.902   1.597   5.449 -0.5915 -0.3362 -0.4609
   20MOL   C19314291   2.904   1.739   5.501  0.6326  0.6060  0.0901
   20MOL   C19414292   2.778   1.815   5.466 -0.4110 -0.0665 -0.2470
   20MOL   C19514293   2.656   1.774   5.552  0.2474 -1.2198  0.0188
   20MOL   C19614294   2.524   1.828   5.499 -0.9641 -1.1179  0.4395
   20MOL   C19714295   2.400   1.777   5.575  0.2607 -0.1322 -0.5927
   20MOL   C19814296   2.388   1.793   5.728 -0.3456 -1.0507 -0.4371
   20MOL   C19914297   2.346   1.931   5.781 -0.1003 -0.4667  0.2238
   20MOL   N20014298   2.322   1.924   5.924 -0.0333  0.2409  0.5180
   20MOL   H20114299   3.014   1.284   5.197 -1.3921  0.1005  0.7214
   20MOL   H20214300   2.988   1.458   5.186 -0.1197  0.5544  1.1677
   20MOL   H20314301   2.945   1.333   5.420 -0.0964  0.3782  1.7850
   20MOL   H20414302   3.107   1.312   5.429  0.1211  1.4319  2.0249
   20MOL   H20514303   3.120   1.591   5.411 -1.1892 -0.2865 -2.0069
   20MOL   H20614304   3.068   1.509   5.558 -0.8821  2.1686  0.2360
   20MOL   H20714305   2.866   1.612   5.348 -2.8743  0.7515  0.4751
   20MOL   H20814306   2.829   1.533   5.499 -1.8216 -0.2161 -2.0618
   20MOL   H20914307   2.991   1.794   5.464  0.0488  0.7468 -1.1076
   20MOL   H21014308   2.912   1.740   5.609  0.2935  0.7761  0.1127
   20MOL   H21114309   2.758   1.802   5.359  1.2575  0.8272 -0.6784
   20MOL   H21214310   2.787   1.924   5.469  0.4929 -0.1577  0.3831
   20MOL   H21314311   2.685   1.803   5.653  0.5187  0.7682 -0.6016
   20MOL   H21414312   2.642   1.666   5.552  1.9687 -1.4598 -0.8697
   20MOL   H21514313   2.513   1.815   5.392  0.3283  0.2957  0.1121
   20MOL   H21614314   2.525   1.937   5.506  0.6404 -1.1082  0.2598
   20MOL   H21714315   2.401   1.668   5.562 -0.0409 -0.1093 -0.8298
   20MOL   H21814316   2.312   1.806   5.516 -0.5711  0.4490  0.9196
   20MOL   H21914317   2.485   1.771   5.771 -0.2878  1.1457  0.6222
   20MOL   H22014318   2.307   1.726   5.757 -0.8083 -1.1179 -1.8213
   20MOL   H22114319   2.254   1.961   5.729 -0.2593 -1.2921  0.0289
   20MOL   H22214320   2.412   2.016   5.760 -0.9197  0.2083  0.3219
   20MOL   H22314321   2.225   1.927   5.951 -0.1428 -2.0680  0.4660
   20MOL   C22414322   2.405   1.955   6.024  0.9264 -0.1551  0.2717
   20MOL   O22514323   2.528   1.958   6.012  0.2222 -0.3118 -0.7185
   20MOL   C22614324   2.337   1.997   6.157 -0.4658  0.5030  0.4555
   20MOL   C22714325   2.393   2.129   6.214 -0.6901  0.3602  0.3445
   20MOL   C22814326   2.302   2.189   6.327 -0.0940 -0.1495  0.4777
   20MOL   C22914327   2.373   2.304   6.400 -0.1244  0.6791  0.7094
   20MOL   C23014328   2.280   2.402   6.476 -0.1425  0.0052 -0.5552
   20MOL   C23114329   2.367   2.517   6.522  0.1143 -0.0199 -0.8902
   20MOL   C23214330   2.297   2.609   6.622  0.1946  0.2899  0.2918
   20MOL   C23314331   2.363   2.738   6.661  1.2974  0.0667 -0.5553
   20MOL   C23414332   2.268   2.810   6.756  0.2225 -0.5080 -0.6418
   20MOL   C23514333   2.334   2.937   6.814 -0.5261  0.3004  0.5698
   20MOL   C23614334   2.245   2.997   6.924 -0.0120  0.1109  0.1732
   20MOL   N23714335   2.287   3.133   6.952  0.2446  0.8174  0.1558
   20MOL   H23814336   2.347   1.917   6.231  2.3495  0.3382 -0.0234
   20MOL   H23914337   2.232   2.019   6.141 -0.2494  3.0947  2.2398
   20MOL   H24014338   2.491   2.103   6.256 -0.7643 -2.7024 -1.2830
   20MOL   H24114339   2.419   2.196   6.132 -1.1325 -0.5680 -0.5704
   20MOL   H24214340   2.256   2.113   6.390  0.8552 -0.2804  1.0249
   20MOL   H24314341   2.230   2.238   6.261 -0.4916 -0.3559  0.7528
   20MOL   H24414342   2.447   2.255   6.463  1.2115 -1.1598 -2.1991
   20MOL   H24514343   2.419   2.363   6.322  0.5841 -2.2940 -1.1859
   20MOL   H24614344   2.255   2.352   6.569  1.8218  0.0575  0.0270
   20MOL   H24714345   2.193   2.428   6.416 -2.0346 -0.0696  2.0736
   20MOL   H24814346   2.392   2.567   6.429  0.2136  0.9182 -0.3657
   20MOL   H24914347   2.464   2.486   6.562  0.4867  0.2392 -1.5830
   20MOL   H25014348   2.275   2.548   6.709  0.6397 -0.6708 -0.2590
   20MOL   H25114349   2.198   2.625   6.578  0.4062 -0.0652 -0.3211
   20MOL   H25214350   2.389   2.798   6.574  0.1760  3.8646  1.6480
   20MOL   H25314351   2.462   2.725   6.706  0.9830 -1.6764 -0.3270
   20MOL   H25414352   2.246   2.740   6.837  1.9475 -1.0786 -0.6378
   20MOL   H25514353   2.169   2.834   6.718 -0.3355 -1.7055  0.0011
   20MOL   H25614354   2.348   3.007   6.732 -1.8735 -0.9386 -0.7436
   20MOL   H25714355   2.435   2.913   6.847 -0.5273 -0.2149  0.2178
   20MOL   H25814356   2.261   2.939   7.015  1.9021 -1.1503 -0.9267
   20MOL   H25914357   2.145   2.998   6.880  0.0122  3.9496  0.0726
   20MOL   H26014358   2.223   3.209   6.930  0.3709  1.3211  1.4654
   20MOL   C26114359   2.409   3.176   6.999  0.2951 -0.6592  0.1157
   20MOL   O26214360   2.505   3.100   7.011  0.2133 -0.6877  0.1044
   20MOL   C26314361   2.425   3.326   7.020 -0.1386  0.3897 -0.3569
   20MOL   C26414362   2.414   3.360   7.173  0.8399 -0.1439  0.5117
   20MOL   C26514363   2.533   3.317   7.257 -0.3574  0.3725  0.1525
   20MOL   C26614364   2.524   3.364   7.404 -0.4316 -0.0359 -0.4304
   20MOL   C26714365   2.629   3.294   7.495 -0.1547 -0.5508 -0.4031
   20MOL   C26814366   2.644   3.330   7.648  0.2640 -0.1145 -0.3577
   20MOL   C26914367   2.764   3.252   0.017 -0.0761 -0.4380  0.2424
   20MOL   C27014368   2.755   3.100   0.008  0.1890  0.9642 -0.8203
   20MOL   C27114369   2.833   3.029   0.125  1.0719  0.2186  0.2631
   20MOL   C27214370   2.748   3.021   0.255 -0.0424  0.4702  0.5174
   20MOL   C27314371   2.829   2.983   0.380  0.2424  0.0127  0.5967
   20MOL   N27414372   2.740   2.975   0.493  0.5120 -0.1156 -0.0030
   20MOL   H27514373   2.341   3.373   6.970 -0.1056 -1.6305 -2.3714
   20MOL   H27614374   2.516   3.359   6.970  1.4840 -1.3922  1.2559
   20MOL   H27714375   2.417   3.466   7.199  6.1200  0.4975 -1.9762
   20MOL   H27814376   2.330   3.305   7.215  1.8536  0.2455  3.1666
   20MOL   H27914377   2.629   3.352   7.218 -0.4659  2.4444  1.6106
   20MOL   H28014378   2.530   3.209   7.261 -1.4688  0.4123  0.3360
   20MOL   H28114379   2.535   3.473   7.402  0.0652 -0.0729  0.1197
   20MOL   H28214380   2.431   3.336   7.453 -1.0569  3.6893  0.6316
   20MOL   H28314381   2.727   3.292   7.448 -0.1119 -0.1753 -0.3294
   20MOL   H28414382   2.596   3.190   7.496 -2.3147  0.1002 -0.3862
   20MOL   H28514383   2.558   3.309   0.017  0.6042 -1.2677 -0.2553
   20MOL   H28614384   2.671   3.433   7.669  1.8594 -0.5266 -0.3209
   20MOL   H28714385   2.758   3.281   0.121 -2.7309  2.1526 -0.5586
   20MOL   H28814386   2.855   3.301   7.677  0.3704 -2.1448 -1.1478
   20MOL   H28914387   2.804   3.064   7.611  1.9198  0.3922  0.3108
   20MOL   H29014388   2.652   3.065   0.012 -0.4790  3.0166  2.1284
   20MOL   H29114389   2.919   3.096   0.133  0.3619  1.3367 -1.2280
   20MOL   H29214390   2.877   2.932   0.102  0.2707  0.4172 -2.2377
   20MOL   H29314391   2.657   2.964   0.236 -0.0283  1.0687 -1.4323
   20MOL   H29414392   2.704   3.120   0.267 -1.9781 -0.2781 -0.2308
   20MOL   H29514393   2.912   3.051   0.402  0.1424  0.1769  0.4718
   20MOL   H29614394   2.872   2.884   0.373 -0.9989 -0.5980  1.4567
   20MOL   H29714395   2.655   2.924   0.475 -0.2500  0.1630  2.6799
   20MOL   C29814396   2.737   3.048   0.602  0.6807  0.0942  0.0887
   20MOL   O29914397   2.824   3.132   0.622  0.5864  0.2079  0.0631
   20MOL   C30014398   2.619   3.021   0.697 -0.0907 -0.0333 -0.0544
   20MOL   C30114399   2.545   3.148   0.735 -0.2625 -0.1882 -0.6163
   20MOL   C30214400   2.453   3.216   0.628 -0.2745 -0.0101  0.1106
   20MOL   C30314401   2.518   3.279   0.504  0.8424  0.2517  0.0984
   20MOL   C30414402   2.426   3.392   0.441  0.1580  0.1789  0.5684
   20MOL   C30514403   2.502   3.458   0.323  0.1779 -0.4427  0.3059
   20MOL   C30614404   2.392   3.535   0.237 -0.3663 -0.0247  0.8660
   20MOL   C30714405   2.443   3.633   0.126 -0.6072 -0.2707  0.9124
   20MOL   C30814406   2.338   3.700   0.041 -0.2349 -0.5736  0.4791
   20MOL   C30914407   2.384   3.805   7.632 -0.1090  1.1794  0.2822
   20MOL   C31014408   2.426   3.941   7.676 -0.3698  0.4443  0.1017
   20MOL   N31114409   2.540   3.943   0.076 -0.2605 -0.5648 -0.0131
   20MOL   H31214410   2.665   2.989   0.790 -0.1439  0.8793  0.2852
   20MOL   H31314411   2.564   2.935   0.657  0.9285 -0.5466 -0.3728
   20MOL   H31414412   2.479   3.124   0.819 -0.9868  0.4444 -1.0012
   20MOL   H31514413   2.616   3.216   0.784 -1.2589 -1.7051  3.1319
   20MOL   H31614414   2.392   3.296   0.671 -0.9519 -0.1474 -0.5807
   20MOL   H31714415   2.381   3.142   0.595 -1.7406  0.7730  1.4467
   20MOL   H31814416   2.613   3.319   0.541 -0.1355  0.5191  2.3768
   20MOL   H31914417   2.540   3.200   0.432 -2.4810  0.0176 -0.7188
   20MOL   H32014418   2.387   3.460   0.516  0.9631  0.3005  0.8763
   20MOL   H32114419   2.339   3.338   0.403 -0.1608  1.2852 -0.2922
   20MOL   H32214420   2.558   3.385   0.264 -1.2647  0.0684 -1.7570
   20MOL   H32314421   2.571   3.535   0.357 -1.4435  1.1766 -0.0070
   20MOL   H32414422   2.320   3.586   0.300 -0.8902 -0.9237  1.0089
   20MOL   H32514423   2.327   3.466   0.182  1.2749  1.7888 -3.6119
   20MOL   H32614424   2.522   3.588   0.066 -1.0746 -2.3220  1.7942
   20MOL   H32714425   2.504   3.705   0.181  1.3398 -3.0486  2.5532
   20MOL   H32814426   2.284   3.761   0.114  0.5168 -0.8345  1.2544
   20MOL   H32914427   2.275   3.624   7.689 -1.9432  0.8378  0.3891
   20MOL   H33014428   2.302   3.814   7.560 -1.2928 -1.4793  1.2188
   20MOL   H33114429   2.456   3.762   7.562  1.6409  1.7311  1.7252
   20MOL   H33214430   2.348   3.984   0.045 -0.4576 -0.8658  0.8905
   20MOL   H33314431   2.435   3.994   7.580 -1.2940  1.0718  0.3573
   20MOL   H33414432   2.538   3.964   0.174 -0.8299  1.1876 -0.3831
   20MOL   C33514433   2.663   3.929   0.027  0.3193 -0.1617 -0.1293
   20MOL   O33614434   2.690   3.923   7.604 -0.2182  0.7647  0.1544
   20MOL   C33714435   2.773   3.905   0.128 -0.4570 -0.4425 -0.1812
   20MOL   C33814436   2.878   3.797   0.100 -0.6141 -0.5026  0.0844
   20MOL   C33914437   2.905   3.711   0.226 -0.2299 -0.4065  0.3796
   20MOL   C34014438   3.001   3.591   0.193 -0.1397  0.5408  0.3525
   20MOL   C34114439   3.001   3.484   0.296  0.6867  1.2078 -0.2916
   20MOL   C34214440   3.115   3.379   0.253  0.2227 -0.2569  0.4779
   20MOL   C34314441   3.143   3.270   0.356 -0.5506  0.3211 -0.0922
   20MOL   C34414442   3.221   3.152   0.294 -0.0408 -0.0451  0.4461
   20MOL   C34514443   3.246   3.041   0.406  0.3881 -0.4068 -0.1395
   20MOL   C34614444   3.291   2.896   0.369  0.0890 -0.5631 -0.0937
   20MOL   C34714445   3.185   2.810   0.307  0.0886  0.9056 -0.0874
   20MOL   N34814446   3.232   2.710   0.222  0.5552  0.6867 -0.2546
   20MOL   H34914447   2.727   3.885   0.225 -1.8624 -2.3994 -1.2243
   20MOL   H35014448   2.833   3.992   0.155 -2.0352  0.8840 -0.8323
   20MOL   H35114449   2.850   3.729   0.020  0.2392  1.3183 -1.8118
   20MOL   H35214450   2.972   3.833   0.059 -1.1666 -1.3304 -1.9887
   20MOL   H35314451   2.809   3.678   0.266 -1.5217  0.1708 -2.1225
   20MOL   H35414452   2.956   3.764   0.306 -2.7472  1.3569  0.8670
   20MOL   H35514453   2.966   3.544   0.101  0.8846 -0.4045  0.4314
   20MOL   H35614454   3.101   3.628   0.170  0.3032  0.6250  2.3223
   20MOL   H35714455   2.900   3.444   0.301  0.6639  1.1881 -0.8470
   20MOL   H35814456   3.029   3.516   0.396  1.4024  1.0826 -0.4446
   20MOL   H35914457   3.212   3.422   0.231  0.2442 -0.4200  0.2584
   20MOL   H36014458   3.087   3.331   0.159  0.0768  0.4353  0.1679
   20MOL   H36114459   3.045   3.228   0.382 -1.8295  2.6883 -0.8997
   20MOL   H36214460   3.183   3.321   0.444 -0.1696  1.8804 -1.1462
   20MOL   H36314461   3.314   3.191   0.252 -1.6379  0.2723 -2.9628
   20MOL   H36414462   3.169   3.124   0.203  2.9742  0.1536 -1.4114
   20MOL   H36514463   3.158   3.026   0.468 -1.4548 -0.5605 -2.6896
   20MOL   H36614464   3.323   3.093   0.462 -0.6068 -2.7804  3.6073
   20MOL   H36714465   3.333   2.849   0.457  1.5623 -0.0955 -0.5376
   20MOL   H36814466   3.377   2.920   0.307  0.3678 -1.6601 -0.1400
   20MOL   H36914467   3.115   2.864   0.242 -1.2614  0.9406  1.3566
   20MOL   H37014468   3.118   2.772   0.384  0.0342 -1.1306 -1.1145
   20MOL   H37114469   3.304   2.732   0.154  0.3595  2.4027  0.0623
   20MOL   C37214470   3.174   2.593   0.193 -0.9723  0.1542  0.4024
   20MOL   O37314471   3.075   2.550   0.256  0.0425  0.7261  0.3939
   20MOL   C37414472   3.250   2.500   0.089  0.3820 -0.4706  0.2671
   20MOL   C37514473   3.362   2.416   0.148  0.1449  0.2407  0.6080
   20MOL   C37614474   3.501   2.457   0.124 -0.1413 -0.5013 -0.1640
   20MOL   C37714475   3.599   2.359   0.193  0.4742  0.0587 -0.4101
   20MOL   C37814476   3.740   2.384   0.166  0.1254 -0.7436  0.3004
   20MOL   C37914477   3.834   2.301   0.257 -0.0767  0.3128  0.1000
   20MOL   C38014478   3.977   2.310   0.197  0.2604  0.2027 -0.4623
   20MOL   C38114479   4.061   2.193   0.245 -0.6007 -0.1097  0.0504
   20MOL   C38214480   4.210   2.193   0.212 -0.1037  0.3583 -0.1862
   20MOL   C38314481   4.283   2.068   0.269  0.7852 -1.0366 -0.4576
   20MOL   C38414482   4.399   2.016   0.187 -0.2737 -0.0067  0.2948
   20MOL   N38514483   4.363   1.998   0.045  0.0912  0.1680  0.5021
   20MOL   H38614484   3.274   2.557   7.693 -2.7615  0.2606 -0.1703
   20MOL   H38714485   3.168   2.437   0.055 -0.4990  0.6106  0.3640
   20MOL   H38814486   3.343   2.398   0.254 -3.1196  0.4339  0.1000
   20MOL   H38914487   3.355   2.312   0.114 -3.2603  0.7180 -0.3234
   20MOL   H39014488   3.509   2.563   0.152  0.0981 -0.8351  1.0735
   20MOL   H39114489   3.512   2.450   0.016  0.3418  0.9454 -0.2235
   20MOL   H39214490   3.580   2.354   0.300  0.6061  1.2185 -0.3298
   20MOL   H39314491   3.577   2.256   0.162 -0.8541  0.6866 -1.6301
   20MOL   H39414492   3.757   2.491   0.177  0.8286 -0.6337 -1.7397
   20MOL   H39514493   3.761   2.363   0.062  0.2535  0.5335  0.0632
   20MOL   H39614494   3.800   2.197   0.253  0.3196  0.1051  1.7447
   20MOL   H39714495   3.830   2.331   0.362 -2.6421  0.4159  0.0025
   20MOL   H39814496   4.018   2.407   0.226 -0.3479  0.3255  0.0175
   20MOL   H39914497   3.973   2.301   0.089  2.7259  0.7653 -0.6372
   20MOL   H40014498   4.019   2.098   0.213 -0.1734  0.6149 -2.8534
   20MOL   H40114499   4.047   2.202   0.353 -0.4777 -2.6447  0.2914
   20MOL   H40214500   4.259   2.287   0.236 -3.8876  2.6177 -0.8348
   20MOL   H40314501   4.220   2.194   0.103 -0.9598 -0.7342 -0.2886
   20MOL   H40414502   4.211   1.986   0.280 -0.5754  0.6862  4.7201
   20MOL   H40514503   4.309   2.082   0.374  1.9502 -1.8691 -0.6292
   20MOL   H40614504   4.448   1.925   0.221 -0.9520 -0.7901 -0.7868
   20MOL   H40714505   4.475   2.093   0.188  1.2243 -1.4640 -0.1690
   20MOL   H40814506   4.385   2.073   7.675 -0.5571 -0.7867 -0.8700
   20MOL   C40914507   4.342   1.881   7.673 -0.0628  0.3061 -0.5410
   20MOL   O41014508   4.325   1.773   0.030 -0.0370  0.2673 -0.0697
   20MOL   C41114509   4.325   1.887   7.525 -0.3984 -0.4363  0.3222
   20MOL   C41214510   4.194   1.950   7.460  0.5378 -0.2471 -0.1934
   20MOL   C41314511   4.174   2.102   7.493 -0.4119  0.6307  0.3599
   20MOL   C41414512   4.067   2.176   7.411 -0.4588  0.2711  0.1310
   20MOL   C41514513   4.053   2.328   7.447 -0.1451  0.3037  0.8454
   20MOL   C41614514   3.916   2.380   7.411 -0.7272 -1.0862  0.1631
   20MOL   C41714515   3.878   2.513   7.494 -0.4726  0.7003  0.4077
   20MOL   C41814516   3.728   2.542   7.466 -0.2784  0.3076  0.1529
   20MOL   C41914517   3.656   2.651   7.538  0.0197 -0.4615  0.2742
   20MOL   C42014518   3.698   2.795   7.506  0.0289  0.4897  0.1448
   20MOL   C42114519   3.652   2.897   7.620  0.4666 -0.0085 -0.0074
   20MOL   N42214520   3.508   2.936   7.603 -1.2865 -0.3610 -0.1717
   20MOL   H42314521   4.332   1.787   7.482 -0.8370 -0.2082 -0.2799
   20MOL   H42414522   4.411   1.936   7.481  1.0178 -2.8668  0.2748
   20MOL   H42514523   4.185   1.920   7.356  2.3989  1.1162 -0.7795
   20MOL   H42614524   4.108   1.899   7.504 -0.1086  0.4317 -0.6567
   20MOL   H42714525   4.268   2.150   7.467 -1.2934  1.8217 -0.7389
   20MOL   H42814526   4.150   2.109   7.599 -1.5090 -1.2874  0.2558
   20MOL   H42914527   4.098   2.183   7.307 -1.1603  3.1495  0.0787
   20MOL   H43014528   3.971   2.126   7.425 -0.2332 -0.7133 -1.7608
   20MOL   H43114529   4.132   2.385   7.399 -1.0803 -0.5667 -1.8092
   20MOL   H43214530   4.056   2.343   7.555 -4.2504  0.6958  1.0010
   20MOL   H43314531   3.847   2.297   7.426 -0.1264 -2.2573 -3.0976
   20MOL   H43414532   3.913   2.420   7.310 -0.6303  0.9812  0.9537
   20MOL   H43514533   3.939   2.599   7.468 -1.2857  0.7316 -1.5444
   20MOL   H43614534   3.888   2.505   7.602  0.2905  0.8473  0.3509
   20MOL   H43714535   3.678   2.450   7.496 -1.0236  0.6222 -0.1304
   20MOL   H43814536   3.700   2.546   7.361 -3.8717 -0.4517  1.0275
   20MOL   H43914537   3.678   2.643   7.644  0.5875  0.6874  0.2484
   20MOL   H44014538   3.549   2.641   7.522  0.1236 -4.0439  1.4736
   20MOL   H44114539   3.662   2.835   7.411  0.3969  1.5112  0.4262
   20MOL   H44214540   3.807   2.799   7.502 -0.0015  0.5043 -0.8045
   20MOL   H44314541   3.715   2.986   7.631  2.2290 -1.1099 -0.9136
   20MOL   H44414542   3.667   2.848   0.022 -1.2460 -3.3523 -1.3812
   20MOL   H44514543   3.488   3.024   7.557 -1.6531 -0.6361 -0.5516
   20MOL   C44614544   3.405   2.867   7.655 -0.3146 -0.0661  0.0824
   20MOL   O44714545   3.407   2.763   0.024 -0.1605  0.1863 -0.3340
   20MOL   C44814546   3.270   2.936   7.636  0.0007  0.2766 -0.6707
   20MOL   C44914547   3.186   2.853   7.542 -0.3652 -0.1046  0.6957
   20MOL   C45014548   3.096   2.951   7.475  0.0171 -0.2682 -0.6242
   20MOL   C45114549   2.999   2.882   7.382  0.5619  0.1022 -0.1814
   20MOL   C45214550   2.923   2.983   7.294 -0.0567  0.0441 -0.5593
   20MOL   C45314551   3.003   3.004   7.161 -0.3190  0.1858  0.5099
   20MOL   C45414552   2.921   3.077   7.053  0.4844 -1.2311 -1.0458
   20MOL   C45514553   2.916   3.230   7.082  0.4187  0.0814 -0.1293
   20MOL   C45614554   2.840   3.301   6.964 -0.0799 -0.1895  0.0586
   20MOL   C45714555   2.832   3.454   6.991  0.0662 -0.4295  0.1658
   20MOL   C45814556   2.779   3.535   6.864 -0.4716  0.2166  0.1460
   20MOL   N45914557   2.756   3.675   6.907 -0.0011  0.8223  0.0250
   20MOL   H46014558   3.291   3.032   7.589 -0.9205  0.7651 -0.0955
   20MOL   H46114559   3.223   2.960   0.037  1.7094 -0.0335  0.2775
   20MOL   H46214560   3.241   2.795   7.467  0.6203  0.4104  1.0040
   20MOL   H46314561   3.136   2.782   7.608  0.7788 -1.3814  0.2456
   20MOL   H46414562   3.149   3.034   7.429 -0.4546 -0.3670 -1.3474
   20MOL   H46514563   3.029   2.999   7.546 -0.4419 -2.9995  0.8670
   20MOL   H46614564   3.043   2.804   7.320 -0.2935 -0.3105 -0.2763
   20MOL   H46714565   2.926   2.826   7.441  1.6941  0.0620  1.2110
   20MOL   H46814566   2.895   3.077   7.342  2.3627  0.1822  0.6656
   20MOL   H46914567   2.836   2.934   7.252 -0.6918  0.3217  0.4091
   20MOL   H47014568   3.020   2.902   7.126  0.2603  0.8220 -1.1234
   20MOL   H47114569   3.095   3.059   7.179 -0.7017  1.8589 -2.2358
   20MOL   H47214570   2.824   3.032   7.032 -0.5880  1.0384 -1.0763
   20MOL   H47314571   2.974   3.067   6.958 -0.3297  2.3506 -1.9268
   20MOL   H47414572   3.016   3.273   7.093  0.9152 -1.4009  1.2414
   20MOL   H47514573   2.859   3.249   7.173 -0.6963 -0.4676 -0.7116
   20MOL   H47614574   2.738   3.262   6.960  0.8077 -2.5681 -0.4514
   20MOL   H47714575   2.885   3.285   6.865 -0.1481  0.3694 -0.0679
   20MOL   H47814576   2.932   3.492   7.009 -0.5817  2.3241 -1.7299
   20MOL   H47914577   2.773   3.478   7.079 -0.9762 -2.2806 -0.0123
   20MOL   H48014578   2.695   3.496   6.806  0.0187  2.3694 -2.1560
   20MOL   H48114579   2.855   3.529   6.786  0.0353 -0.1201  0.6693
   20MOL   H48214580   2.775   3.686   7.005 -1.6581 -2.7439  0.8122
   20MOL   C48314581   2.742   3.790   6.834 -0.3351 -0.1656  0.0200
   20MOL   O48414582   2.732   3.797   6.706  0.1581 -0.5558  0.8403
   20MOL   C48514583   2.748   3.923   6.918  0.1443  0.1948  0.0244
   20MOL   C48614584   2.771   4.053   6.830  0.1626  0.2837 -0.8678
   20MOL   C48714585   2.650   4.096   6.743  0.1962  0.1331 -0.6794
   20MOL   C48814586   2.675   4.228   6.678  0.0268 -0.1805  0.4257
   20MOL   C48914587   2.572   4.252   6.563 -0.1711 -0.4252 -0.4355
   20MOL   C49014588   2.601   4.379   6.490  0.9187 -0.2133  0.3010
   20MOL   C49114589   2.509   4.399   6.369 -0.4689 -1.0017  0.3342
   20MOL   C49214590   2.512   4.290   6.260 -0.4777  0.4137  0.0384
   20MOL   C49314591   2.646   4.295   6.193  0.5102 -0.4835 -0.0425
   20MOL   C49414592   2.646   4.215   6.062 -0.0169  0.2747  0.2288
   20MOL   C49514593   2.761   4.272   5.975 -0.0670  0.3998 -0.2366
   20MOL   N49614594   2.788   4.191   5.858  0.2612 -0.4115 -0.3593
   20MOL   H49714595   2.831   3.911   6.988 -0.0684  0.6221  0.3499
   20MOL   H49814596   2.656   3.930   6.975 -1.1087 -1.2860 -1.7539
   20MOL   H49914597   2.802   4.123   6.909  0.5870 -0.4419 -0.3888
   20MOL   H50014598   2.852   4.035   6.760  0.9681  0.5606 -0.0276
   20MOL   H50114599   2.565   4.116   6.808  2.1529  0.7011  1.7814
   20MOL   H50214600   2.612   4.025   6.669  0.6030 -2.6666  1.6933
   20MOL   H50314601   2.677   4.317   6.740  0.8847 -0.5784  0.9716
   20MOL   H50414602   2.776   4.225   6.635 -0.4120 -2.3728 -0.5393
   20MOL   H50514603   2.469   4.260   6.599 -0.4973  0.9078 -1.5710
   20MOL   H50614604   2.563   4.169   6.493  1.5382 -0.4414 -0.6382
   20MOL   H50714605   2.704   4.384   6.457  1.0336 -2.0181  0.3611
   20MOL   H50814606   2.572   4.458   6.560  2.3427 -0.9849  1.7732
   20MOL   H50914607   2.529   4.496   6.325 -2.2896 -0.9080 -0.3305
   20MOL   H51014608   2.409   4.417   6.409 -0.1161 -0.8646  1.1621
   20MOL   H51114609   2.438   4.327   6.189 -0.6359 -0.0473 -0.0329
   20MOL   H51214610   2.482   4.192   6.296 -0.8728  0.6586  0.3869
   20MOL   H51314611   2.727   4.265   6.260  1.3156  0.6101 -0.5028
   20MOL   H51414612   2.659   4.399   6.165  0.2192 -0.4354  0.0019
   20MOL   H51514613   2.553   4.231   6.006 -0.1201  0.2713  0.4008
   20MOL   H51614614   2.663   4.109   6.081  1.9502  0.3138 -1.1535
   20MOL   H51714615   2.846   4.259   6.041 -1.4208 -1.7019  1.1507
   20MOL   H51814616   2.744   4.379   5.959  0.8215  0.5868  0.0980
   20MOL   H51914617   2.842   4.108   5.877  1.4481  0.6682  1.0738
   20MOL   C52014618   2.761   4.215   5.727 -0.0760  0.1731  0.0328
   20MOL   O52114619   2.696   4.310   5.684  0.4939  0.5192  0.0420
   20MOL   C52214620   2.816   4.118   5.626  0.6669 -0.1208 -0.0324
   20MOL   C52314621   2.886   4.183   5.513 -0.3283  0.0350  1.0361
   20MOL   C52414622   3.048   4.203   5.518 -0.5416  0.2824 -0.2817
   20MOL   C52514623   3.094   4.287   5.394 -0.5951  0.1145  0.1752
   20MOL   C52614624   3.248   4.298   5.377 -0.7156  0.0553  0.3577
   20MOL   C52714625   3.290   4.433   5.312  0.2665 -0.7709 -0.4083
   20MOL   C52814626   3.445   4.456   5.325  0.0593  0.2107 -0.1508
   20MOL   C52914627   3.477   4.592   5.273 -0.5215 -0.0012 -0.6809
   20MOL   C53014628   3.619   4.634   5.309  0.4593 -0.0091 -0.3446
   20MOL   C53114629   3.712   4.550   5.222 -0.4009 -0.6323 -0.2870
   20MOL   C53214630   3.863   4.580   5.224  0.2944 -0.5201 -0.1748
   20MOL   N53314631   3.928   4.482   5.138  0.0797  0.5134 -0.1519
   20MOL   H53414632   2.735   4.058   5.586 -0.1162  0.8534  0.1006
   20MOL   H53514633   2.885   4.048   5.674 -0.9198 -0.0583  2.3875
   20MOL   H53614634   2.868   4.122   5.425  0.4897  0.6681  0.4310
   20MOL   H53714635   2.830   4.272   5.486 -1.7230 -1.2738 -0.5111
   20MOL   H53814636   3.095   4.107   5.501  2.3962  1.2935  1.8232
   20MOL   H53914637   3.085   4.248   5.610  0.3847  0.6897 -0.8557
   20MOL   H54014638   3.039   4.268   5.301 -0.0696 -3.9216  0.6324
   20MOL   H54114639   3.054   4.385   5.419  0.7600  0.1929  2.0990
   20MOL   H54214640   3.276   4.211   5.318  0.6318  0.8077 -0.1540
   20MOL   H54314641   3.299   4.291   5.473  0.7475 -0.4448 -0.4256
   20MOL   H54414642   3.237   4.511   5.367 -1.2100 -2.3076  0.4016
   20MOL   H54514643   3.266   4.452   5.207  0.7472  1.0466 -0.1992
   20MOL   H54614644   3.505   4.382   5.273  0.3458  0.9261 -0.8599
   20MOL   H54714645   3.478   4.455   5.428  0.1473 -1.8020 -0.1921
   20MOL   H54814646   3.417   4.662   5.331  0.6931 -1.8781  2.9280
   20MOL   H54914647   3.445   4.603   5.169 -0.4943 -0.1666 -0.7059
   20MOL   H55014648   3.634   4.635   5.417  3.4995 -0.7100 -0.7205
   20MOL   H55114649   3.638   4.738   5.281 -1.3277  0.6247  0.7092
   20MOL   H55214650   3.681   4.559   5.118 -1.0550  1.2205  0.0589
   20MOL   H55314651   3.707   4.443   5.243  3.6661 -0.7621  0.4892
   20MOL   H55414652   3.901   4.555   5.323 -0.2611  2.6662  0.9020
   20MOL   H55514653   3.883   4.683   5.195 -0.6930  0.0921  1.2614
   20MOL   H55614654   3.865   4.417   5.093 -0.7223  2.1208 -1.3843
   20MOL   C55714655   4.062   4.470   5.142  0.6702  0.3337 -0.2865
   20MOL   O55814656   4.136   4.548   5.200 -0.5858 -0.3804 -0.1711
   20MOL   C55914657   4.128   4.360   5.067  0.2952 -0.1113  0.0800
   20MOL   C56014658   4.230   4.279   5.143 -0.4718  0.0638  0.0071
   20MOL   C56114659   4.282   4.151   5.086 -0.6778  0.2099  0.5252
   20MOL   C56214660   4.423   4.112   5.145 -0.3811 -1.3194  0.6778
   20MOL   C56314661   4.461   3.974   5.083  0.6186 -0.6503  0.0755
   20MOL   C56414662   4.608   3.929   5.113  0.6018  0.0686  0.0176
   20MOL   C56514663   4.635   3.782   5.070  0.2207 -0.3571  0.2216
   20MOL   C56614664   4.771   3.727   5.106 -0.1945  0.3104  0.5805
   20MOL   C56714665   4.793   3.684   5.257 -0.3238  0.3383  0.1016
   20MOL   C56814666   4.920   3.597   5.282 -0.2629 -1.2461 -0.4249
   20MOL   C56914667   4.911   3.525   5.414 -0.3800  0.3701 -0.1568
   20MOL   N57014668   5.012   3.425   5.436 -0.2041 -0.0485 -0.2471
   20MOL   H57114669   4.165   4.391   4.969  0.3567  2.0665  0.7813
   20MOL   H57214670   4.042   4.295   5.049 -2.4093  2.9748  1.4073
   20MOL   H57314671   4.323   4.337   5.146  0.1205 -0.8019 -1.1477
   20MOL   H57414672   4.202   4.247   5.243  1.2897  1.0281  0.8464
   20MOL   H57514673   4.290   4.168   4.979  1.5202  1.6761  0.9036
   20MOL   H57614674   4.209   4.072   5.105  0.5459 -0.2690  3.6107
   20MOL   H57714675   4.491   4.193   5.119 -1.2080 -1.2219 -1.2820
   20MOL   H57814676   4.429   4.102   5.253  0.9155 -1.2907  0.6161
   20MOL   H57914677   4.461   3.979   4.974 -1.7902  1.3725  0.1135
   20MOL   H58014678   4.393   3.894   5.110  0.9756 -1.2026 -0.6693
   20MOL   H58114679   4.614   3.938   5.221 -1.8384 -1.8221  0.3410
   20MOL   H58214680   4.681   3.999   5.071  1.4382 -0.2690  0.8839
   20MOL   H58314681   4.625   3.779   4.962  1.3097  1.5865  0.0343
   20MOL   H58414682   4.551   3.719   5.100 -0.4902  1.0814  1.3361
   20MOL   H58514683   4.854   3.791   5.077 -0.2554  0.0812 -0.0904
   20MOL   H58614684   4.785   3.643   5.039 -0.0795  1.4129 -0.8092
   20MOL   H58714685   4.711   3.621   5.291  0.4865 -0.3967  0.7511
   20MOL   H58814686   4.797   3.765   5.330 -0.5545 -0.1473  0.6595
   20MOL   H58914687   5.007   3.663   5.271 -0.2199 -0.9208  1.7478
   20MOL   H59014688   4.931   3.526   5.200  0.6948  1.5081 -2.7963
   20MOL   H59114689   4.813   3.478   5.424 -0.7616  1.3792  0.9477
   20MOL   H59214690   4.915   3.601   5.492 -3.2701 -0.4054  0.8192
   20MOL   H59314691   5.095   3.426   5.378 -0.6617 -0.7076 -0.9166
   20MOL   C59414692   5.006   3.351   5.550 -0.7390 -0.2497 -0.3035
   20MOL   O59514693   4.929   3.386   5.639 -0.2156 -0.1027  0.4026
   20MOL   C59614694   5.124   3.247   5.572  0.9388 -0.5752  0.8241
   20MOL   C59714695   5.083   3.146   5.683 -0.1877 -0.1776  0.3449
   20MOL   C59814696   5.140   3.006   5.687  0.1974  0.1760 -0.1785
   20MOL   C59914697   5.296   2.991   5.714  0.6180  0.0538  0.3584
   20MOL   C60014698   5.367   3.010   5.579  0.4043  0.0521  1.2159
   20MOL   C60114699   5.515   2.979   5.588 -0.2631  0.5094  0.3031
   20MOL   C60214700   5.589   2.984   5.452  0.3273 -0.0867  0.3409
   20MOL   C60314701   5.738   2.953   5.483 -0.1535 -0.3382 -0.0472
   20MOL   C60414702   5.823   2.933   5.351  0.2395  0.4589 -0.4246
   20MOL   C60514703   5.844   3.058   5.264 -0.6143 -0.2090  0.4520
   20MOL   C60614704   5.956   3.029   5.156  0.4827  0.2233 -0.3731
   20MOL   N60714705   5.934   3.087   5.027 -0.2630 -0.2509  0.1732
   20MOL   H60814706   5.208   3.305   5.609  0.6578 -0.8921  1.9860
   20MOL   H60914707   5.144   3.182   5.487  0.6652 -0.4121  0.6333
   20MOL   H61014708   5.123   3.181   5.778  0.6342 -2.4824  0.8745
   20MOL   H61114709   4.975   3.138   5.692 -0.1951 -1.7265 -0.8753
   20MOL   H61214710   5.103   2.940   5.609  1.6415 -1.7663  0.7388
   20MOL   H61314711   5.098   2.965   5.779  1.8130 -2.1698 -0.4567
   20MOL   H61414712   5.330   3.064   5.787  0.4271  2.2038 -1.6333
   20MOL   H61514713   5.322   2.889   5.739  1.0736 -0.7140 -3.0125
   20MOL   H61614714   5.355   3.111   5.539 -0.1070 -0.0356  1.1512
   20MOL   H61714715   5.322   2.938   5.511 -0.8181  0.5670  1.4662
   20MOL   H61814716   5.533   2.885   5.639 -0.8486  1.1921  1.8065
   20MOL   H61914717   5.564   3.047   5.658 -0.2784  0.2032  0.6111
   20MOL   H62014718   5.585   3.082   5.404 -1.0683 -0.4135 -0.2304
   20MOL   H62114719   5.538   2.915   5.386 -0.1448 -0.3605  0.9829
   20MOL   H62214720   5.744   2.861   5.541 -1.7730 -0.2008  0.3519
   20MOL   H62314721   5.783   3.031   5.544 -2.9491  0.0291  1.6293
   20MOL   H62414722   5.780   2.853   5.290 -0.5959  1.4260 -1.1086
   20MOL   H62514723   5.923   2.904   5.382  0.7696  3.4891  0.7772
   20MOL   H62614724   5.861   3.143   5.330  0.3427  0.7739 -1.0241
   20MOL   H62714725   5.747   3.082   5.220 -0.2716  0.1828 -0.1003
   20MOL   H62814726   5.979   2.924   5.137  0.2444  0.1764 -0.4047
   20MOL   H62914727   6.041   3.070   5.210  0.5107 -1.0613  0.5811
   20MOL   H63014728   5.998   3.162   5.004 -1.1520 -0.4577 -3.1897
   20MOL   C63114729   5.842   3.058   4.931 -0.2090  0.9226  0.4970
   20MOL   O63214730   5.755   2.965   4.947  0.1415 -0.4615 -0.1487
   20MOL   C63314731   5.835   3.149   4.812  0.6441 -0.4381  0.3453
   20MOL   C63414732   5.860   3.084   4.676 -0.0637 -0.8163  0.4445
   20MOL   C63514733   6.008   3.095   4.633 -0.3966 -0.2651 -0.6898
   20MOL   C63614734   6.056   3.060   4.489 -0.2031 -0.7295  0.4009
   20MOL   C63714735   6.024   3.167   4.383  0.0479 -0.1769 -0.1086
   20MOL   C63814736   6.123   3.287   4.387  0.0304  0.1637  0.1046
   20MOL   C63914737   6.076   3.404   4.298 -0.1735  0.4949 -0.3262
   20MOL   C64014738   6.168   3.528   4.309  0.3638  0.1299 -0.2808
   20MOL   C64114739   6.111   3.653   4.237  0.0829  0.2420  0.3883
   20MOL   C64214740   6.215   3.767   4.235 -0.2794 -0.0009 -0.9498
   20MOL   C64314741   6.237   3.839   4.369  0.4683  0.6228 -0.3563
   20MOL   N64414742   6.307   3.967   4.350  0.2308 -0.4954 -0.3948
   20MOL   H64514743   5.900   3.233   4.838  1.1259 -0.4058 -0.8984
   20MOL   H64614744   5.731   3.179   4.815  0.8312  0.2598 -0.0229
   20MOL   H64714745   5.838   2.978   4.682 -1.4342 -0.6998 -1.8496
   20MOL   H64814746   5.797   3.125   4.597 -0.8218 -2.3280  0.2425
   20MOL   H64914747   6.059   3.021   4.694 -1.3584  0.2996  0.8216
   20MOL   H65014748   6.061   3.185   4.664  2.4864 -3.2099  3.4867
   20MOL   H65114749   6.161   3.031   4.490 -0.2126 -0.9037 -1.4573
   20MOL   H65214750   6.010   2.964   4.466 -1.6413  0.0781 -0.1826
   20MOL   H65314751   5.922   3.206   4.377  0.2861  0.8801  2.0578
   20MOL   H65414752   6.045   3.123   4.286 -0.8611 -2.4139  0.6836
   20MOL   H65514753   6.224   3.257   4.358 -0.2915 -0.9759  0.1592
   20MOL   H65614754   6.130   3.321   4.490  1.6056 -1.0545  0.4238
   20MOL   H65714755   5.971   3.425   4.314 -0.4067 -0.8701  0.0176
   20MOL   H65814756   6.082   3.368   4.195  0.0651 -1.9582  0.4878
   20MOL   H65914757   6.266   3.493   4.276  0.2860 -0.4650  0.1154
   20MOL   H66014758   6.177   3.549   4.416 -0.7033 -0.9425  0.0421
   20MOL   H66114759   6.019   3.689   4.284 -2.1778 -1.4148 -2.5836
   20MOL   H66214760   6.068   3.643   4.137  1.0372  1.4871 -0.1632
   20MOL   H66314761   6.183   3.844   4.165  2.4692  0.4391 -1.7595
   20MOL   H66414762   6.310   3.737   4.191 -0.3839  1.7071 -2.4139
   20MOL   H66514763   6.299   3.777   4.433 -0.8914 -0.7981 -0.3891
   20MOL   H66614764   6.150   3.845   4.435  2.5852 -1.9007  2.8084
   20MOL   H66714765   6.330   3.988   4.254  0.2861 -0.6916 -0.4249
   20MOL   C66814766   6.349   4.050   4.450 -0.5520  0.6885  0.2687
   20MOL   O66914767   6.329   4.028   4.569  0.2198 -0.2443  0.2074
   20MOL   C67014768   6.416   4.180   4.404 -0.2834 -0.0301 -0.8596
   20MOL   C67114769   6.571   4.185   4.416 -0.0722  0.6120 -0.2861
   20MOL   C67214770   6.639   4.316   4.357 -0.2050 -0.2339  0.6175
   20MOL   C67314771   6.792   4.319   4.363 -0.6023  0.4100  0.4978
   20MOL   C67414772   6.845   4.444   4.294  0.1884  0.0185  0.0449
   20MOL   C67514773   6.988   4.485   4.335  0.2357 -0.1083 -0.4098
   20MOL   C67614774   7.030   4.622   4.281 -0.8965  1.1158 -0.2666
   20MOL   C67714775   6.940   4.736   4.324  0.3949  0.0590 -0.2242
   20MOL   C67814776   6.985   4.879   4.284  0.0080  0.2823 -0.0358
   20MOL   C67914777   6.883   4.980   4.339 -0.1291 -0.2169 -0.2771
   20MOL   C68014778   6.908   5.134   4.317  0.6104  0.4187  0.3029
   20MOL   N68114779   6.918   5.177   4.172  0.0256  0.0156  0.5780
   20MOL   H68214780   6.361   4.257   4.459 -0.9304 -1.9509  1.2605
   20MOL   H68314781   6.401   4.197   4.298  2.1662 -1.3469 -1.4463
   20MOL   H68414782   6.585   4.187   4.525  0.0589 -0.6971 -0.2742
   20MOL   H68514783   6.613   4.092   4.378  0.8904 -0.8156  3.8919
   20MOL   H68614784   6.587   4.399   4.405  1.5777  1.3190 -0.0726
   20MOL   H68714785   6.608   4.336   4.255 -0.7288  1.0322  1.0140
   20MOL   H68814786   6.828   4.315   4.466  0.4436 -4.4991  0.0273
   20MOL   H68914787   6.836   4.239   4.305  0.9259 -0.4599  2.7968
   20MOL   H69014788   6.766   4.517   4.314  0.0193  0.3954 -1.9071
   20MOL   H69114789   6.840   4.428   4.186  1.1710 -0.2912  0.0406
   20MOL   H69214790   7.060   4.414   4.293  1.7149  0.3058  1.3732
   20MOL   H69314791   7.004   4.482   4.442 -0.5962  1.1720 -0.2336
   20MOL   H69414792   7.027   4.617   4.172 -3.0602 -0.2990 -0.1722
   20MOL   H69514793   7.136   4.643   4.296 -0.4566 -0.5007 -1.0314
   20MOL   H69614794   6.933   4.728   4.432  0.4513  0.0177 -0.2238
   20MOL   H69714795   6.833   4.724   4.307  0.4224 -1.1239  0.4077
   20MOL   H69814796   6.999   4.881   4.176 -3.0513 -0.6224 -0.4987
   20MOL   H69914797   7.084   4.906   4.320  0.5283 -1.7417  0.0735
   20MOL   H70014798   6.866   4.966   4.446  1.0384  0.0631 -0.0467
   20MOL   H70114799   6.785   4.957   4.299  0.5565 -1.0674 -1.5050
   20MOL   H70214800   7.007   5.164   4.350  1.4542 -1.3085 -0.5949
   20MOL   H70314801   6.827   5.187   4.367  1.3830  1.5891  0.3121
   20MOL   H70414802   6.963   5.118   4.104  0.0116  1.2254 -0.5037
   20MOL   C70514803   6.898   5.302   4.131 -0.4648 -0.4940 -0.1550
   20MOL   O70614804   6.864   5.394   4.206 -0.4554 -0.2508  0.0485
   20MOL   C70714805   6.918   5.334   3.982 -0.5012 -0.1321 -0.3585
   20MOL   C70814806   6.914   5.482   3.941  0.3643  0.3905  0.5829
   20MOL   C70914807   6.919   5.475   3.788  0.7366  0.1802 -0.0953
   20MOL   C71014808   6.945   5.607   3.724 -0.3227 -0.0942  0.1394
   20MOL   C71114809   6.897   5.611   3.581 -0.0509 -0.1096  0.2552
   20MOL   C71214810   6.955   5.514   3.482 -0.2812  0.4915  0.3030
   20MOL   C71314811   6.927   5.558   3.338 -0.2970  0.3743  0.0270
   20MOL   C71414812   6.783   5.519   3.300  0.1443 -0.8043  0.3393
   20MOL   C71514813   6.727   5.608   3.189  0.2007 -0.4760 -0.0371
   20MOL   C71614814   6.606   5.554   3.116 -0.4894 -0.4996 -0.0800
   20MOL   C71714815   6.494   5.521   3.219 -0.1052 -0.0966 -0.1991
   20MOL   N71814816   6.381   5.453   3.155 -0.6133 -0.0373  0.6372
   20MOL   H71914817   6.837   5.282   3.930  0.3804 -2.2731  0.3494
   20MOL   H72014818   7.015   5.294   3.951  1.4787  2.1754  2.5888
   20MOL   H72114819   6.817   5.522   3.969  1.3102  1.4104  2.5229
   20MOL   H72214820   6.994   5.537   3.991 -1.9764  4.5858 -0.0401
   20MOL   H72314821   6.827   5.432   3.750 -0.9705  1.7698  2.0629
   20MOL   H72414822   7.001   5.408   3.762  2.4172  3.5774 -4.1069
   20MOL   H72514823   6.897   5.683   3.786 -0.7587 -0.2831  0.0337
   20MOL   H72614824   7.051   5.634   3.719 -0.3868 -0.2132 -3.5671
   20MOL   H72714825   6.912   5.713   3.545  1.8908 -0.4704 -0.0231
   20MOL   H72814826   6.789   5.600   3.581  0.1298 -2.3018 -1.4731
   20MOL   H72914827   6.910   5.419   3.511 -0.5839  1.2799  2.4721
   20MOL   H73014828   7.063   5.506   3.494 -0.1621  2.2175  0.4902
   20MOL   H73114829   6.989   5.495   3.274 -1.6836  0.1319 -1.0966
   20MOL   H73214830   6.968   5.655   3.310  0.8430  0.0701  0.6040
   20MOL   H73314831   6.717   5.525   3.387  0.6824  1.3517  0.6217
   20MOL   H73414832   6.777   5.413   3.275 -1.7368 -0.6596  0.0681
   20MOL   H73514833   6.808   5.631   3.120  0.2924 -1.2050 -0.1731
   20MOL   H73614834   6.686   5.698   3.236 -2.4615 -1.0880 -1.0712
   20MOL   H73714835   6.637   5.463   3.065 -0.7023 -0.2995 -0.5743
   20MOL   H73814836   6.564   5.628   3.047 -0.9380 -0.4594  0.2353
   20MOL   H73914837   6.466   5.609   3.276  0.3700 -1.6181  2.4538
   20MOL   H74014838   6.514   5.447   3.296 -3.1308 -0.3601  0.4019
   20MOL   H74114839   6.346   5.536   3.107 -1.3962 -1.2292 -0.8940
   20MOL   H74214840   6.322   5.437   3.235 -2.2821 -2.1734 -0.9669
   21MOL     C114841   5.557   6.333   3.321 -0.5548  0.3040  1.0089
   21MOL     O214842   5.527   6.278   3.424  0.6566  0.2767  0.0649
   21MOL     C314843   5.576   6.260   3.192 -0.6031 -0.0691 -0.7269
   21MOL     C414844   5.712   6.183   3.181 -0.1636  0.3464 -0.2737
   21MOL     C514845   5.831   6.281   3.192  0.6235 -0.1433  0.1339
   21MOL     C614846   5.972   6.216   3.201 -0.5730  1.2730 -0.5657
   21MOL     C714847   6.091   6.309   3.240  0.1959 -0.2871  0.2511
   21MOL     C814848   6.227   6.247   3.218 -0.0065 -0.1113  0.0973
   21MOL     C914849   6.342   6.356   3.214 -0.0521  0.5741  0.4939
   21MOL    C1014850   6.485   6.286   3.211  0.2691  0.3249  1.1467
   21MOL    C1114851   6.606   6.383   3.234 -0.2365 -0.0520 -0.0191
   21MOL    C1214852   6.742   6.326   3.263  0.5234  0.3435  0.9464
   21MOL    C1314853   6.842   6.435   3.278  0.4419  0.6252 -0.0760
   21MOL    N1414854   6.885   6.481   3.144  0.8761 -0.0580 -0.7380
   21MOL    H1514855   5.585   6.336   3.114  1.6930  0.5942  0.1587
   21MOL    H1614856   5.488   6.195   3.184 -0.1272 -1.0995  2.0749
   21MOL    H1714857   5.723   6.111   3.262  0.0492  0.8986  0.1879
   21MOL    H1814858   5.720   6.126   3.088 -0.1832 -1.8406  1.0468
   21MOL    H1914859   5.816   6.352   3.273 -0.2708  0.4753 -0.5666
   21MOL    H2014860   5.831   6.351   3.109 -0.7143 -2.3876 -1.8428
   21MOL    H2114861   5.969   6.135   3.274  1.0172 -1.4149 -3.4069
   21MOL    H2214862   5.996   6.170   3.105  0.1194  0.5275 -0.0410
   21MOL    H2314863   6.073   6.349   3.340  0.9399  1.0671 -0.1406
   21MOL    H2414864   6.072   6.391   3.171 -0.7213 -0.5511  0.1840
   21MOL    H2514865   6.215   6.190   3.126 -2.4746  0.3480  0.1079
   21MOL    H2614866   6.246   6.168   3.291  1.8898 -0.2440 -0.5018
   21MOL    H2714867   6.331   6.409   3.308  2.1400  0.4301  0.8601
   21MOL    H2814868   6.323   6.420   3.128  0.1174 -1.4750 -1.1202
   21MOL    H2914869   6.497   6.239   3.113  0.4154  1.5521  0.5712
   21MOL    H3014870   6.495   6.206   3.285  0.1966  0.3191  1.1499
   21MOL    H3114871   6.579   6.459   3.308 -0.2484 -0.6971  0.6463
   21MOL    H3214872   6.612   6.443   3.143 -0.0884  0.5564  0.3866
   21MOL    H3314873   6.773   6.267   3.177  0.3728  0.5112  0.7766
   21MOL    H3414874   6.736   6.268   3.355  0.5089 -1.8882 -0.4277
   21MOL    H3514875   6.922   6.376   3.323 -3.1203 -1.6124  3.6593
   21MOL    H3614876   6.822   6.522   3.342  2.7324  0.1770  1.3366
   21MOL    H3714877   6.814   6.520   3.084  1.1589 -1.4557 -2.0274
   21MOL    H3814878   5.576   6.440   3.312 -4.0973  0.8758 -0.7077
   21MOL    C3914879   7.008   6.474   3.092  0.0359  0.5908 -0.3887
   21MOL    O4014880   7.098   6.415   3.148  0.3241  0.1857  0.0623
   21MOL    C4114881   7.029   6.536   2.957  0.1996 -0.3152 -0.3824
   21MOL    C4214882   7.166   6.606   2.934  0.3104 -0.2236 -1.0314
   21MOL    C4314883   7.192   6.724   3.026 -0.0179 -0.1677 -0.9664
   21MOL    C4414884   7.291   6.817   2.961 -0.2094 -0.7188 -0.8104
   21MOL    C4514885   7.338   6.929   3.051  0.1961  0.0372 -0.4100
   21MOL    C4614886   7.425   7.037   2.986 -0.0162  0.1496 -0.1122
   21MOL    C4714887   7.487   7.137   3.091 -0.8367 -0.1265  0.8339
   21MOL    C4814888   7.554   7.250   3.016  0.4607  0.4467 -0.2365
   21MOL    C4914889   7.597   7.358   3.110 -0.3610 -0.8408 -0.1839
   21MOL    C5014890   7.672   7.471   3.034  0.6601  0.6335  0.0319
   21MOL    C5114891   0.068   7.548   3.126  0.1040  0.3872  0.1441
   21MOL    N5214892   0.123   7.668   3.064  0.4734  0.1158  0.1337
   21MOL    H5314893   6.949   6.607   2.937  1.0625  0.1264 -2.4185
   21MOL    H5414894   7.017   6.449   2.893 -1.5340 -1.6098  1.6481
   21MOL    H5514895   7.256   6.545   2.934  2.5828  2.9645 -1.1971
   21MOL    H5614896   7.164   6.631   2.828  2.2160  0.3911 -0.9439
   21MOL    H5714897   7.253   6.693   3.111 -3.0290  0.5212  1.5285
   21MOL    H5814898   7.095   6.770   3.047  0.5872  0.4031  0.6330
   21MOL    H5914899   7.380   6.768   2.921 -0.5300 -2.0128  0.0351
   21MOL    H6014900   7.238   6.859   2.875 -1.7305 -2.4196 -0.7404
   21MOL    H6114901   7.393   6.875   3.128  1.9404 -0.8607 -2.2291
   21MOL    H6214902   7.245   6.972   3.088 -0.6584 -3.0574  1.2481
   21MOL    H6314903   7.362   7.090   2.914  0.9910 -0.1076 -1.1933
   21MOL    H6414904   7.504   6.981   2.937  0.8908  1.3764 -0.0627
   21MOL    H6514905   7.553   7.090   3.164 -0.5383  0.1452  0.7417
   21MOL    H6614906   7.405   7.180   3.148  1.1303  0.9894  2.8782
   21MOL    H6714907   7.487   7.282   2.936 -1.2864 -1.4261  0.4171
   21MOL    H6814908   7.642   7.228   2.956  0.0658 -0.9096 -0.3168
   21MOL    H6914909   7.667   7.313   3.180  1.4437 -0.4560 -1.7016
   21MOL    H7014910   7.506   7.395   3.158 -1.1127 -1.9627 -0.7311
   21MOL    H7114911   7.593   7.536   2.996 -1.8814 -1.8086  0.9698
   21MOL    H7214912   0.043   7.430   2.957  2.4143 -0.6670  2.1160
   21MOL    H7314913   0.146   7.478   3.155  0.1287  0.3467 -0.0212
   21MOL    H7414914   0.022   7.596   3.212 -0.1959 -3.3632  2.1723
   21MOL    H7514915   0.054   0.047   3.054 -0.6698 -0.4318  3.5195
   21MOL    C7614916   0.222   7.673   2.973  0.1918 -0.0386 -0.2084
   21MOL    O7714917   0.293   7.571   2.960 -0.6313 -0.2392  0.1532
   21MOL    C7814918   0.261   0.119   2.906  0.7098  0.0629 -0.8360
   21MOL    C7914919   0.297   0.116   2.759  0.2639 -0.4389 -0.8411
   21MOL    C8014920   0.179   0.063   2.671  0.1192 -0.4089 -1.1431
   21MOL    C8114921   0.210   0.054   2.521  0.0408 -0.4408  0.4419
   21MOL    C8214922   0.102   7.660   2.451 -0.1591  0.2901  0.0819
   21MOL    C8314923   0.140   7.632   2.303 -1.3532 -0.2929 -0.3539
   21MOL    C8414924   0.021   7.628   2.202 -0.8167 -0.2123  0.1679
   21MOL    C8514925   0.039   7.540   2.078  0.4786  0.3832  1.1628
   21MOL    C8614926   7.613   7.546   1.986 -0.4469  0.1269  0.1230
   21MOL    C8714927   7.612   7.457   1.861 -0.2954 -0.3077 -0.0846
   21MOL    C8814928   7.589   7.312   1.898  0.0198 -0.8135  0.6738
   21MOL    N8914929   7.558   7.232   1.784 -0.2140 -0.3609 -0.5102
   21MOL    H9014930   0.334   0.166   2.971  1.3142 -0.9294 -0.7961
   21MOL    H9114931   0.172   0.181   2.914  0.1152 -1.0001  1.0487
   21MOL    H9214932   0.321   0.218   2.730 -0.1602  0.8138  3.0172
   21MOL    H9314933   0.393   0.065   2.745  1.2350  1.6986 -2.2952
   21MOL    H9414934   0.088   0.124   2.673  0.0663 -0.4558 -1.9974
   21MOL    H9514935   0.158   7.656   2.705  0.7392 -0.3252 -0.5053
   21MOL    H9614936   0.215   0.155   2.479  3.0658 -0.7441 -0.0543
   21MOL    H9714937   0.307   0.006   2.506  0.6129  0.7717  0.1979
   21MOL    H9814938   0.010   0.024   2.465  0.7465  1.3871  1.6224
   21MOL    H9914939   0.086   7.561   2.492  0.7977  0.4216  0.7865
   21MOL   H10014940   0.197   7.539   2.304 -0.0671  0.4564 -2.1804
   21MOL   H10114941   0.212   0.004   2.255 -1.0372 -1.7554 -1.9224
   21MOL   H10214942   7.690   0.036   2.170  1.6991  0.1763 -0.6300
   21MOL   H10314943   7.627   7.598   2.259  2.1825 -2.8318  3.6661
   21MOL   H10414944   0.055   7.438   2.112 -0.0428 -0.5304 -1.2090
   21MOL   H10514945   0.128   7.582   2.031  0.7982 -1.2897  0.2411
   21MOL   H10614946   7.584   7.646   1.952 -3.7363 -0.7768  0.0662
   21MOL   H10714947   7.528   7.514   2.047 -1.9635  0.8404 -1.5652
   21MOL   H10814948   0.001   7.471   1.792  2.0161  0.2607  2.7055
   21MOL   H10914949   7.527   7.499   1.807 -0.9318 -1.4503  0.0173
   21MOL   H11014950   7.521   7.288   1.979 -0.8973 -1.8896 -0.3934
   21MOL   H11114951   7.682   7.288   1.950 -0.2818  1.0205  2.0812
   21MOL   H11214952   7.464   7.249   1.752  0.3447  3.5194 -0.2513
   21MOL   C11314953   7.653   7.172   1.714  0.6973  0.0023 -0.4603
   21MOL   O11414954   0.079   7.168   1.748  0.0909 -0.2698  0.0950
   21MOL   C11514955   7.603   7.104   1.586  0.4012  0.2052 -0.5625
   21MOL   C11614956   7.623   6.950   1.578  0.0083 -0.3533 -0.4059
   21MOL   C11714957   7.516   6.873   1.673  0.0971  0.4226  0.1014
   21MOL   C11814958   7.513   6.721   1.671  0.1080  0.9185  0.4738
   21MOL   C11914959   7.637   6.650   1.726  0.2303  0.0527  0.7344
   21MOL   C12014960   7.643   6.497   1.707  0.3789 -0.0832  0.0944
   21MOL   C12114961   0.085   6.432   1.740  0.0989 -0.2141 -0.1358
   21MOL   C12214962   0.098   6.290   1.674  0.1287 -0.8233 -0.2424
   21MOL   C12314963   7.683   6.193   1.720  0.2064 -0.2851  0.3401
   21MOL   C12414964   7.681   6.155   1.870  0.4879  0.0076  0.6559
   21MOL   C12514965   7.555   6.073   1.899 -0.5566  0.5230  0.7316
   21MOL   N12614966   7.544   6.036   2.036  0.0749 -0.2388 -0.1553
   21MOL   H12714967   7.649   7.148   1.498  0.9539  0.4663 -0.1474
   21MOL   H12814968   7.502   7.139   1.561 -0.0883  0.3944  1.5678
   21MOL   H12914969   7.610   6.924   1.473 -2.1955 -2.1763  0.2772
   21MOL   H13014970   0.032   6.922   1.598  0.0071 -3.2818 -3.8765
   21MOL   H13114971   7.415   6.908   1.649 -0.8536 -2.0256  0.3120
   21MOL   H13214972   7.531   6.898   1.778 -0.4183  0.4491  0.1741
   21MOL   H13314973   7.433   6.694   1.739  2.2240 -0.8188  2.3588
   21MOL   H13414974   7.464   6.690   1.578 -0.0414 -0.0164  0.8645
   21MOL   H13514975   7.648   6.672   1.833  1.1963  0.4279  0.5626
   21MOL   H13614976   0.030   6.686   1.671  0.3338 -0.6104  0.4581
   21MOL   H13714977   7.617   6.477   1.603  0.0800 -0.7631  0.2988
   21MOL   H13814978   7.565   6.455   1.771 -1.2415  2.1872 -0.3342
   21MOL   H13914979   0.109   6.427   1.847  0.3000 -2.1634 -0.2542
   21MOL   H14014980   0.154   6.504   1.697  0.5246 -0.4027  0.2252
   21MOL   H14114981   0.194   6.255   1.711  1.0019  2.7822  1.1543
   21MOL   H14214982   0.104   6.299   1.565 -3.3623  2.4971 -0.2866
   21MOL   H14314983   0.003   6.098   1.668 -2.1543 -1.1374  1.2291
   21MOL   H14414984   7.582   6.220   1.691  0.1028 -0.7006  0.3144
   21MOL   H14514985   7.676   6.249   1.925  1.0507 -1.1681  2.7808
   21MOL   H14614986   0.086   6.122   1.904  0.4169  2.1297  3.0677
   21MOL   H14714987   7.556   5.981   1.840 -0.7682  1.0752 -0.1437
   21MOL   H14814988   7.469   6.134   1.872  0.3358  0.8944 -1.3576
   21MOL   H14914989   7.591   5.949   2.058  0.3470 -0.5850 -1.9977
   21MOL   C15014990   7.508   6.122   2.132 -0.1659 -0.7657  0.0280
   21MOL   O15114991   7.471   6.237   2.115 -0.4999 -0.4615 -0.9450
   21MOL   C15214992   7.520   6.063   2.272  0.0448  0.0236 -0.1544
   21MOL   C15314993   7.389   6.058   2.357  0.0745  0.2208 -0.1470
   21MOL   C15414994   7.293   5.946   2.297 -0.5511  0.0594 -0.0241
   21MOL   C15514995   7.151   5.960   2.345 -0.0349  0.1463 -0.1605
   21MOL   C15614996   7.046   5.865   2.285  0.3053  0.5101  0.4012
   21MOL   C15714997   6.916   5.854   2.363  0.1713 -0.7508  0.1155
   21MOL   C15814998   6.819   5.751   2.303 -0.3514  0.3056  0.5195
   21MOL   C15914999   6.767   5.783   2.164  0.5668 -0.8469  0.0817
   21MOL   C16015000   6.697   5.921   2.156 -0.7784  0.0369 -0.3100
   21MOL   C16115001   6.661   5.966   2.017 -0.1308  0.4218  0.4705
   21MOL   C16215002   6.596   6.114   2.019 -0.1444 -0.1712  0.1750
   21MOL   N16315003   6.691   6.218   2.043 -0.9590 -0.3764 -0.9429
   21MOL   H16415004   7.589   6.123   2.331 -0.2673  1.2517 -1.0009
   21MOL   H16515005   7.550   5.959   2.272 -2.0454 -0.5944  1.4806
   21MOL   H16615006   7.413   6.043   2.462  1.9001  0.4754 -0.5124
   21MOL   H16715007   7.333   6.151   2.348 -0.4669 -0.1205 -0.3146
   21MOL   H16815008   7.342   5.855   2.334 -0.5689 -0.7207 -1.8952
   21MOL   H16915009   7.301   5.947   2.189 -1.4851  0.0337 -0.0951
   21MOL   H17015010   7.150   5.950   2.454 -0.0124 -1.4366 -0.2927
   21MOL   H17115011   7.131   6.065   2.324 -1.7316 -0.0976  0.2306
   21MOL   H17215012   7.090   5.765   2.286 -0.2216  0.2553 -0.4501
   21MOL   H17315013   7.027   5.881   2.178  0.1905  0.0120  0.3413
   21MOL   H17415014   6.864   5.949   2.370  2.2277  0.4257 -0.2698
   21MOL   H17515015   6.947   5.828   2.464 -2.0241  0.8299  1.2229
   21MOL   H17615016   6.742   5.744   2.379  0.7379  1.8153  1.8085
   21MOL   H17715017   6.865   5.652   2.305  1.4625  1.0720 -0.8378
   21MOL   H17815018   6.700   5.706   2.127 -0.4425  1.1134 -2.3188
   21MOL   H17915019   6.853   5.786   2.098  0.5500 -0.7981  0.0618
   21MOL   H18015020   6.773   5.990   2.194  1.5431 -1.9269 -1.2886
   21MOL   H18115021   6.608   5.911   2.218  0.4880  1.1568  1.7430
   21MOL   H18215022   6.596   5.887   1.979  0.0781  0.8925 -0.8930
   21MOL   H18315023   6.741   5.964   1.943 -0.9932  0.6670 -0.4731
   21MOL   H18415024   6.528   6.129   2.103  1.2469 -0.3213  1.3460
   21MOL   H18515025   6.543   6.123   1.924  0.1891  0.6723  0.0646
   21MOL   H18615026   6.772   6.205   2.102 -1.3250  0.3667 -0.2707
   21MOL   C18715027   6.672   6.346   2.010 -0.1590  0.4530 -0.2346
   21MOL   O18815028   6.572   6.374   1.949  0.2118  0.2304 -0.3695
   21MOL   C18915029   6.778   6.448   2.054  0.7947  0.5955  0.3894
   21MOL   C19015030   6.726   6.591   2.085  0.3224 -0.2803  0.9067
   21MOL   C19115031   6.838   6.690   2.089  0.2603  0.2756 -0.4233
   21MOL   C19215032   6.791   6.836   2.105  0.2296 -0.1676  0.1410
   21MOL   C19315033   6.723   6.903   1.987  0.6128 -0.1487  0.6827
   21MOL   C19415034   6.793   7.042   1.959  0.6106  0.7091 -0.3140
   21MOL   C19515035   6.754   7.103   1.820  0.4463  0.2015  0.2708
   21MOL   C19615036   6.801   7.245   1.790  0.1461  0.2895 -0.7531
   21MOL   C19715037   6.716   7.351   1.857  0.7076 -0.4036 -0.5355
   21MOL   C19815038   6.593   7.391   1.776 -0.5675  0.6031 -0.3858
   21MOL   C19915039   6.506   7.476   1.866  0.0927 -0.6537  0.2528
   21MOL   N20015040   6.452   7.386   1.973 -0.3726 -0.5256  0.2772
   21MOL   H20115041   6.857   6.450   1.979  0.1439  0.1051 -0.3264
   21MOL   H20215042   6.833   6.407   2.138  1.0763 -0.3992 -0.2699
   21MOL   H20315043   6.663   6.615   1.999 -0.6005 -0.1294  1.6211
   21MOL   H20415044   6.660   6.598   2.171 -0.9952  0.2638 -0.1272
   21MOL   H20515045   6.885   6.683   1.991  0.2660  0.7588 -0.4555
   21MOL   H20615046   6.911   6.665   2.166  0.9769 -2.4780 -1.9370
   21MOL   H20715047   6.721   6.858   2.186  1.5907 -0.1784  1.3499
   21MOL   H20815048   6.884   6.887   2.130  0.9654 -0.6809 -1.4543
   21MOL   H20915049   6.616   6.916   2.002  0.0679 -1.8441 -1.3061
   21MOL   H21015050   6.730   6.851   1.891  0.4399  1.2359 -0.0995
   21MOL   H21115051   6.901   7.030   1.955  0.3185 -1.3271 -2.7769
   21MOL   H21215052   6.775   7.116   2.037  0.3789 -1.8670  2.1403
   21MOL   H21315053   6.647   7.110   1.805  0.4431  0.8367  0.5492
   21MOL   H21415054   6.787   7.042   1.736  0.0245  3.8378 -2.6555
   21MOL   H21515055   6.781   7.252   1.683  2.8694  0.4926 -1.2773
   21MOL   H21615056   6.905   7.257   1.819 -0.2425 -0.2907  0.9563
   21MOL   H21715057   6.763   7.447   1.876 -0.1496 -0.0755 -0.0489
   21MOL   H21815058   6.688   7.318   1.957 -0.1588 -0.4868 -0.7997
   21MOL   H21915059   6.537   7.301   1.753  0.8721  0.0497 -1.7778
   21MOL   H22015060   6.623   7.439   1.684  0.1523 -2.0967 -1.6087
   21MOL   H22115061   6.424   7.517   1.806 -0.3863 -0.2607  1.1692
   21MOL   H22215062   6.571   7.557   1.901  0.0661 -0.3493 -0.3941
   21MOL   H22315063   6.421   7.295   1.944 -0.3729 -0.7908  1.1121
   21MOL   C22415064   6.436   7.409   2.104  0.2862  0.0207 -0.0560
   21MOL   O22515065   6.460   7.514   2.167  0.7988 -0.3504  0.1936
   21MOL   C22615066   6.386   7.284   2.183  0.2649 -0.1256  0.0407
   21MOL   C22715067   6.244   7.226   2.139  0.0975 -1.0491 -0.0064
   21MOL   C22815068   6.193   7.135   2.243  0.3855 -0.5674 -0.2082
   21MOL   C22915069   6.057   7.070   2.207  0.0181 -0.2750  0.2720
   21MOL   C23015070   5.996   6.988   2.321 -0.9549 -0.2476  0.0786
   21MOL   C23115071   5.861   6.926   2.283 -0.1978 -0.3848 -0.5550
   21MOL   C23215072   5.799   6.855   2.404  0.0009 -0.4018  0.4138
   21MOL   C23315073   5.666   6.791   2.370  0.1832 -0.2349 -0.3525
   21MOL   C23415074   5.597   6.749   2.496  0.3863 -0.0201 -0.3219
   21MOL   C23515075   5.454   6.712   2.461  0.4306 -0.4610  0.0390
   21MOL   C23615076   5.393   6.594   2.537 -0.0379  0.1177  0.3091
   21MOL   N23715077   5.249   6.589   2.519  0.7245 -0.0789 -0.4711
   21MOL   H23815078   6.391   7.307   2.289  1.3131  3.9230 -0.7935
   21MOL   H23915079   6.466   7.215   2.155  0.0599 -0.8925  1.3475
   21MOL   H24015080   6.176   7.310   2.132  2.4653  0.8682 -0.7897
   21MOL   H24115081   6.249   7.185   2.038 -1.3436  2.4443 -1.5761
   21MOL   H24215082   6.191   7.184   2.340  1.1307  1.4850 -1.1903
   21MOL   H24315083   6.273   7.063   2.262  0.9279 -0.2170 -1.1150
   21MOL   H24415084   5.993   7.155   2.182 -1.4517 -1.2749  0.5704
   21MOL   H24515085   6.054   7.016   2.112  0.2656 -2.6308  1.5681
   21MOL   H24615086   5.976   7.053   2.406 -0.0621  2.2173 -1.5483
   21MOL   H24715087   6.059   6.905   2.354  0.5470  1.2412  0.9920
   21MOL   H24815088   5.884   6.853   2.206 -0.1791  0.3176 -1.2240
   21MOL   H24915089   5.800   7.005   2.238 -1.8802 -0.7086  1.0930
   21MOL   H25015090   5.790   6.935   2.477  1.6809  0.0094  0.2078
   21MOL   H25115091   5.874   6.783   2.436  1.8731  0.4503 -1.8569
   21MOL   H25215092   5.691   6.705   2.308  1.3018 -0.7983  0.8629
   21MOL   H25315093   5.601   6.864   2.322 -0.3788 -1.1784 -1.0466
   21MOL   H25415094   5.612   6.828   2.569  2.1261 -1.4573  0.9324
   21MOL   H25515095   5.644   6.662   2.542 -1.0088 -1.7435 -2.0791
   21MOL   H25615096   5.445   6.688   2.355  1.5648  1.6202 -0.5521
   21MOL   H25715097   5.397   6.805   2.471  0.2440 -0.6477  0.7058
   21MOL   H25815098   5.416   6.600   2.643  0.0421 -1.4711  0.3982
   21MOL   H25915099   5.436   6.503   2.495  2.2265  1.1179  0.4229
   21MOL   H26015100   5.211   6.528   2.448  1.5930  1.5376 -2.3735
   21MOL   C26115101   5.159   6.669   2.573  0.1774  0.1417 -0.3356
   21MOL   O26215102   5.195   6.758   2.652  0.2693 -0.0747 -0.0516
   21MOL   C26315103   5.016   6.659   2.530 -0.3963  0.5749  0.4900
   21MOL   C26415104   4.915   6.665   2.647 -0.3345 -0.1836  0.1583
   21MOL   C26515105   4.772   6.682   2.604 -0.0499 -0.3953  0.4814
   21MOL   C26615106   4.671   6.667   2.721  0.2787 -0.3845 -0.6668
   21MOL   C26715107   4.529   6.671   2.673  0.0835  0.1692  0.3667
   21MOL   C26815108   4.426   6.633   2.774 -0.1293  0.0080 -0.4396
   21MOL   C26915109   4.281   6.670   2.731  0.0848  0.3817  0.3797
   21MOL   C27015110   4.232   6.812   2.767 -0.3551  0.2509 -0.0389
   21MOL   C27115111   4.086   6.825   2.717 -0.1099  0.3007 -0.1924
   21MOL   C27215112   4.031   6.964   2.710 -0.3499 -0.6031  0.1993
   21MOL   C27315113   3.902   6.990   2.635 -0.2565 -0.2555  0.4459
   21MOL   N27415114   3.791   6.936   2.710 -0.1553 -0.9040 -0.4240
   21MOL   H27515115   5.013   6.569   2.469  0.6687 -0.4837  1.9767
   21MOL   H27615116   5.012   6.739   2.456  1.4168  0.4410  0.2145
   21MOL   H27715117   4.913   6.573   2.705 -2.6436 -0.8555 -0.9056
   21MOL   H27815118   4.944   6.740   2.720  1.1738  1.3867 -2.0041
   21MOL   H27915119   4.758   6.617   2.517  0.5269  0.8933 -0.5916
   21MOL   H28015120   4.747   6.780   2.565 -0.8020 -1.2572 -1.2595
   21MOL   H28115121   4.688   6.576   2.780  1.0994  1.5082  2.1348
   21MOL   H28215122   4.690   6.755   2.782 -2.4401 -1.1798  1.3834
   21MOL   H28315123   4.519   6.605   2.587 -0.0368 -0.7940  1.1072
   21MOL   H28415124   4.503   6.771   2.640  0.1660 -0.6041 -2.1366
   21MOL   H28515125   4.451   6.692   2.862  2.4856 -1.1892 -0.3171
   21MOL   H28615126   4.431   6.526   2.795  3.2632 -0.4505 -2.9825
   21MOL   H28715127   4.216   6.602   2.786 -0.4907 -0.1735 -0.9699
   21MOL   H28815128   4.256   6.648   2.628 -1.7434  0.9551  0.6784
   21MOL   H28915129   4.298   6.874   2.708  1.2692 -2.1819 -0.8497
   21MOL   H29015130   4.231   6.832   2.874 -0.6905  2.2413 -0.4016
   21MOL   H29115131   4.028   6.752   2.775 -0.4692 -0.0385 -0.9742
   21MOL   H29215132   4.079   6.777   2.620  1.7799 -0.4525  0.0163
   21MOL   H29315133   4.114   7.014   2.659  0.0896 -2.1553 -0.6211
   21MOL   H29415134   4.034   7.021   2.803 -0.9289  0.0665 -0.1869
   21MOL   H29515135   3.902   6.945   2.536 -0.2008  2.2373 -0.7135
   21MOL   H29615136   3.896   7.097   2.615  3.3451 -0.1459 -0.5318
   21MOL   H29715137   3.772   6.838   2.692  2.6597 -1.9175  1.7791
   21MOL   C29815138   3.703   7.008   2.780  0.1940  0.0360 -0.1951
   21MOL   O29915139   3.720   7.127   2.797 -0.0462  0.6492  0.5975
   21MOL   C30015140   3.578   6.934   2.843 -0.1254 -0.2407 -0.5107
   21MOL   C30115141   3.464   7.032   2.881  0.0535  0.0966 -0.3061
   21MOL   C30215142   3.338   6.968   2.952  0.3516  0.5389 -0.1859
   21MOL   C30315143   3.251   6.874   2.870 -0.1541 -0.4604 -0.3848
   21MOL   C30415144   3.184   6.935   2.752 -0.0113 -0.4881  0.1260
   21MOL   C30515145   3.061   6.854   2.704 -0.2500 -0.5253  0.1916
   21MOL   C30615146   3.105   6.700   2.678  0.0038  0.5855 -0.7671
   21MOL   C30715147   3.003   6.605   2.614 -0.4479 -0.0002  0.0770
   21MOL   C30815148   2.921   6.656   2.495 -0.5457 -0.3429  0.1453
   21MOL   C30915149   2.982   6.621   2.362 -0.5479 -0.2393  0.1618
   21MOL   C31015150   2.930   6.709   2.247  0.0848  0.2194 -0.6697
   21MOL   N31115151   2.999   6.679   2.121 -0.2991  0.0676  0.3857
   21MOL   H31215152   3.605   6.876   2.931  0.0742 -0.2798 -0.5948
   21MOL   H31315153   3.546   6.860   2.769 -1.1304  1.2158 -1.5651
   21MOL   H31415154   3.501   7.116   2.939 -0.1045  0.4087 -0.6542
   21MOL   H31515155   3.426   7.070   2.786 -1.0072 -0.0367  0.0580
   21MOL   H31615156   3.275   7.055   2.972  1.2048  0.8396  1.2581
   21MOL   H31715157   3.364   6.925   3.049  4.7206  1.3154 -0.9244
   21MOL   H31815158   3.318   6.795   2.838  0.2373  0.0185 -0.7719
   21MOL   H31915159   3.168   6.842   2.933  0.9601 -2.8360 -0.0714
   21MOL   H32015160   3.248   6.955   2.666  1.2228 -1.1592  0.8610
   21MOL   H32115161   3.143   7.034   2.773  0.0623 -0.4935  0.2961
   21MOL   H32215162   3.023   6.901   2.613 -0.0026 -0.1452  0.2846
   21MOL   H32315163   2.986   6.853   2.783 -1.7870 -1.1281 -1.2615
   21MOL   H32415164   3.135   6.647   2.768 -0.0186  2.2897  0.2663
   21MOL   H32515165   3.189   6.695   2.609  2.9155 -0.9508  2.7438
   21MOL   H32615166   2.926   6.572   2.685 -0.2158 -4.1153 -1.4333
   21MOL   H32715167   3.053   6.513   2.582 -0.4455  0.6350 -1.8012
   21MOL   H32815168   2.886   6.759   2.491 -2.0302 -0.8760 -0.7242
   21MOL   H32915169   2.829   6.599   2.506 -0.9024  0.0270 -0.8923
   21MOL   H33015170   2.975   6.518   2.327 -1.2238 -0.3383  0.5843
   21MOL   H33115171   3.090   6.640   2.366 -0.1989 -2.2231  0.8220
   21MOL   H33215172   2.941   6.815   2.264  1.5645  0.3050 -2.0639
   21MOL   H33315173   2.821   6.698   2.241 -0.1182  2.9488 -2.8354
   21MOL   H33415174   3.088   6.724   2.105 -0.2240 -0.0124  0.5650
   21MOL   C33515175   2.959   6.591   2.029 -1.4489 -0.6050 -1.0593
   21MOL   O33615176   2.858   6.528   2.056  0.1441 -0.4091  0.8612
   21MOL   C33715177   3.032   6.593   1.895 -0.9723 -0.1296 -0.4851
   21MOL   C33815178   3.005   6.474   1.806 -0.3734 -0.5373 -0.7723
   21MOL   C33915179   3.077   6.472   1.667  0.0340  0.3622  0.0647
   21MOL   C34015180   3.028   6.586   1.578 -0.6718 -0.1284  0.1651
   21MOL   C34115181   3.057   6.560   1.428  0.1051  0.4477 -0.1139
   21MOL   C34215182   2.983   6.648   1.328  0.3122 -0.2838 -0.3708
   21MOL   C34315183   3.027   6.795   1.338 -0.6996  0.0516  0.3422
   21MOL   C34415184   3.174   6.814   1.291  0.4647 -0.0724  0.3727
   21MOL   C34515185   3.200   6.958   1.262 -0.6406 -0.2827  0.0840
   21MOL   C34615186   3.349   6.984   1.246  0.3075 -0.1176  0.4463
   21MOL   C34715187   3.370   7.134   1.258 -1.3922  0.1565 -0.0578
   21MOL   N34815188   3.515   7.166   1.276  0.1581  0.1470  0.2910
   21MOL   H34915189   3.139   6.598   1.917 -1.3839  1.1526  1.3191
   21MOL   H35015190   3.005   6.688   1.848 -2.0412  0.6000  1.5766
   21MOL   H35115191   3.036   6.383   1.857 -0.6223 -1.2941 -1.9318
   21MOL   H35215192   2.898   6.482   1.786 -0.7294  1.5746  1.8794
   21MOL   H35315193   3.040   6.376   1.630  1.7636  0.3421 -1.7258
   21MOL   H35415194   3.186   6.471   1.668  0.0473 -1.4114 -0.8275
   21MOL   H35515195   2.920   6.591   1.589 -0.5738 -0.4312  1.4018
   21MOL   H35615196   3.083   6.680   1.591  1.7752 -1.5364  0.3165
   21MOL   H35715197   3.020   6.459   1.407 -0.8050  1.0044 -1.2063
   21MOL   H35815198   3.165   6.550   1.416 -0.0465  0.6402 -1.7529
   21MOL   H35915199   2.878   6.624   1.350  0.7430 -0.3107  1.7911
   21MOL   H36015200   2.984   6.612   1.225 -3.1538 -2.4593  0.2502
   21MOL   H36115201   3.003   6.826   1.439 -0.7503 -3.0943  1.3572
   21MOL   H36215202   2.972   6.863   1.274  1.0777  0.8984 -0.3353
   21MOL   H36315203   3.185   6.752   1.202 -1.8527 -0.5950  0.4081
   21MOL   H36415204   3.252   6.778   1.357  1.5925 -0.8407 -1.3340
   21MOL   H36515205   3.163   7.017   1.346  1.5433  0.3369  0.6263
   21MOL   H36615206   3.138   7.004   1.184 -0.1749  0.4617  0.1504
   21MOL   H36715207   3.383   6.936   1.154  1.5441  0.0290  0.8160
   21MOL   H36815208   3.404   6.922   1.316  0.5950 -1.8037 -1.2563
   21MOL   H36915209   3.341   7.149   1.362 -0.8034  0.5338  0.0535
   21MOL   H37015210   3.310   7.197   1.193 -1.3174  0.5040  0.2094
   21MOL   H37115211   3.572   7.118   1.344  1.6596  0.8323 -0.4517
   21MOL   C37215212   3.579   7.256   1.205  0.1818  0.3620  0.6646
   21MOL   O37315213   3.535   7.316   1.105 -0.4835 -0.4731 -0.2631
   21MOL   C37415214   3.728   7.270   1.243 -0.9066  0.0764  0.4761
   21MOL   C37515215   3.828   7.333   1.147  0.3995  0.2864  0.0970
   21MOL   C37615216   3.845   7.258   1.012 -0.2559 -0.5156 -0.4842
   21MOL   C37715217   3.941   7.141   1.032  0.0792  0.1668  0.2804
   21MOL   C37815218   3.966   7.075   0.897  0.0146 -0.1091 -0.0349
   21MOL   C37915219   4.043   6.943   0.905  0.0442  0.0443  0.3364
   21MOL   C38015220   4.192   6.944   0.951 -1.2056  0.2601  0.1744
   21MOL   C38115221   4.289   6.974   0.830 -0.7336  0.0886  0.0869
   21MOL   C38215222   4.438   6.988   0.869 -0.2039 -0.0069  0.1319
   21MOL   C38315223   4.535   6.977   0.752 -0.2027  0.0250  0.4878
   21MOL   C38415224   4.525   6.852   0.660 -0.6231 -0.2949 -0.0163
   21MOL   N38515225   4.616   6.853   0.550  0.2530 -0.1072  0.3774
   21MOL   H38615226   3.770   7.177   1.282 -1.0045 -1.0284 -1.9944
   21MOL   H38715227   3.746   7.338   1.327  3.7560 -0.3893 -0.0265
   21MOL   H38815228   3.798   7.438   1.135  0.0253  0.3870  1.7708
   21MOL   H38915229   3.920   7.342   1.205  1.2682 -4.5398 -0.3438
   21MOL   H39015230   3.900   7.320   0.941 -0.6246 -1.2133 -1.3777
   21MOL   H39115231   3.755   7.230   0.958 -1.9827  1.1810  1.4512
   21MOL   H39215232   4.041   7.161   1.071  0.6501 -1.1724 -0.4552
   21MOL   H39315233   3.898   7.058   1.089  2.6088  0.0015  2.0445
   21MOL   H39415234   4.029   7.144   0.841 -1.0324  0.2905 -0.7324
   21MOL   H39515235   3.871   7.057   0.846  0.9859 -0.9598 -1.5741
   21MOL   H39615236   4.053   6.901   0.805 -1.4337 -0.4434  0.3801
   21MOL   H39715237   3.978   6.868   0.949  0.2062  0.3102  1.0401
   21MOL   H39815238   4.218   6.840   0.972  0.0977 -0.0686 -2.8182
   21MOL   H39915239   4.228   7.008   1.031 -0.4501  0.9160 -0.6738
   21MOL   H40015240   4.264   7.064   0.774 -1.0901 -0.7048 -1.0523
   21MOL   H40115241   4.276   6.893   0.758 -0.6832  1.3412 -1.3505
   21MOL   H40215242   4.460   6.899   0.928  0.7227 -0.2595 -0.5750
   21MOL   H40315243   4.456   7.080   0.923  3.8641 -0.7014  0.1107
   21MOL   H40415244   4.638   6.992   0.784  0.1402  2.4379 -1.5984
   21MOL   H40515245   4.525   7.067   0.691 -1.4694 -1.1591 -1.1076
   21MOL   H40615246   4.429   6.835   0.611 -0.9852 -0.2140  0.6485
   21MOL   H40715247   4.537   6.758   0.714 -0.6164 -0.1488  0.2416
   21MOL   H40815248   4.568   6.880   0.466 -1.2832 -2.2093  0.5346
   21MOL   C40915249   4.745   6.822   0.562  0.5350  0.4731  0.0957
   21MOL   O41015250   4.797   6.783   0.667 -0.5290 -0.2079  0.0057
   21MOL   C41115251   4.825   6.837   0.437 -0.0337  0.6759  0.3511
   21MOL   C41215252   4.925   6.954   0.447  0.4748  0.2886  0.4720
   21MOL   C41315253   5.052   6.941   0.533 -0.3763 -0.3363 -0.2246
   21MOL   C41415254   5.143   7.062   0.527 -0.0589  0.1098 -0.3775
   21MOL   C41515255   5.105   7.174   0.621  0.5424 -0.2576  0.2658
   21MOL   C41615256   5.142   7.319   0.571 -0.0409  0.3068  0.8778
   21MOL   C41715257   5.106   7.425   0.672 -0.0140 -0.4949  0.1069
   21MOL   C41815258   5.121   7.571   0.615 -0.4495 -0.8075 -0.4387
   21MOL   C41915259   5.269   7.606   0.628  0.0000  0.4911  0.3580
   21MOL   C42015260   5.289   0.059   0.590 -0.4623 -0.2186 -0.7352
   21MOL   C42115261   5.296   0.078   0.437 -0.9283 -0.6265  0.4695
   21MOL   N42215262   5.293   0.218   0.394 -0.0060 -0.2299 -0.0510
   21MOL   H42315263   4.758   6.862   0.354 -0.0002 -0.7055 -0.1223
   21MOL   H42415264   4.881   6.748   0.408  0.0840  0.6518  0.6520
   21MOL   H42515265   4.943   6.972   0.341 -0.3075 -1.6081  0.0027
   21MOL   H42615266   4.868   7.039   0.486  1.6974  1.3521 -0.0159
   21MOL   H42715267   5.115   6.864   0.489  0.4112  0.5482 -0.6535
   21MOL   H42815268   5.033   6.909   0.636 -0.6341 -0.3314 -0.2712
   21MOL   H42915269   5.245   7.028   0.543 -1.1751 -2.1474  2.2564
   21MOL   H43015270   5.154   7.106   0.428 -1.8719 -0.5582 -0.8951
   21MOL   H43115271   5.151   7.163   0.719  3.3728  1.1953 -0.8733
   21MOL   H43215272   4.996   7.164   0.631  0.6636 -1.4588  0.4742
   21MOL   H43315273   5.100   7.343   0.473  0.8972  1.5286  0.7726
   21MOL   H43415274   5.248   7.331   0.551 -0.2968  2.0657  0.4810
   21MOL   H43515275   5.173   7.411   0.757  0.4463  0.1831 -0.1350
   21MOL   H43615276   5.003   7.417   0.706 -0.8508  3.9943 -1.0576
   21MOL   H43715277   5.052   7.632   0.674  1.4399 -0.3223  1.3273
   21MOL   H43815278   5.091   7.576   0.511  1.7362 -2.7140 -1.1965
   21MOL   H43915279   5.345   7.550   0.574 -1.5432 -1.6461  0.3240
   21MOL   H44015280   5.287   7.596   0.735  1.0065 -0.2652  0.1219
   21MOL   H44115281   5.384   0.095   0.629 -1.0257 -0.0369  0.4916
   21MOL   H44215282   5.206   0.114   0.633 -0.4666  0.4528 -1.5766
   21MOL   H44315283   5.212   0.026   0.391  0.4871 -1.9866 -0.6201
   21MOL   H44415284   5.383   0.034   0.390 -0.2087  1.5409 -0.2927
   21MOL   H44515285   5.341   0.288   0.450 -1.9002  0.7698  0.3567
   21MOL   C44615286   5.253   0.252   0.272 -0.4698  0.1355  0.4740
   21MOL   O44715287   5.200   0.172   0.198  0.0396 -0.2253 -0.5313
   21MOL   C44815288   5.279   0.393   0.226  0.1007  0.0477  0.7834
   21MOL   C44915289   5.162   0.486   0.183 -0.1113  0.4390  0.8382
   21MOL   C45015290   5.062   0.518   0.298  0.3131  1.0283  0.1059
   21MOL   C45115291   5.102   0.639   0.384 -0.1438 -0.3837 -0.7640
   21MOL   C45215292   5.223   0.619   0.480  0.5214 -0.0870  0.6717
   21MOL   C45315293   5.239   0.741   0.575 -0.1910  0.5164  0.1108
   21MOL   C45415294   5.346   0.715   0.681 -0.8161 -0.6052 -0.0787
   21MOL   C45515295   5.355   0.821   0.791  0.1267  0.0020 -0.1975
   21MOL   C45615296   5.462   0.783   0.890 -0.0393  0.2234 -0.0596
   21MOL   C45715297   5.467   0.874   1.012 -0.4095 -0.3117 -0.1666
   21MOL   C45815298   5.603   0.861   1.088 -0.3177 -0.0602 -0.1730
   21MOL   N45915299   5.621   0.952   1.202  0.3846  0.0906 -0.3479
   21MOL   H46015300   5.351   0.379   0.145 -0.8082  0.5469 -0.1169
   21MOL   H46115301   5.344   0.445   0.297  0.8178  1.1700 -0.6583
   21MOL   H46215302   5.194   0.579   0.136 -1.1999  0.8323  0.8610
   21MOL   H46315303   5.118   0.439   0.095 -1.9326  1.0103  1.4109
   21MOL   H46415304   5.045   0.435   0.367  2.2303 -0.3261 -0.9918
   21MOL   H46515305   4.963   0.539   0.258  0.3261 -1.1627 -1.1739
   21MOL   H46615306   5.119   0.724   0.318 -0.4984  0.8502  0.7088
   21MOL   H46715307   5.009   0.658   0.439 -0.4289  2.4482 -2.1603
   21MOL   H46815308   5.316   0.585   0.434 -0.4244  0.0341 -1.3824
   21MOL   H46915309   5.197   0.529   0.534  1.1334 -1.9091 -1.9695
   21MOL   H47015310   5.139   0.748   0.618 -0.4902  1.4441 -0.6924
   21MOL   H47115311   5.257   0.839   0.530  0.1706  0.7522  0.7694
   21MOL   H47215312   5.440   0.705   0.627 -0.2396  0.1490  0.7660
   21MOL   H47315313   5.329   0.619   0.730 -0.8931  0.0271  1.1602
   21MOL   H47415314   5.266   0.815   0.855 -0.7044 -0.6143 -1.3779
   21MOL   H47515315   5.372   0.922   0.754  0.4665  0.5153  1.3240
   21MOL   H47615316   5.554   0.784   0.832 -0.7153 -1.0994 -1.1845
   21MOL   H47715317   5.442   0.684   0.932 -0.3232  0.3319  0.0661
   21MOL   H47815318   5.381   0.848   1.073 -1.9089 -1.0811 -2.4955
   21MOL   H47915319   5.458   0.980   0.988  0.1664  0.1906  1.7994
   21MOL   H48015320   5.689   0.860   1.022 -0.9292 -0.6524 -0.9631
   21MOL   H48115321   5.593   0.761   1.130  1.1428  0.2622  1.0203
   21MOL   H48215322   5.668   1.040   1.184  3.5315 -1.0089  1.9794
   21MOL   C48315323   5.589   0.917   1.328  0.3342  0.7167 -0.6769
   21MOL   O48415324   5.550   0.803   1.349  0.4489  0.1019  0.0743
   21MOL   C48515325   5.605   1.023   1.435  0.2488  0.7556 -0.3047
   21MOL   C48615326   5.555   0.974   1.576  0.0964 -0.4742 -0.3465
   21MOL   C48715327   5.664   0.890   1.645  0.0720 -0.2230  0.1739
   21MOL   C48815328   5.601   0.792   1.744 -0.0313 -0.0481  0.2754
   21MOL   C48915329   5.569   0.850   1.886 -0.3401  0.8929 -0.3813
   21MOL   C49015330   5.530   0.736   1.981 -0.4060 -0.2826 -0.1295
   21MOL   C49115331   5.452   0.779   2.101  0.3331  0.2912  0.2671
   21MOL   C49215332   5.441   0.651   2.208 -0.0079  0.2891 -0.5232
   21MOL   C49315333   5.355   0.682   2.328  0.1927  0.9627  0.1107
   21MOL   C49415334   5.352   0.577   2.437  0.8425  0.0455 -0.5487
   21MOL   C49515335   5.258   0.600   2.561 -0.4029 -0.5559  0.3223
   21MOL   N49615336   5.259   0.490   2.655  0.1534 -0.1077  0.2246
   21MOL   H49715337   5.531   1.093   1.397  2.0834  1.5955 -2.4862
   21MOL   H49815338   5.705   1.064   1.448  1.0287 -1.2197  0.1022
   21MOL   H49915339   5.527   1.058   1.640 -2.8892 -2.4179  1.0475
   21MOL   H50015340   5.462   0.917   1.561 -0.7143  0.3192  1.5215
   21MOL   H50115341   5.741   0.949   1.695 -0.8965  0.2278  1.1606
   21MOL   H50215342   5.726   0.837   1.572  0.5462  0.2684  0.2203
   21MOL   H50315343   5.508   0.751   1.703 -0.3007  1.6956 -0.8918
   21MOL   H50415344   5.672   0.712   1.767  2.1863  1.2537 -1.9027
   21MOL   H50515345   5.487   0.921   1.880  0.2368  1.5246 -0.8305
   21MOL   H50615346   5.651   0.908   1.929  0.3210  0.0797 -0.5409
   21MOL   H50715347   5.622   0.692   2.020  0.0399  1.3086  0.6874
   21MOL   H50815348   5.478   0.661   1.921 -0.3282  0.2009 -0.8130
   21MOL   H50915349   5.352   0.814   2.078  0.5073 -0.2507 -1.3681
   21MOL   H51015350   5.484   0.870   2.153 -0.1990 -1.1419  3.2306
   21MOL   H51115351   5.542   0.626   2.241 -0.9388 -1.0227  1.3943
   21MOL   H51215352   5.400   0.568   2.151 -1.4165  1.5527 -1.3827
   21MOL   H51315353   5.252   0.696   2.293  0.3563 -0.6523 -1.0596
   21MOL   H51415354   5.384   0.781   2.364  0.8231  1.0702 -0.6895
   21MOL   H51515355   5.452   0.551   2.474  0.0633 -1.0822  0.8170
   21MOL   H51615356   5.315   0.487   2.389  0.2755  0.7307 -1.3978
   21MOL   H51715357   5.156   0.609   2.524 -0.6194  1.8039  1.3945
   21MOL   H51815358   5.284   0.694   2.609  1.3691 -1.6560  1.6013
   21MOL   H51915359   5.299   0.509   2.746  0.4477  1.5992 -0.2550
   21MOL   C52015360   5.192   0.370   2.642  0.0109 -0.4006  0.2288
   21MOL   O52115361   5.146   0.339   2.535 -1.4833 -0.0438 -0.7481
   21MOL   C52215362   5.178   0.274   2.769 -0.0967 -0.7624 -0.1900
   21MOL   C52315363   5.222   0.130   2.726  0.3812 -0.2338 -0.3026
   21MOL   C52415364   5.190   0.010   2.822 -0.3351 -0.7009  0.1375
   21MOL   C52515365   5.233   7.563   2.777 -0.4638  0.2812  0.6070
   21MOL   C52615366   5.217   7.441   2.876 -0.0245 -0.1967  1.1661
   21MOL   C52715367   5.315   7.328   2.842  0.3058 -0.0369  0.1814
   21MOL   C52815368   5.292   7.198   2.926 -0.4921 -0.2741 -0.4793
   21MOL   C52915369   5.375   7.078   2.862  0.1369  0.2207  0.1404
   21MOL   C53015370   5.373   6.945   2.936  0.7718 -0.7851  0.1139
   21MOL   C53115371   5.459   6.834   2.869  0.6013  0.1306  1.0812
   21MOL   C53215372   5.458   6.702   2.950 -0.3719 -0.7281 -0.0033
   21MOL   N53315373   5.325   6.644   2.953 -0.3575 -0.2403  0.5359
   21MOL   H53415374   5.070   0.270   2.787 -0.5993  3.1772 -1.7730
   21MOL   H53515375   5.234   0.317   2.852 -0.6631 -1.0711  0.3553
   21MOL   H53615376   5.164   0.110   2.636  0.5864  1.6651 -0.8616
   21MOL   H53715377   5.330   0.134   2.707  0.3229  0.3605 -0.5070
   21MOL   H53815378   5.088   0.005   2.860 -0.3976 -0.0906  0.0482
   21MOL   H53915379   5.245   0.023   2.915 -1.0956 -0.1773  0.5231
   21MOL   H54015380   5.194   7.530   2.680  2.8904  2.2360 -1.5192
   21MOL   H54115381   5.340   7.573   2.763 -0.4613  0.4822  0.7790
   21MOL   H54215382   5.115   7.403   2.880 -0.2910  0.5464  1.6601
   21MOL   H54315383   5.235   7.479   2.977  1.3485  2.3640  0.0182
   21MOL   H54415384   5.423   7.344   2.849  0.3013  0.6022 -1.1345
   21MOL   H54515385   5.288   7.302   2.740 -0.0348 -1.7571  0.6917
   21MOL   H54615386   5.188   7.174   2.951 -0.0547  1.5731  3.5602
   21MOL   H54715387   5.320   7.222   3.029 -0.1383  1.3411 -0.9323
   21MOL   H54815388   5.475   7.118   2.847 -0.3283  0.4880 -2.3969
   21MOL   H54915389   5.329   7.057   2.765  1.2699 -0.3650 -0.2834
   21MOL   H55015390   5.271   6.906   2.941  0.9114 -1.2003 -0.2007
   21MOL   H55115391   5.406   6.967   3.037  0.7374 -3.3766  0.7260
   21MOL   H55215392   5.563   6.866   2.857  0.5680 -0.0607  0.2672
   21MOL   H55315393   5.418   6.813   2.770  3.0106  0.0101  0.0500
   21MOL   H55415394   5.493   6.718   3.052  0.6321  0.8556 -0.5753
   21MOL   H55515395   5.525   6.632   2.900  0.1445 -0.6862  0.6292
   21MOL   H55615396   5.266   6.685   2.882  1.8900  0.3080 -1.1060
   21MOL   C55715397   5.291   6.533   3.011 -0.0852  0.5942 -0.3246
   21MOL   O55815398   5.361   6.474   3.092  0.3417 -0.0988  0.3565
   21MOL   C55915399   5.152   6.480   2.986  0.0047 -0.0695 -0.1676
   21MOL   C56015400   5.160   6.347   2.903  0.4800 -0.2995  0.8245
   21MOL   C56115401   5.192   6.355   2.750 -0.1401 -0.4277  0.5930
   21MOL   C56215402   5.189   6.227   2.668 -0.1600  0.3177  0.2795
   21MOL   C56315403   5.239   6.250   2.523 -0.2939  0.3565 -0.3508
   21MOL   C56415404   5.259   6.115   2.446  0.1478  0.3580 -0.9188
   21MOL   C56515405   5.288   6.148   2.300 -0.5794  0.2621 -0.1231
   21MOL   C56615406   5.316   6.029   2.212 -0.8097 -0.1301  0.4701
   21MOL   C56715407   5.193   5.936   2.182 -0.3500 -0.5667  0.7309
   21MOL   C56815408   5.239   5.795   2.158  0.8499  0.7462  0.7206
   21MOL   C56915409   5.316   5.717   2.271 -0.5654 -0.3342 -0.4341
   21MOL   N57015410   5.275   5.751   2.402 -0.0706  1.0084  0.0937
   21MOL   H57115411   5.082   6.556   2.950 -1.6305 -1.9256 -0.9904
   21MOL   H57215412   5.104   6.448   3.078  0.2701  2.1187  0.7465
   21MOL   H57315413   5.230   6.282   2.954  2.1673  0.5114 -0.4134
   21MOL   H57415414   5.068   6.289   2.913  0.5452 -0.4364  0.6367
   21MOL   H57515415   5.291   6.400   2.734 -0.3092 -0.9036 -1.9493
   21MOL   H57615416   5.117   6.421   2.707  0.2223 -0.1394  0.3961
   21MOL   H57715417   5.256   6.158   2.718  0.6989  0.8053 -0.1882
   21MOL   H57815418   5.087   6.188   2.665 -1.1616  2.6421  2.1643
   21MOL   H57915419   5.325   6.316   2.526 -0.0270 -0.0215  1.1061
   21MOL   H58015420   5.159   6.308   2.478 -1.1694 -1.2185 -0.8419
   21MOL   H58115421   5.168   6.056   2.457  0.3330  0.5720  2.4397
   21MOL   H58215422   5.342   6.063   2.493  0.2041  0.4525 -0.9124
   21MOL   H58315423   5.371   6.218   2.295 -0.1310 -0.2274  0.3335
   21MOL   H58415424   5.204   6.200   2.254 -2.7521 -3.2362 -0.3159
   21MOL   H58515425   5.394   5.968   2.256 -1.8170 -1.9613 -0.2409
   21MOL   H58615426   5.355   6.070   2.119  2.2543 -0.3178  1.6158
   21MOL   H58715427   5.129   5.969   2.101  0.0651 -3.4548 -0.8165
   21MOL   H58815428   5.124   5.931   2.266 -0.6497  0.0233  0.5227
   21MOL   H58915429   5.304   5.795   2.070 -0.2783  3.4345 -0.1776
   21MOL   H59015430   5.153   5.736   2.126  3.7654 -2.3199 -1.8918
   21MOL   H59115431   5.423   5.738   2.263 -0.2999 -1.3373  0.4627
   21MOL   H59215432   5.312   5.612   2.244  2.2145 -0.3830 -0.8133
   21MOL   H59315433   5.322   5.817   2.461  2.6793 -0.2294 -0.6430
   21MOL   C59415434   5.167   5.694   2.461  0.7571  0.0392  0.2922
   21MOL   O59515435   5.104   5.604   2.406 -0.6670  0.1267 -0.4884
   21MOL   C59615436   5.123   5.738   2.596  0.4348 -1.0559  0.7532
   21MOL   C59715437   5.005   5.833   2.591 -0.0383 -0.6850 -0.9507
   21MOL   C59815438   4.988   5.907   2.723 -0.2383 -0.5106 -0.9829
   21MOL   C59915439   4.870   6.007   2.735  0.7874  0.0704 -0.1357
   21MOL   C60015440   4.845   6.057   2.873  0.1920 -0.1630  0.2856
   21MOL   C60115441   4.758   6.183   2.887 -0.8370 -0.6127  0.0275
   21MOL   C60215442   4.767   6.258   3.023  0.1304 -0.4959 -0.3820
   21MOL   C60315443   4.679   6.387   3.035  0.1727  0.7484  0.6215
   21MOL   C60415444   4.693   6.454   3.176  0.6441 -0.1282  0.8137
   21MOL   C60515445   4.832   6.492   3.230  0.0805 -0.7698  0.2628
   21MOL   C60615446   4.818   6.560   3.364 -0.2195  0.5453 -0.1515
   21MOL   N60715447   4.949   6.587   3.426 -0.1955 -0.7501 -0.0120
   21MOL   H60815448   5.200   5.798   2.644  0.3362 -1.0063  0.8493
   21MOL   H60915449   5.108   5.657   2.667 -0.5310 -1.4742  0.0714
   21MOL   H61015450   5.017   5.903   2.509 -0.4331 -0.8412 -1.1443
   21MOL   H61115451   4.917   5.776   2.560 -0.6357 -0.3209  0.0648
   21MOL   H61215452   5.083   5.960   2.734  1.1609 -3.1640  0.3938
   21MOL   H61315453   4.986   5.841   2.810  3.3042 -1.4557 -1.5412
   21MOL   H61415454   4.876   6.092   2.666  1.4367  0.5637  0.5156
   21MOL   H61515455   4.780   5.958   2.699 -0.1592  1.7568 -0.1024
   21MOL   H61615456   4.945   6.081   2.910  1.0457 -1.3321 -1.1745
   21MOL   H61715457   4.816   5.979   2.943  0.8731 -1.6358 -1.0196
   21MOL   H61815458   4.657   6.149   2.864 -0.7744  0.7823 -2.4717
   21MOL   H61915459   4.783   6.255   2.809 -1.8870 -0.4594 -0.1747
   21MOL   H62015460   4.868   6.297   3.028  0.5269 -1.5840  0.3045
   21MOL   H62115461   4.752   6.194   3.110 -1.8761 -0.0792 -0.3892
   21MOL   H62215462   4.580   6.354   3.005  0.6509  2.6353 -3.3822
   21MOL   H62315463   4.699   6.455   2.952  2.2727  1.1265  1.4035
   21MOL   H62415464   4.640   6.385   3.243  0.8874 -1.6915 -0.5853
   21MOL   H62515465   4.627   6.541   3.178  0.0373 -0.5609 -0.3378
   21MOL   H62615466   4.880   6.556   3.157 -1.3121  0.9959  0.8452
   21MOL   H62715467   4.898   6.405   3.233  1.0510 -0.0755 -0.7623
   21MOL   H62815468   4.757   6.504   3.434 -0.3899  0.7830 -0.1106
   21MOL   H62915469   4.765   6.654   3.354 -0.9465  0.3613  1.9524
   21MOL   H63015470   4.968   6.517   3.496  0.4984  0.3432  0.9054
   21MOL   C63115471   5.035   6.683   3.389  0.6133  0.1836  0.2058
   21MOL   O63215472   5.018   6.753   3.289 -0.4083  0.2983  0.4145
   21MOL   C63315473   5.170   6.683   3.466 -0.3041 -0.2998  0.1100
   21MOL   C63415474   5.282   6.732   3.375  0.5489  0.4521 -0.4026
   21MOL   C63515475   5.419   6.691   3.438 -0.6191 -0.6156 -0.3426
   21MOL   C63615476   5.534   6.782   3.377  0.1637 -0.4084  0.2244
   21MOL   C63715477   5.540   6.927   3.431  0.5914 -0.3686 -0.3357
   21MOL   C63815478   5.555   6.935   3.588  0.0235  0.4054  0.2959
   21MOL   C63915479   5.628   7.066   3.635 -0.9719 -0.2689 -0.9137
   21MOL   C64015480   5.781   7.070   3.612 -0.5286 -0.0703  0.4768
   21MOL   C64115481   5.847   7.186   3.686  0.6426  0.5452 -0.7793
   21MOL   C64215482   5.995   7.173   3.677 -0.1520 -0.1888  0.3437
   21MOL   C64315483   6.070   7.289   3.750 -0.7171 -0.6444  0.6349
   21MOL   N64415484   6.217   7.299   3.743 -0.1954  0.2916 -0.8663
   21MOL   H64515485   5.200   6.582   3.497 -0.9727 -0.6012 -0.2272
   21MOL   H64615486   5.168   6.736   3.561 -0.2537 -0.8102  0.4023
   21MOL   H64715487   5.268   6.683   3.278 -0.2365 -2.4660  1.1374
   21MOL   H64815488   5.284   6.840   3.366  1.2797  0.3289 -1.8741
   21MOL   H64915489   5.441   6.584   3.433 -1.8352 -1.0125  1.8542
   21MOL   H65015490   5.409   6.710   3.545  0.0259 -4.5054  0.4727
   21MOL   H65115491   5.629   6.740   3.409 -0.2300 -0.2997  1.5681
   21MOL   H65215492   5.524   6.777   3.269 -0.5863  2.4921  0.1107
   21MOL   H65315493   5.452   6.977   3.390 -0.5484 -0.4185  1.9524
   21MOL   H65415494   5.631   6.973   3.393  0.3389  0.7342  0.3648
   21MOL   H65515495   5.603   6.852   3.638  1.6689  1.1131 -0.0556
   21MOL   H65615496   5.449   6.948   3.610  0.5415  1.5061  2.2576
   21MOL   H65715497   5.595   7.078   3.738 -1.3876  1.0102 -1.1815
   21MOL   H65815498   5.584   7.157   3.594 -1.5632 -0.4946 -0.7778
   21MOL   H65915499   5.812   7.071   3.507  0.1234  0.8525  0.6739
   21MOL   H66015500   5.821   6.980   3.658  0.1963 -0.1680 -0.3407
   21MOL   H66115501   5.816   7.184   3.790 -0.2825 -1.6883 -1.0790
   21MOL   H66215502   5.814   7.281   3.643 -1.9274  0.4488  0.8597
   21MOL   H66315503   6.025   7.178   3.572 -1.4531 -3.3280 -0.2598
   21MOL   H66415504   6.028   7.077   3.718  0.1789 -0.8050 -1.3067
   21MOL   H66515505   6.052   7.287   3.858 -0.0837 -0.4577  0.7467
   21MOL   H66615506   6.024   7.381   3.715  1.3639 -0.2257 -1.1080
   21MOL   H66715507   6.257   7.385   3.708 -1.8135  0.4012 -2.5491
   21MOL   C66815508   6.311   7.218   3.795 -0.0784  0.0290 -0.1230
   21MOL   O66915509   6.286   7.108   3.838 -0.5097  0.1417  0.1430
   21MOL   C67015510   6.463   7.263   3.786 -0.2016 -0.0448 -0.7822
   21MOL   C67115511   6.552   7.234   3.905 -0.5832 -0.2079  0.1994
   21MOL   C67215512   6.521   7.317   4.029  1.0173  0.3214  0.4318
   21MOL   C67315513   6.638   7.327   4.132  0.2474  0.5948  0.0968
   21MOL   C67415514   6.607   7.408   4.256 -1.0352 -0.0561 -0.0912
   21MOL   C67515515   6.581   7.563   4.247 -0.0131  0.8115 -0.2936
   21MOL   C67615516   6.554   7.623   4.392 -0.0734  0.1468  0.1082
   21MOL   C67715517   6.409   7.610   4.440 -0.0654  0.1850 -1.1614
   21MOL   C67815518   6.404   7.650   4.589  0.1323 -0.0967  0.2545
   21MOL   C67915519   6.261   7.646   4.642  0.1163 -0.1215 -0.4648
   21MOL   C68015520   6.260   7.682   4.790 -0.1749 -0.1539 -0.6896
   21MOL   N68115521   6.306   7.560   4.867  0.0233 -0.1840 -0.4421
   21MOL   H68215522   6.468   7.367   3.756 -1.9714  0.1186 -0.5765
   21MOL   H68315523   6.507   7.213   3.700 -2.1986 -1.8518 -0.7969
   21MOL   H68415524   6.553   7.135   3.949 -0.6409 -1.4873 -2.5703
   21MOL   H68515525   6.657   7.243   3.876 -0.2899 -1.2222  0.9336
   21MOL   H68615526   6.434   7.268   4.073  0.4697  0.8511 -0.0518
   21MOL   H68715527   6.496   7.414   3.985  1.5828 -0.1972 -1.0750
   21MOL   H68815528   6.658   7.224   4.162  1.4385  0.8340  0.1580
   21MOL   H68915529   6.720   7.367   4.073 -0.0147 -2.2596 -2.3550
   21MOL   H69015530   6.683   7.399   4.333 -0.3541 -1.5262 -0.9123
   21MOL   H69115531   6.525   7.353   4.302 -0.9672  0.1247  0.2457
   21MOL   H69215532   6.496   7.575   4.179 -1.6758 -2.2913  1.1777
   21MOL   H69315533   6.665   7.617   4.203  2.1464 -0.9720  1.5509
   21MOL   H69415534   6.592   0.030   4.402 -2.9757  1.7927 -3.8701
   21MOL   H69515535   6.608   7.564   4.466  1.0615  0.2478 -0.6293
   21MOL   H69615536   6.362   7.512   4.431 -0.7316  0.5276 -1.4858
   21MOL   H69715537   6.342   7.673   4.382 -0.4660  0.4602 -0.3941
   21MOL   H69815538   6.457   0.051   4.601  2.7336 -1.2516 -1.5140
   21MOL   H69915539   6.458   7.576   4.647 -1.3176 -0.0935  1.6203
   21MOL   H70015540   6.221   7.545   4.640 -0.0717 -0.0330 -1.8266
   21MOL   H70115541   6.198   0.019   4.584 -0.1585 -0.0954 -0.1360
   21MOL   H70215542   6.164   0.022   4.831  0.8394  1.5515  0.3448
   21MOL   H70315543   6.324   0.073   4.813 -0.3643  0.7882 -3.4817
   21MOL   H70415544   6.405   7.541   4.871 -0.0363 -0.8383 -1.5712
   21MOL   C70515545   6.232   7.456   4.908 -0.7796  0.6488 -0.5560
   21MOL   O70615546   6.115   7.447   4.877  0.0079 -0.6390 -0.4715
   21MOL   C70715547   6.297   7.341   4.988 -0.5576  0.3429 -0.5264
   21MOL   C70815548   6.297   7.214   4.911  0.1387 -0.7257 -0.0430
   21MOL   C70915549   6.422   7.130   4.939  0.0172 -0.8333  0.5431
   21MOL   C71015550   6.454   7.041   4.812  0.3669  0.4515 -0.0452
   21MOL   C71115551   6.588   6.963   4.818  0.3027 -0.2812  0.0776
   21MOL   C71215552   6.590   6.857   4.705 -0.4964 -0.5136  0.3529
   21MOL   C71315553   6.718   6.777   4.713 -0.0168  0.0693 -0.1581
   21MOL   C71415554   6.748   6.668   4.610  0.1279 -0.8949 -0.6975
   21MOL   C71515555   6.878   6.588   4.633 -0.7588 -0.3359 -1.1410
   21MOL   C71615556   6.997   6.662   4.698  0.1834  0.3696  0.2087
   21MOL   C71715557   7.057   6.766   4.603  0.4911 -0.1541  0.3491
   21MOL   N71815558   7.166   6.832   4.665 -0.1935  0.3883 -0.9294
   21MOL   H71915559   6.240   7.330   5.080  0.8925 -1.2116  0.2078
   21MOL   H72015560   6.395   7.376   5.019 -0.6143  0.6637 -0.7050
   21MOL   H72115561   6.205   7.159   4.933  1.2337 -1.3825  3.0417
   21MOL   H72215562   6.299   7.233   4.803 -3.2740 -0.5001 -0.1427
   21MOL   H72315563   6.405   7.056   5.018  1.3526 -3.4123 -1.5219
   21MOL   H72415564   6.503   7.199   4.959 -1.0811 -0.3131  3.4831
   21MOL   H72515565   6.374   6.967   4.799  0.6491 -0.1530  1.5543
   21MOL   H72615566   6.459   7.097   4.719  3.5711  1.4065  0.6392
   21MOL   H72715567   6.590   6.913   4.915  0.1143  2.5917  1.6168
   21MOL   H72815568   6.668   7.037   4.819 -1.5641  1.7891 -0.0165
   21MOL   H72915569   6.590   6.904   4.606  0.5245 -0.9651  0.1382
   21MOL   H73015570   6.505   6.789   4.702 -1.0461  0.1915 -0.7431
   21MOL   H73115571   6.720   6.741   4.816 -1.1076  2.5441  0.7650
   21MOL   H73215572   6.801   6.847   4.705  0.3001 -0.2782  0.0414
   21MOL   H73315573   6.732   6.706   4.509 -0.0402  0.9732  0.0177
   21MOL   H73415574   6.665   6.597   4.616 -0.1429 -0.6623 -1.7033
   21MOL   H73515575   6.894   6.533   4.540  0.2739 -1.6680 -0.2061
   21MOL   H73615576   6.844   6.510   4.700 -2.4118 -0.4144 -2.0604
   21MOL   H73715577   7.067   6.587   4.733  0.4496  0.2333 -0.6122
   21MOL   H73815578   6.968   6.705   4.793  0.0340  0.5466  0.0842
   21MOL   H73915579   6.978   6.830   4.563 -0.0055 -0.6480  0.5168
   21MOL   H74015580   7.098   6.705   4.523  2.1602 -2.6058  2.9657
   21MOL   H74115581   7.136   6.827   4.761  1.6540 -2.3546 -0.4228
   21MOL   H74215582   7.250   6.776   4.678 -0.6796 -0.1162  0.1115
   22MOL     C115583   1.814   3.753   2.416  0.3779  0.1172  0.7827
   22MOL     O215584   1.718   3.734   2.492  0.2202  0.0328 -0.6526
   22MOL     C315585   1.919   3.641   2.404 -0.2493 -0.1784 -0.1467
   22MOL     C415586   2.046   3.709   2.362  0.1014  0.3490  0.4313
   22MOL     C515587   2.156   3.611   2.320  0.3244  0.0783 -0.1704
   22MOL     C615588   2.284   3.686   2.290 -0.2306 -0.7520 -0.2066
   22MOL     C715589   2.392   3.585   2.236  0.3979 -0.2664 -0.4252
   22MOL     C815590   2.531   3.650   2.201 -0.4946 -0.1895 -0.0718
   22MOL     C915591   2.632   3.549   2.153 -0.2735 -0.0766  0.1773
   22MOL    C1015592   2.760   3.619   2.110 -0.7268  0.4763 -0.6150
   22MOL    C1115593   2.879   3.527   2.108 -0.6163  0.5534  0.1605
   22MOL    C1215594   2.941   3.511   2.249 -0.8022  0.4455 -0.2978
   22MOL    C1315595   3.094   3.473   2.243 -0.2189  0.1509  0.9837
   22MOL    N1415596   3.147   3.444   2.379 -0.3925 -0.0233  0.6624
   22MOL    H1515597   1.872   3.586   2.322  0.2795  1.3448 -1.4967
   22MOL    H1615598   1.932   3.581   2.494  0.9678  1.7356  0.9736
   22MOL    H1715599   2.022   3.785   2.288 -2.8784 -1.1839 -0.2668
   22MOL    H1815600   2.091   3.771   2.440 -2.8436 -0.9894  3.3040
   22MOL    H1915601   2.131   3.547   2.236  1.6229 -0.5158 -0.1296
   22MOL    H2015602   2.181   3.537   2.396  1.6279  0.8583  0.1828
   22MOL    H2115603   2.246   3.761   2.220 -0.7701 -0.2150  0.6594
   22MOL    H2215604   2.323   3.738   2.378 -0.7465  0.1578 -0.5039
   22MOL    H2315605   2.354   3.546   2.141 -0.4303  1.0009 -0.6311
   22MOL    H2415606   2.401   3.497   2.299 -2.2744 -0.3710 -0.1273
   22MOL    H2515607   2.569   3.709   2.284  1.2941 -2.6544  0.8845
   22MOL    H2615608   2.509   3.714   2.115 -2.4957 -0.3496  0.3096
   22MOL    H2715609   2.592   3.501   2.064 -2.1385 -1.0221  1.5053
   22MOL    H2815610   2.654   3.478   2.233  0.0780  0.5025  0.6074
   22MOL    H2915611   2.788   3.695   2.183 -1.5621  0.7467 -0.5785
   22MOL    H3015612   2.745   3.671   2.015  1.3993  3.3113  0.5279
   22MOL    H3115613   2.941   3.587   2.043 -0.4877 -0.1764 -0.3993
   22MOL    H3215614   2.861   3.439   2.046  2.0284  0.6931 -0.8624
   22MOL    H3315615   2.879   3.451   2.315  0.0327  0.0602  0.1503
   22MOL    H3415616   2.944   3.614   2.285 -1.7259  0.2905  0.2432
   22MOL    H3515617   3.148   3.558   2.202  2.1697 -1.2779  1.0795
   22MOL    H3615618   3.101   3.384   2.180 -1.9642  1.4506 -1.1282
   22MOL    H3715619   3.183   3.351   2.388 -0.4641 -0.1394 -0.1806
   22MOL    H3815620   1.823   3.835   2.344 -3.7890  0.6708  0.7683
   22MOL    C3915621   3.177   3.540   2.468 -0.4499  0.5985  0.4416
   22MOL    O4015622   3.163   3.659   2.446 -0.4660 -0.1944  0.1593
   22MOL    C4115623   3.239   3.501   2.598  0.4309 -0.8134 -0.7470
   22MOL    C4215624   3.394   3.498   2.575  0.1264  0.2447 -0.0634
   22MOL    C4315625   3.484   3.506   2.704 -0.7662 -1.1169 -0.6484
   22MOL    C4415626   3.634   3.487   2.692 -0.5378 -0.3378  0.1769
   22MOL    C4515627   3.692   3.362   2.620 -0.2097 -0.0670 -0.1443
   22MOL    C4615628   3.844   3.344   2.633  0.0710 -0.5521 -0.1690
   22MOL    C4715629   3.885   3.205   2.577 -0.4864 -0.5772  0.1098
   22MOL    C4815630   4.035   3.209   2.560 -0.9309 -0.5280 -0.1264
   22MOL    C4915631   4.101   3.074   2.546 -0.1639  0.0147 -0.0730
   22MOL    C5015632   4.049   2.992   2.425 -0.4377  0.3294 -0.0395
   22MOL    C5115633   4.118   2.854   2.411  0.9207 -0.5595 -0.4617
   22MOL    N5215634   4.053   2.768   2.314  0.7658  0.4908  0.0962
   22MOL    H5315635   3.222   3.395   2.616  1.4523 -0.9710 -0.6453
   22MOL    H5415636   3.211   3.560   2.686 -0.6515 -2.5160  0.0628
   22MOL    H5515637   3.426   3.410   2.519  1.5492  0.7789 -0.0962
   22MOL    H5615638   3.422   3.593   2.531  1.1579  0.1601  0.4055
   22MOL    H5715639   3.454   3.429   2.775  4.0402  0.5161  3.4525
   22MOL    H5815640   3.464   3.593   2.767 -2.0820  0.4401 -3.1350
   22MOL    H5915641   3.672   3.567   2.627 -0.9189  1.5485  2.2039
   22MOL    H6015642   3.673   3.504   2.792  0.5144  1.7734 -0.5432
   22MOL    H6115643   3.659   3.360   2.516 -2.7919 -1.2503  0.6677
   22MOL    H6215644   3.645   3.274   2.662 -0.3438  0.2902  0.4565
   22MOL    H6315645   3.879   3.340   2.736  0.0872  1.4308 -0.0801
   22MOL    H6415646   3.885   3.430   2.580 -0.7982 -0.7347 -1.1613
   22MOL    H6515647   3.838   3.183   2.481  1.7086 -1.4069 -0.7947
   22MOL    H6615648   3.849   3.130   2.647 -1.2901  1.8046  2.3232
   22MOL    H6715649   4.071   3.265   2.646  0.9812  1.4674 -2.1450
   22MOL    H6815650   4.066   3.273   2.476  1.1822 -0.5539  0.6227
   22MOL    H6915651   4.086   3.012   2.634  1.9847  1.5335  1.4375
   22MOL    H7015652   4.208   3.094   2.537 -0.7337  1.9148 -3.2628
   22MOL    H7115653   4.064   3.051   2.334  0.0447 -1.9462 -1.4790
   22MOL    H7215654   3.940   2.984   2.430 -0.4174 -1.2946 -1.7749
   22MOL    H7315655   4.114   2.806   2.509  0.5232  1.5054  0.5475
   22MOL    H7415656   4.219   2.870   2.376  0.8128 -0.1122 -0.5636
   22MOL    H7515657   4.062   2.789   2.216 -3.8511 -0.0529 -0.5325
   22MOL    C7615658   3.993   2.651   2.344 -0.1563  0.2537  0.1956
   22MOL    O7715659   3.972   2.614   2.459  0.1231 -0.4575 -0.7140
   22MOL    C7815660   3.957   2.567   2.219  0.2350  0.1186  0.2161
   22MOL    C7915661   3.971   2.413   2.243 -0.9648 -0.1053  0.1627
   22MOL    C8015662   4.120   2.369   2.247  0.1242 -0.0995 -0.0130
   22MOL    C8115663   4.146   2.234   2.323  0.3155  0.4786  0.4215
   22MOL    C8215664   4.188   2.254   2.472  0.2055  0.2216  0.3895
   22MOL    C8315665   4.236   2.120   2.532  0.0695  0.1830  0.1722
   22MOL    C8415666   4.281   2.131   2.687 -0.4413 -0.1070 -0.0075
   22MOL    C8515667   4.320   1.998   2.750 -0.0212  0.3295  0.8905
   22MOL    C8615668   4.315   2.010   2.901  0.0504  0.2651  0.2835
   22MOL    C8715669   4.423   2.108   2.946 -0.4935 -0.0280 -0.1617
   22MOL    C8815670   4.379   2.157   3.089 -0.1732  0.7556 -0.5337
   22MOL    N8915671   4.456   2.272   3.114  0.6395 -0.4168 -0.6031
   22MOL    H9015672   4.027   2.590   2.139 -0.1407  2.8232  0.6240
   22MOL    H9115673   3.853   2.592   2.196  0.3855  0.4605 -0.0950
   22MOL    H9215674   3.930   2.389   2.341  1.5487  1.7972  1.7437
   22MOL    H9315675   3.919   2.352   2.170  0.6541 -1.4522  0.1080
   22MOL    H9415676   4.187   2.446   2.286  1.4811  0.8501 -3.9876
   22MOL    H9515677   4.144   2.360   2.141 -2.1736  1.4953 -0.7150
   22MOL    H9615678   4.068   2.158   2.322  0.1752  0.6077  1.3001
   22MOL    H9715679   4.233   2.188   2.275  0.2734  0.0357  0.7747
   22MOL    H9815680   4.101   2.299   2.520  0.1500  0.5061  0.0222
   22MOL    H9915681   4.269   2.322   2.495  0.8590 -0.8565  1.3647
   22MOL   H10015682   4.321   2.084   2.474 -1.3047 -2.0584 -0.4942
   22MOL   H10115683   4.151   2.052   2.520 -0.5395  1.3368 -2.3161
   22MOL   H10215684   4.195   2.176   2.736  0.7437  2.3234 -0.1098
   22MOL   H10315685   4.368   2.197   2.696 -0.1365 -0.5574  0.3936
   22MOL   H10415686   4.415   1.959   2.712 -2.0254 -0.5258 -3.6070
   22MOL   H10515687   4.248   1.922   2.717 -1.1827  0.3108  3.3339
   22MOL   H10615688   4.337   1.912   2.943  0.2970 -0.1656 -0.8137
   22MOL   H10715689   4.216   2.038   2.935 -0.1442 -0.3604  0.2254
   22MOL   H10815690   4.441   2.198   2.888 -0.3279  1.2603  1.8401
   22MOL   H10915691   4.523   2.065   2.945 -0.8841 -1.0887  1.8324
   22MOL   H11015692   4.402   2.075   3.157 -1.1941  2.0813  1.4507
   22MOL   H11115693   4.272   2.176   3.100 -0.8271 -0.7959 -3.6124
   22MOL   H11215694   4.536   2.281   3.054 -0.4805  1.1356 -1.9249
   22MOL   C11315695   4.431   2.365   3.211  0.1018  0.2550  0.0309
   22MOL   O11415696   4.343   2.357   3.296  0.4060  0.1413 -0.2986
   22MOL   C11515697   4.533   2.474   3.225  0.1735 -0.0678 -0.0048
   22MOL   C11615698   4.609   2.478   3.358 -0.2779 -0.6827  0.2345
   22MOL   C11715699   4.716   2.367   3.386 -0.3378 -0.4318  0.2132
   22MOL   C11815700   4.852   2.403   3.328  0.1109  0.8324 -0.6530
   22MOL   C11915701   4.947   2.289   3.352  0.0665 -0.0170  0.4802
   22MOL   C12015702   5.094   2.328   3.314  0.3039 -0.2979  0.5613
   22MOL   C12115703   5.201   2.237   3.376  0.2375  0.1344 -0.3443
   22MOL   C12215704   5.209   2.092   3.331 -0.6156  0.1437  0.6279
   22MOL   C12315705   5.316   2.019   3.411  0.2456  0.5112 -0.3635
   22MOL   C12415706   5.338   1.874   3.352  0.0708 -0.2851  0.2733
   22MOL   C12515707   5.460   1.804   3.402  0.0787  0.1059  0.0199
   22MOL   N12615708   5.464   1.665   3.357  0.2418  0.0735  0.2492
   22MOL   H12715709   4.478   2.566   3.207 -1.9890 -0.7078  2.8038
   22MOL   H12815710   4.597   2.468   3.137 -1.4565 -0.6662 -1.1728
   22MOL   H12915711   4.653   2.578   3.369  2.0804 -1.7106  0.5219
   22MOL   H13015712   4.550   2.467   3.449  1.1116  0.1555  1.2570
   22MOL   H13115713   4.677   2.268   3.366 -0.1434 -0.6967  1.1567
   22MOL   H13215714   4.736   2.369   3.493 -2.0982 -1.2349  0.5644
   22MOL   H13315715   4.835   2.420   3.222 -1.9144  0.6419 -0.3840
   22MOL   H13415716   4.894   2.491   3.376  1.2485 -1.0521  1.9984
   22MOL   H13515717   4.917   2.199   3.299  0.2773  0.9942 -1.4035
   22MOL   H13615718   4.951   2.261   3.457 -1.4802 -2.5557 -0.1056
   22MOL   H13715719   5.115   2.430   3.347  1.8314 -0.3600 -0.1621
   22MOL   H13815720   5.114   2.331   3.207  0.1641 -0.6031  0.5254
   22MOL   H13915721   5.196   2.251   3.484  0.5129  1.2400 -0.4663
   22MOL   H14015722   5.298   2.284   3.360  1.8708 -2.6041  1.0364
   22MOL   H14115723   5.243   2.087   3.228 -2.1538 -2.6977  0.2225
   22MOL   H14215724   5.122   2.028   3.340  1.3080 -2.8713 -1.1465
   22MOL   H14315725   5.279   2.009   3.513  0.7241  0.6308 -0.1794
   22MOL   H14415726   5.408   2.076   3.401 -1.0314  2.8403  0.7445
   22MOL   H14515727   5.355   1.884   3.245  0.0513 -1.3253  0.1646
   22MOL   H14615728   5.247   1.816   3.369  1.3308 -1.8963  1.7726
   22MOL   H14715729   5.459   1.791   3.510  2.3056  0.1747  0.0639
   22MOL   H14815730   5.552   1.857   3.382 -1.0954  1.9164 -0.7135
   22MOL   H14915731   5.416   1.591   3.407  1.8121 -0.4664  1.0030
   22MOL   C15015732   5.535   1.619   3.256  0.1864  0.1462 -0.5854
   22MOL   O15115733   5.577   1.696   3.166  0.5772 -0.4457  0.3685
   22MOL   C15215734   5.548   1.473   3.242 -0.0208 -0.2098 -0.7467
   22MOL   C15315735   5.589   1.423   3.099  0.0106  0.2408  0.5481
   22MOL   C15415736   5.475   1.428   2.996  0.6243  0.0422 -0.1759
   22MOL   C15515737   5.492   1.331   2.876  0.6366  0.1759 -0.0205
   22MOL   C15615738   5.378   1.324   2.783  0.2008  0.4360  0.1628
   22MOL   C15715739   5.400   1.214   2.680 -0.0347  0.2483 -0.1702
   22MOL   C15815740   5.312   1.242   2.551 -0.1099  0.6444 -0.3562
   22MOL   C15915741   5.341   1.146   2.432 -0.1637 -0.0768  0.1798
   22MOL   C16015742   5.266   1.186   2.306 -0.1546 -0.0722  0.6335
   22MOL   C16115743   5.335   1.286   2.217 -0.5539 -0.0905  0.0470
   22MOL   C16215744   5.244   1.343   2.104  0.0633  0.0385 -0.3764
   22MOL   N16315745   5.196   1.249   1.999 -0.1836 -0.0224 -0.6454
   22MOL   H16415746   5.459   1.415   3.265  0.3536 -1.1498 -1.6608
   22MOL   H16515747   5.620   1.437   3.316  0.3592 -0.0423 -1.0271
   22MOL   H16615748   5.674   1.479   3.060 -0.8147  2.4371  1.8252
   22MOL   H16715749   5.620   1.320   3.115  1.9191  0.8282  0.8223
   22MOL   H16815750   5.461   1.527   2.954 -2.4409  0.3573  1.4362
   22MOL   H16915751   5.379   1.398   3.039  1.1137 -0.4035  0.6245
   22MOL   H17015752   5.586   1.355   2.825  0.0646 -1.9935 -2.2080
   22MOL   H17115753   5.515   1.230   2.910  2.4061  0.2926 -0.7727
   22MOL   H17215754   5.375   1.418   2.729  0.2466  0.2475 -0.1677
   22MOL   H17315755   5.277   1.323   2.823 -0.0166 -0.2245 -0.3936
   22MOL   H17415756   5.389   1.117   2.728  1.9232 -0.4314 -1.0198
   22MOL   H17515757   5.505   1.203   2.652  0.0335 -0.4372  0.3364
   22MOL   H17615758   5.311   1.349   2.526 -0.5238  1.1479  1.7444
   22MOL   H17715759   5.208   1.227   2.579  0.0759  1.7230  0.9843
   22MOL   H17815760   5.312   1.050   2.473 -1.3306  0.6554  1.1074
   22MOL   H17915761   5.444   1.134   2.398 -0.8126  2.8166 -3.1028
   22MOL   H18015762   5.165   1.224   2.326 -0.3850 -0.7959  0.8585
   22MOL   H18115763   5.268   1.093   2.250 -1.2118 -0.2427  0.8538
   22MOL   H18215764   5.419   1.237   2.167 -0.5066  2.5613 -2.5443
   22MOL   H18315765   5.370   1.375   2.270  0.7906 -0.7751  0.3486
   22MOL   H18415766   5.299   1.422   2.053  0.0053  0.7604  0.6680
   22MOL   H18515767   5.157   1.384   2.155 -0.2090  0.3254 -1.0610
   22MOL   H18615768   5.106   1.205   2.013 -0.1814 -0.7520 -2.7400
   22MOL   C18715769   5.260   1.209   1.889 -0.5760 -0.0200 -0.2432
   22MOL   O18815770   5.379   1.249   1.866 -0.7942 -0.1795  0.5662
   22MOL   C18915771   5.186   1.089   1.821 -0.3816  0.5985  0.8150
   22MOL   C19015772   5.196   1.094   1.670 -0.3160 -0.3091  0.2018
   22MOL   C19115773   5.131   0.988   1.584  0.3575 -0.2404 -0.1889
   22MOL   C19215774   4.980   1.026   1.567  0.3601 -0.0966  0.3363
   22MOL   C19315775   4.903   0.918   1.491  0.4380 -0.6551  0.0551
   22MOL   C19415776   4.761   0.965   1.449  0.4309 -0.0809 -0.0939
   22MOL   C19515777   4.667   1.026   1.555 -0.3401 -0.2114 -0.2005
   22MOL   C19615778   4.529   1.061   1.500  0.3982 -0.3991 -0.1025
   22MOL   C19715779   4.443   1.158   1.587 -0.3022  0.6474  0.2674
   22MOL   C19815780   4.516   1.291   1.603 -0.6113 -0.2732  0.8278
   22MOL   C19915781   4.424   1.416   1.589  0.1606 -0.6139  0.2343
   22MOL   N20015782   4.497   1.534   1.548  0.1581  0.4825 -0.1255
   22MOL   H20115783   5.081   1.089   1.850 -0.5292 -0.9916  0.3423
   22MOL   H20215784   5.233   0.998   1.859  1.4375  0.9314 -0.5958
   22MOL   H20315785   5.160   1.193   1.641  0.3044  0.5543  2.2722
   22MOL   H20415786   5.303   1.105   1.654  0.0649  0.3441  2.8322
   22MOL   H20515787   5.151   0.885   1.614 -1.2480  0.2526  2.7378
   22MOL   H20615788   5.181   0.986   1.487 -1.1687  1.6232 -1.0485
   22MOL   H20715789   4.920   1.032   1.658 -1.7759 -0.7608 -0.9941
   22MOL   H20815790   4.964   1.117   1.508  0.1958 -0.4404 -0.1566
   22MOL   H20915791   4.895   0.833   1.560  1.3053 -2.3028 -1.8278
   22MOL   H21015792   4.957   0.873   1.408 -0.5682 -1.6870 -0.0595
   22MOL   H21115793   4.704   0.885   1.402 -0.2758 -0.6653  1.6982
   22MOL   H21215794   4.771   1.038   1.368 -0.4340 -1.8962 -1.8708
   22MOL   H21315795   4.713   1.116   1.595 -0.1040 -0.6649  0.5467
   22MOL   H21415796   4.658   0.957   1.638 -0.6775 -0.8494 -0.7630
   22MOL   H21515797   4.483   0.964   1.484 -0.5965 -0.3234  2.1705
   22MOL   H21615798   4.536   1.100   1.398  1.8305  0.1390  0.1892
   22MOL   H21715799   4.412   1.120   1.685  0.2743 -0.1313  0.1474
   22MOL   H21815800   4.351   1.175   1.531 -0.5040  0.5491  0.5631
   22MOL   H21915801   4.586   1.298   1.519 -2.0149 -0.5526 -0.3930
   22MOL   H22015802   4.592   1.284   1.681 -1.3016 -1.2140  1.4201
   22MOL   H22115803   4.366   1.439   1.678  0.7474 -0.3522  0.5511
   22MOL   H22215804   4.347   1.395   1.515 -0.1608  0.1331  0.3472
   22MOL   H22315805   4.503   1.543   1.448 -0.7107 -0.6578 -0.2872
   22MOL   C22415806   4.556   1.628   1.628  0.0223  0.2294  0.9483
   22MOL   O22515807   4.566   1.609   1.750 -0.1888 -0.4932 -0.1715
   22MOL   C22615808   4.594   1.767   1.562 -0.4691  0.1263  0.2874
   22MOL   C22715809   4.720   1.842   1.617  0.2540  0.7075  0.4952
   22MOL   C22815810   4.853   1.774   1.588  0.2620 -0.3265 -0.1199
   22MOL   C22915811   4.953   1.808   1.700  0.0575  0.5517 -0.4590
   22MOL   C23015812   5.088   1.759   1.675  0.0988 -0.1369  0.8480
   22MOL   C23115813   5.188   1.785   1.780  0.5742 -0.0005  0.7633
   22MOL   C23215814   5.341   1.762   1.741 -0.1776 -0.0621  0.0753
   22MOL   C23315815   5.365   1.624   1.690  0.1958 -0.8225 -0.0568
   22MOL   C23415816   5.513   1.583   1.697  0.7103 -1.0930 -0.3761
   22MOL   C23515817   5.544   1.444   1.627  0.7374  0.4399  0.1059
   22MOL   C23615818   5.669   1.361   1.665  0.0296 -0.0144 -0.0437
   22MOL   N23715819   5.653   1.322   1.809 -0.4043 -0.6362 -0.4504
   22MOL   H23815820   4.504   1.827   1.571  0.1199  1.2143 -0.9195
   22MOL   H23915821   4.613   1.748   1.456  0.4271 -0.3501  0.5258
   22MOL   H24015822   4.720   1.949   1.594 -0.5764  0.8563  1.1532
   22MOL   H24115823   4.709   1.847   1.726  0.9707  2.6264  0.5012
   22MOL   H24215824   4.896   1.824   1.501 -0.5419  1.0695  0.2772
   22MOL   H24315825   4.848   1.666   1.576  1.9225 -0.3946 -0.3984
   22MOL   H24415826   4.951   1.916   1.714 -2.7791  0.4461  0.3465
   22MOL   H24515827   4.921   1.772   1.798  0.1747  0.6034 -0.4016
   22MOL   H24615828   5.120   1.797   1.578  0.9737 -1.2701  0.6794
   22MOL   H24715829   5.077   1.651   1.662  2.0326 -0.2573 -0.1380
   22MOL   H24815830   5.171   1.725   1.869  0.4137  1.3768  1.6785
   22MOL   H24915831   5.170   1.889   1.807 -2.1646 -0.2826  0.2082
   22MOL   H25015832   5.396   1.794   1.830 -0.5056 -0.0164  0.2628
   22MOL   H25115833   5.391   1.826   1.669  1.0375  0.2969  1.2113
   22MOL   H25215834   5.318   1.610   1.592  0.0634  3.6569 -0.7554
   22MOL   H25315835   5.300   1.562   1.752 -0.2891  0.7660  1.0427
   22MOL   H25415836   5.534   1.566   1.802 -0.8001  0.1467  0.1409
   22MOL   H25515837   5.576   1.662   1.657 -2.1823  1.4619 -0.0648
   22MOL   H25615838   5.543   1.456   1.518 -0.8994  0.3626  0.1030
   22MOL   H25715839   5.457   1.380   1.635 -0.7279  2.4438  0.5654
   22MOL   H25815840   5.766   1.407   1.645  0.1047 -0.7990 -1.5967
   22MOL   H25915841   5.669   1.265   1.613 -4.2022  0.6914 -1.5726
   22MOL   H26015842   5.567   1.277   1.835  1.1990 -2.9631  0.9260
   22MOL   C26115843   5.740   1.356   1.910 -0.9534 -0.2646 -0.2491
   22MOL   O26215844   5.854   1.409   1.901 -0.4406 -0.0190  0.6390
   22MOL   C26315845   5.691   1.328   2.050 -0.4139  0.3656 -0.0774
   22MOL   C26415846   5.651   1.448   2.143  0.0986  0.3776 -0.7889
   22MOL   C26515847   5.648   1.410   2.289  0.2961 -0.7552  0.0713
   22MOL   C26615848   5.785   1.389   2.360  1.1708 -0.2810 -0.2500
   22MOL   C26715849   5.756   1.327   2.502  0.2200 -0.4036  0.8213
   22MOL   C26815850   5.877   1.308   2.601 -0.0430 -0.0751  0.4862
   22MOL   C26915851   5.832   1.200   2.704 -0.1207  0.3114  0.0028
   22MOL   C27015852   5.927   1.168   2.818  0.0421  0.1952 -0.0583
   22MOL   C27115853   5.851   1.109   2.942 -0.0808 -0.2662  0.0214
   22MOL   C27215854   5.941   1.106   3.067 -0.2895 -0.3248 -0.4826
   22MOL   C27315855   5.893   1.001   3.174  0.3766  0.5577 -0.1055
   22MOL   N27415856   5.771   1.046   3.235  0.2238 -0.2835 -0.1348
   22MOL   H27515857   5.779   1.285   2.097 -0.6086  0.0772  0.0264
   22MOL   H27615858   5.604   1.262   2.048  0.6260 -1.0012 -1.3259
   22MOL   H27715859   5.720   1.531   2.130 -0.2171  1.0477  1.6402
   22MOL   H27815860   5.555   1.492   2.115  0.8254  0.5777 -3.0559
   22MOL   H27915861   5.598   1.314   2.301 -1.0251 -0.1498 -0.4714
   22MOL   H28015862   5.582   1.483   2.338 -1.4778 -2.6064  0.5156
   22MOL   H28115863   5.841   1.316   2.301  1.4564 -0.3993  0.1618
   22MOL   H28215864   5.832   1.487   2.358 -1.1815  0.8848  0.0933
   22MOL   H28315865   5.709   1.231   2.483  0.0002  0.0863 -1.1647
   22MOL   H28415866   5.677   1.383   2.552 -1.0000  1.0470 -2.6457
   22MOL   H28515867   5.897   1.400   2.656 -0.9185  0.4097  0.0139
   22MOL   H28615868   5.969   1.273   2.553  1.9930  2.5887  2.3100
   22MOL   H28715869   5.807   1.111   2.646  1.6047 -0.1958  0.0146
   22MOL   H28815870   5.733   1.233   2.737 -0.9527 -0.2585 -1.8535
   22MOL   H28915871   5.970   1.263   2.848 -0.2153  0.7218 -1.3300
   22MOL   H29015872   6.013   1.108   2.788 -0.4338  0.3322 -1.7341
   22MOL   H29115873   5.816   1.008   2.922 -1.2097  0.3747 -1.2676
   22MOL   H29215874   5.764   1.172   2.962  0.6634  1.2143 -1.2724
   22MOL   H29315875   5.963   1.208   3.100  0.6442  0.1719 -2.5986
   22MOL   H29415876   6.038   1.071   3.033 -1.0053  0.0313 -3.0292
   22MOL   H29515877   5.960   1.005   3.260  1.2576  0.3175 -0.7735
   22MOL   H29615878   5.880   0.898   3.140 -3.0849  0.2703  1.8879
   22MOL   H29715879   5.779   1.123   3.300  1.4576 -1.6625  1.3896
   22MOL   C29815880   5.653   0.992   3.221  0.0565  0.8062  0.0823
   22MOL   O29915881   5.628   0.899   3.147 -0.6958 -0.2069  0.3567
   22MOL   C30015882   5.540   1.073   3.289 -0.4358 -0.1108 -0.2196
   22MOL   C30115883   5.401   0.996   3.282 -0.1019  0.3001  0.1074
   22MOL   C30215884   5.317   1.002   3.159  0.1293 -0.1835 -0.6466
   22MOL   C30315885   5.191   0.918   3.199 -0.7599 -0.2863  0.0699
   22MOL   C30415886   5.104   0.899   3.071  0.3041 -0.1017 -0.0873
   22MOL   C30515887   4.991   0.794   3.076  0.6993  0.2240 -0.6803
   22MOL   C30615888   4.962   0.742   2.932 -0.3593  0.8698 -0.4851
   22MOL   C30715889   4.834   0.654   2.919 -0.5889 -0.6534 -0.3949
   22MOL   C30815890   4.793   0.651   2.770  0.1926  0.2846 -0.1734
   22MOL   C30915891   4.875   0.558   2.679 -0.2735 -0.1996 -0.1584
   22MOL   C31015892   4.822   0.552   2.538  0.2442  0.0561 -0.0158
   22MOL   N31115893   4.896   0.465   2.443  0.1746 -0.0487 -0.3712
   22MOL   H31215894   5.526   1.169   3.240  0.5978 -0.8529 -2.0140
   22MOL   H31315895   5.569   1.089   3.393 -0.2931  2.6757 -0.6489
   22MOL   H31415896   5.417   0.889   3.299  0.0339 -0.2321 -3.1091
   22MOL   H31515897   5.342   1.029   3.367  0.7520 -0.7410  1.1304
   22MOL   H31615898   5.368   0.950   3.078  2.8646 -0.7143  1.3748
   22MOL   H31715899   5.289   1.105   3.137  2.4232  0.4308 -0.7512
   22MOL   H31815900   5.231   0.823   3.234  0.2884  0.0736 -0.1216
   22MOL   H31915901   5.134   0.966   3.278 -2.0740 -1.3299 -0.2262
   22MOL   H32015902   5.159   0.879   2.979  0.3289  0.7910 -0.2798
   22MOL   H32115903   5.053   0.994   3.055  1.7794  0.6983 -0.1372
   22MOL   H32215904   4.901   0.833   3.125  1.0743  1.2757 -0.8128
   22MOL   H32315905   5.021   0.711   3.140  0.0575  0.2818 -0.3010
   22MOL   H32415906   5.058   0.698   2.906 -1.1546 -1.1004 -0.1344
   22MOL   H32515907   4.953   0.834   2.873 -0.6285  2.6019  2.1582
   22MOL   H32615908   4.760   0.705   2.981 -0.0078  0.2268 -0.4106
   22MOL   H32715909   4.842   0.553   2.960 -3.8440 -0.1080  1.7392
   22MOL   H32815910   4.787   0.752   2.731 -2.2511  0.5760  0.8744
   22MOL   H32915911   4.691   0.611   2.774 -0.0148  0.9477  2.9025
   22MOL   H33015912   4.881   0.461   2.727 -1.2814 -1.4530 -2.4889
   22MOL   H33115913   4.976   0.601   2.680 -1.2118  2.0499  2.9187
   22MOL   H33215914   4.811   0.653   2.496  0.5799  0.2299  0.3161
   22MOL   H33315915   4.723   0.507   2.542  0.9108 -1.3035  1.2149
   22MOL   H33415916   4.973   0.411   2.479  0.0785 -1.2550 -1.9114
   22MOL   C33515917   4.898   0.482   2.310  0.6091  0.2533 -0.3238
   22MOL   O33615918   4.827   0.560   2.252 -0.1241 -0.2891 -0.6432
   22MOL   C33715919   5.011   0.413   2.242 -0.9530 -0.2274 -0.3560
   22MOL   C33815920   5.038   0.436   2.088 -0.4605  0.7137 -0.1565
   22MOL   C33915921   4.926   0.372   1.999  0.1085 -0.4904 -0.4544
   22MOL   C34015922   4.926   0.441   1.862  0.3165  0.1883 -0.3290
   22MOL   C34115923   5.040   0.415   1.775 -0.2793 -0.9754 -0.0184
   22MOL   C34215924   5.007   0.458   1.633 -0.3847 -0.6175  0.0679
   22MOL   C34315925   5.130   0.446   1.535 -0.8639  0.2448  0.8527
   22MOL   C34415926   5.218   0.570   1.550  0.1567 -0.6304  0.0305
   22MOL   C34515927   5.337   0.562   1.453  0.9815 -0.3596  0.6731
   22MOL   C34615928   5.419   0.434   1.433  0.0152 -0.2855  0.1911
   22MOL   C34715929   5.537   0.439   1.331  0.3691  0.5605  0.2988
   22MOL   N34815930   5.624   0.325   1.344  0.5814 -0.5593 -0.0102
   22MOL   H34915931   4.975   0.310   2.249 -3.3123  0.4975 -1.1132
   22MOL   H35015932   5.101   0.429   2.301 -1.5269  0.3619  0.3790
   22MOL   H35115933   5.065   0.536   2.053  0.2550  1.6729  2.9817
   22MOL   H35215934   5.131   0.393   2.050 -1.6715 -1.3420 -0.8977
   22MOL   H35315935   4.828   0.378   2.047  2.0000 -1.5294  3.8538
   22MOL   H35415936   4.952   0.268   1.976 -1.4205 -0.8611 -0.5741
   22MOL   H35515937   4.839   0.394   1.818 -0.1722  0.2292  0.5707
   22MOL   H35615938   4.900   0.546   1.872  0.3244  0.0861  0.8960
   22MOL   H35715939   5.069   0.312   1.797  1.2543 -0.3024  1.2556
   22MOL   H35815940   5.110   0.485   1.822 -0.6215 -0.7072  0.0926
   22MOL   H35915941   4.960   0.557   1.633 -0.0006 -0.4339 -0.1656
   22MOL   H36015942   4.932   0.387   1.601  1.4290 -1.4526 -2.4630
   22MOL   H36115943   5.100   0.447   1.430 -0.6452  0.7987  0.7880
   22MOL   H36215944   5.183   0.356   1.566 -1.0673 -0.1118  0.1695
   22MOL   H36315945   5.253   0.574   1.654  0.0507  1.4135  0.0073
   22MOL   H36415946   5.159   0.660   1.539 -0.2249 -1.0651 -1.5365
   22MOL   H36515947   5.400   0.648   1.471  0.1775  0.2512  0.6166
   22MOL   H36615948   5.293   0.591   1.358 -0.8437  1.2518  1.9588
   22MOL   H36715949   5.360   0.345   1.412 -0.6601  0.1333  0.2987
   22MOL   H36815950   5.455   0.403   1.531  0.3377  0.0827  0.1898
   22MOL   H36915951   5.602   0.523   1.355 -2.0215  1.9181  2.2353
   22MOL   H37015952   5.489   0.436   1.233  0.3630 -0.6102  0.3294
   22MOL   H37115953   5.671   0.323   1.434 -1.4872 -0.2579  1.1171
   22MOL   C37215954   5.653   0.222   1.257  0.1477 -0.0082  0.3934
   22MOL   O37315955   5.608   0.220   1.143 -0.4280 -0.1253  0.3894
   22MOL   C37415956   5.742   0.107   1.303 -0.0079 -0.8726 -0.1176
   22MOL   C37515957   5.664   7.692   1.388  0.5296 -0.1321 -0.1650
   22MOL   C37615958   5.551   7.616   1.312  0.3871  0.7284 -0.0406
   22MOL   C37715959   5.604   7.525   1.203 -0.4475  0.2500  0.6453
   22MOL   C37815960   5.503   7.448   1.122  0.5283 -0.0249  0.4056
   22MOL   C37915961   5.560   7.368   1.000 -0.1587  0.5365 -0.3085
   22MOL   C38015962   5.447   7.302   0.916  0.3990  0.6173  0.1206
   22MOL   C38115963   5.480   7.197   0.813 -0.3833 -0.1741 -0.0341
   22MOL   C38215964   5.519   7.243   0.675 -0.8253  0.1735 -0.0205
   22MOL   C38315965   5.540   7.124   0.582 -0.0846  0.0853  0.6141
   22MOL   C38415966   5.571   7.147   0.436 -0.1293 -0.2083  0.4789
   22MOL   N38515967   5.476   7.232   0.369 -0.4665  0.2203  0.2572
   22MOL   H38615968   5.818   0.153   1.366 -4.0791  4.2925  1.3615
   22MOL   H38715969   5.796   0.062   1.219  1.0072  2.2462 -1.1905
   22MOL   H38815970   5.732   7.626   1.441 -0.6591 -0.5753  0.8327
   22MOL   H38915971   5.610   0.054   1.465  0.6473 -1.6463  1.0452
   22MOL   H39015972   5.483   7.682   1.259  1.1281  1.6506  0.1511
   22MOL   H39115973   5.483   7.561   1.378  1.1152  1.2684  1.1907
   22MOL   H39215974   5.662   7.587   1.134  1.8600 -1.1371  1.2798
   22MOL   H39315975   5.683   7.456   1.234 -0.7776 -0.8386 -0.8892
   22MOL   H39415976   5.434   7.523   1.081  0.6693  0.5074  1.1353
   22MOL   H39515977   5.448   7.382   1.189  1.3106 -0.5304  0.5501
   22MOL   H39615978   5.632   7.291   1.030  0.6053  1.3753  0.0470
   22MOL   H39715979   5.610   7.442   0.938  0.3514 -0.1721 -0.7574
   22MOL   H39815980   5.379   7.375   0.872 -1.6814 -0.1367  2.0228
   22MOL   H39915981   5.388   7.251   0.992  2.5798 -1.5118  0.4726
   22MOL   H40015982   5.393   7.134   0.797 -0.4716 -0.1564  0.3780
   22MOL   H40115983   5.563   7.134   0.844 -1.6262 -0.3002  3.2628
   22MOL   H40215984   5.610   7.303   0.672 -1.4017  1.0784  0.3134
   22MOL   H40315985   5.437   7.307   0.644  0.4555  2.0767  0.4487
   22MOL   H40415986   5.457   7.054   0.585  0.4934 -0.6492  0.0457
   22MOL   H40515987   5.619   7.059   0.619  0.4602 -0.6991 -1.8116
   22MOL   H40615988   5.580   7.059   0.373 -0.2269  0.5580 -0.6159
   22MOL   H40715989   5.669   7.194   0.445  0.0620 -0.3489 -0.7645
   22MOL   H40815990   5.416   7.183   0.303  1.1264 -1.6321  0.1132
   22MOL   C40915991   5.475   7.367   0.365  0.0504 -0.3949  0.0074
   22MOL   O41015992   5.552   7.445   0.422 -0.0722 -0.3406 -0.7039
   22MOL   C41115993   5.378   7.426   0.260  0.3241  0.3540  0.3368
   22MOL   C41215994   5.455   7.489   0.139  0.0363 -0.9207  0.6237
   22MOL   C41315995   5.489   7.645   0.156  0.2911  1.5577 -0.1460
   22MOL   C41415996   5.566   7.684   0.034  0.0291 -0.9354 -0.0543
   22MOL   C41515997   5.650   0.114   0.063 -0.2699  0.0868 -0.6174
   22MOL   C41615998   5.727   0.155   7.632  0.0207 -0.4445  0.7481
   22MOL   C41715999   5.827   0.268   7.647 -0.2384  0.7410  0.1598
   22MOL   C41816000   5.894   0.318   7.516  0.2497  0.3219 -0.3511
   22MOL   C41916001   6.011   0.427   7.546 -0.0920 -0.3269  0.5165
   22MOL   C42016002   6.066   0.476   7.409 -0.3793  0.6781  0.6943
   22MOL   C42116003   6.152   0.610   7.406 -0.6526 -0.8887  0.3898
   22MOL   N42216004   6.286   0.588   7.442  0.8030 -0.5390 -0.5338
   22MOL   H42316005   5.296   7.484   0.302 -0.7988  1.2130 -2.9016
   22MOL   H42416006   5.322   7.343   0.217 -0.1223  0.6944  0.2505
   22MOL   H42516007   5.547   7.431   0.131  2.2013  2.6747 -1.6913
   22MOL   H42616008   5.413   7.480   0.038  0.3174  0.1372  0.4107
   22MOL   H42716009   5.544   7.663   0.248 -2.3101 -0.0528  1.8081
   22MOL   H42816010   5.409   0.025   0.155 -1.0146  0.1750 -1.4124
   22MOL   H42916011   5.628   7.599   0.003 -1.4661 -1.5323 -1.4989
   22MOL   H43016012   5.504   0.019   7.643  0.1864 -0.0147  0.1465
   22MOL   H43116013   5.717   0.092   0.146 -1.8136  0.0663  0.6259
   22MOL   H43216014   5.598   0.204   0.095 -0.0815  0.2246 -0.6976
   22MOL   H43316015   5.656   0.165   7.550  1.9052 -1.8387 -1.1456
   22MOL   H43416016   5.788   0.073   7.594  1.1641  0.7770 -0.1569
   22MOL   H43516017   5.912   0.234   0.011 -1.4444 -0.6648  1.1392
   22MOL   H43616018   5.774   0.348   0.005  0.3365  1.1884  0.0650
   22MOL   H43716019   5.812   0.349   7.451 -0.8790  0.3305  1.0462
   22MOL   H43816020   5.948   0.234   7.472  0.3279  0.3189 -0.2511
   22MOL   H43916021   6.095   0.376   7.593  1.7284  0.2682 -2.0233
   22MOL   H44016022   5.981   0.517   7.599  0.9978  1.1275 -1.2821
   22MOL   H44116023   5.982   0.499   7.342  0.2452 -1.3782 -0.8547
   22MOL   H44216024   6.111   0.391   7.358  0.5206  3.0923 -2.6968
   22MOL   H44316025   6.105   0.682   7.473 -1.0200 -0.9857  0.2421
   22MOL   H44416026   6.144   0.650   7.304 -1.9836  0.3517  0.9610
   22MOL   H44516027   6.312   0.514   7.505 -1.6135 -0.7355  0.2711
   22MOL   C44616028   6.373   0.692   7.439  0.1186 -0.2908  0.3367
   22MOL   O44716029   6.341   0.802   7.389 -0.5093 -0.4507  0.2525
   22MOL   C44816030   6.519   0.672   7.490 -0.0898  0.0684 -0.5618
   22MOL   C44916031   6.526   0.713   7.641 -0.6392  0.8191 -0.4023
   22MOL   C45016032   6.656   0.776   7.684  0.5833 -0.3201  0.6170
   22MOL   C45116033   6.787   0.696   7.668  0.7740  0.0396  0.0341
   22MOL   C45216034   6.900   0.743   0.066  0.4942 -0.3853  0.3675
   22MOL   C45316035   7.039   0.682   0.038 -0.5920 -0.7654 -0.1961
   22MOL   C45416036   7.132   0.674   0.156  0.1799  0.5877  0.1024
   22MOL   C45516037   7.286   0.666   0.131 -0.0448  0.0749  0.3412
   22MOL   C45616038   7.361   0.698   0.257  0.8701 -0.0968  0.2241
   22MOL   C45716039   7.518   0.661   0.239  0.5909  0.6612  0.2193
   22MOL   C45816040   7.606   0.688   0.364  1.0024 -0.1823 -0.0585
   22MOL   N45916041   0.051   0.644   0.351  0.0277  0.0008  0.6542
   22MOL   H46016042   6.576   0.731   7.418  0.6593 -1.3861 -1.1914
   22MOL   H46116043   6.548   0.567   7.482 -1.7197 -0.3597 -1.2145
   22MOL   H46216044   6.449   0.790   7.655 -1.8902 -0.9994  3.7310
   22MOL   H46316045   6.493   0.632   0.013  0.0674  0.2850 -0.6992
   22MOL   H46416046   6.645   0.795   0.097 -0.0476 -1.9609  0.8633
   22MOL   H46516047   6.673   0.876   7.644 -0.6219 -0.5223 -0.4372
   22MOL   H46616048   6.765   0.595   0.009 -0.0257  0.0451 -0.4400
   22MOL   H46716049   6.834   0.699   7.569 -0.0606  0.2355 -0.3543
   22MOL   H46816050   6.877   0.713   0.169 -0.4225 -1.4432 -0.1440
   22MOL   H46916051   6.910   0.851   0.062 -1.5225 -0.0997  1.9467
   22MOL   H47016052   7.087   0.753   7.664 -0.6724  0.6197  1.1649
   22MOL   H47116053   7.037   0.591   7.672 -1.3141 -0.9487  0.0993
   22MOL   H47216054   7.099   0.595   0.222  0.8230  0.4572  0.2682
   22MOL   H47316055   7.122   0.762   0.219 -0.3886 -0.7951  1.9760
   22MOL   H47416056   7.314   0.728   0.046  0.8372  0.9527  1.2656
   22MOL   H47516057   7.307   0.563   0.102  0.4770 -0.5833  2.8847
   22MOL   H47616058   7.308   0.646   0.337 -1.6711 -3.3733 -3.3623
   22MOL   H47716059   7.368   0.802   0.289  1.7988 -0.6932  2.0385
   22MOL   H47816060   7.561   0.708   0.151  1.8628 -0.7014  0.0939
   22MOL   H47916061   7.519   0.554   0.221 -0.9187  0.9162 -1.5742
   22MOL   H48016062   7.552   0.643   0.448  0.9718 -0.3386 -0.1626
   22MOL   H48116063   7.609   0.796   0.380 -1.2273 -0.2558  1.0705
   22MOL   H48216064   0.118   0.715   0.327  1.9371 -2.1860 -0.7989
   22MOL   C48316065   0.093   0.517   0.328  0.1337  0.1764  0.3040
   22MOL   O48416066   0.026   0.417   0.361  0.1382  0.2785 -0.1591
   22MOL   C48516067   0.233   0.490   0.265  0.0227  0.6006  0.0940
   22MOL   C48616068   0.229   0.468   0.110 -0.1434 -0.7782 -0.3113
   22MOL   C48716069   0.259   0.598   0.029  0.2016 -0.1310  0.0871
   22MOL   C48816070   0.256   0.571   7.566  0.0930  0.0655  0.2060
   22MOL   C48916071   0.120   0.516   7.509  0.1054  0.2681 -0.1625
   22MOL   C49016072   0.007   0.625   7.483  0.1113 -0.2611 -0.1519
   22MOL   C49116073   7.560   0.583   7.422  0.1209 -0.3327  0.4156
   22MOL   C49216074   7.475   0.469   7.486 -0.2882  0.0745 -0.3837
   22MOL   C49316075   7.343   0.443   7.425 -0.2064 -0.0458 -0.1716
   22MOL   C49416076   7.348   0.373   7.283  0.1630 -0.2302 -0.2493
   22MOL   C49516077   7.212   0.299   7.256 -0.4415 -0.2097  0.4167
   22MOL   N49616078   7.184   0.274   7.116  0.4730 -0.1682  0.0340
   22MOL   H49716079   0.260   0.393   0.306 -2.0800  0.3744  0.9881
   22MOL   H49816080   0.307   0.560   0.304 -0.6160  2.0154 -1.1657
   22MOL   H49916081   0.304   0.394   0.083  0.7905 -0.7209  1.9758
   22MOL   H50016082   0.128   0.431   0.090 -1.1620  1.5757  0.2755
   22MOL   H50116083   0.356   0.639   0.055 -0.1968  0.6152  0.4035
   22MOL   H50216084   0.186   0.674   0.056 -1.5189 -1.8303  0.3338
   22MOL   H50316085   0.272   0.665   7.514  3.1849 -0.0196  0.9072
   22MOL   H50416086   0.342   0.505   7.553 -0.9242 -1.2306 -0.0091
   22MOL   H50516087   0.070   0.438   7.566  0.0499  2.4135  2.8152
   22MOL   H50616088   0.138   0.472   7.411 -0.5881  0.5716 -0.4307
   22MOL   H50716089   0.055   0.697   7.417  2.5953 -4.0688 -2.6452
   22MOL   H50816090   7.675   0.669   7.580  2.5797 -0.4124  0.6206
   22MOL   H50916091   7.579   0.537   7.325 -0.8498 -0.1678  0.1392
   22MOL   H51016092   7.494   0.670   7.416 -0.0470 -0.4693  0.3118
   22MOL   H51116093   7.440   0.511   7.581  0.2628 -0.9126  0.2628
   22MOL   H51216094   7.520   0.377   7.523 -2.3958 -0.2923  1.4044
   22MOL   H51316095   7.284   0.534   7.418 -0.5215 -0.1358  1.1205
   22MOL   H51416096   7.290   0.383   7.499  0.6265  1.5561  1.7655
   22MOL   H51516097   7.435   0.308   7.284 -2.1187 -3.3988 -1.0844
   22MOL   H51616098   7.365   0.449   7.206 -1.2338  1.0387  0.6681
   22MOL   H51716099   7.127   0.358   7.292  0.2391  1.5989 -0.8573
   22MOL   H51816100   7.212   0.207   7.314  0.0602  0.3775  1.3668
   22MOL   H51916101   7.241   0.326   7.051  3.5958 -1.6898  1.4221
   22MOL   C52016102   7.098   0.187   7.058 -0.5804 -0.1399  0.4285
   22MOL   O52116103   7.028   0.119   7.126 -0.0217 -0.6426  0.2611
   22MOL   C52216104   7.081   0.189   6.908 -0.3766  0.3164 -1.0852
   22MOL   C52316105   6.946   0.121   6.862 -0.2838 -0.5260  0.8004
   22MOL   C52416106   6.956   7.662   6.854 -0.6024 -0.5729  0.1319
   22MOL   C52516107   6.824   7.596   6.811  0.2860 -0.3960  0.7094
   22MOL   C52616108   6.845   7.447   6.779  0.1992  0.2899  0.4038
   22MOL   C52716109   6.712   7.388   6.746  0.1286  0.1007 -0.9698
   22MOL   C52816110   6.631   7.342   6.869  0.4293  0.6945 -0.1998
   22MOL   C52916111   6.499   7.285   6.821  0.1602 -0.4604  0.0521
   22MOL   C53016112   6.414   7.223   6.934 -0.2122  0.8630 -0.0442
   22MOL   C53116113   6.295   7.122   6.899 -0.3859  0.4333  0.1268
   22MOL   C53216114   6.218   7.061   7.015  0.6452  0.0456 -0.7143
   22MOL   N53316115   6.306   6.967   7.085  0.0923 -0.4492  1.1841
   22MOL   H53416116   7.164   0.161   6.843 -0.1638  0.9574 -1.0978
   22MOL   H53516117   7.069   0.294   6.881 -0.5269  0.2955 -1.0966
   22MOL   H53616118   6.877   0.159   6.937 -0.6621 -1.9127  1.1635
   22MOL   H53716119   6.929   0.151   6.758  3.6115 -2.6388 -0.5600
   22MOL   H53816120   6.977   7.606   6.946  0.3177 -0.7166 -0.1606
   22MOL   H53916121   7.037   7.631   6.788  0.8951 -0.3191  1.7988
   22MOL   H54016122   6.753   7.623   6.889 -1.6989  2.8681 -2.0799
   22MOL   H54116123   6.774   7.643   6.726  1.3808 -3.4978 -1.7707
   22MOL   H54216124   6.904   7.390   6.851  0.6954 -0.3472 -0.5043
   22MOL   H54316125   6.910   7.442   6.692  1.1436  0.2785  1.1023
   22MOL   H54416126   6.728   7.303   6.679  1.0256  0.3310 -1.0391
   22MOL   H54516127   6.648   7.456   6.690  0.4439  0.2450 -1.1490
   22MOL   H54616128   6.609   7.435   6.922 -0.6104  0.5094 -0.2845
   22MOL   H54716129   6.686   7.268   6.927 -2.0241 -1.4952 -0.5655
   22MOL   H54816130   6.521   7.225   6.732  0.4623 -0.9010  0.4216
   22MOL   H54916131   6.452   7.375   6.780  4.4312  1.0055 -1.9615
   22MOL   H55016132   6.386   7.306   6.999 -1.3552  0.7019 -0.3243
   22MOL   H55116133   6.476   7.163   7.001  0.9297  1.1964 -0.7844
   22MOL   H55216134   6.329   7.037   6.839  0.7071  0.0308  1.3108
   22MOL   H55316135   6.224   7.180   6.840 -0.6227  0.3898  0.3708
   22MOL   H55416136   6.128   7.014   6.976  1.2937 -1.5707 -0.3102
   22MOL   H55516137   6.202   7.152   7.072  0.4608 -0.1843 -0.3944
   22MOL   H55616138   6.397   6.950   7.044 -0.0037 -0.6171  1.0430
   22MOL   C55716139   6.271   6.883   7.188 -0.1996  0.0306 -0.1252
   22MOL   O55816140   6.353   6.796   7.223 -0.5581  0.2123 -0.3582
   22MOL   C55916141   6.133   6.902   7.256 -0.6262  0.0164  0.1852
   22MOL   C56016142   6.113   6.818   7.382 -0.2030  0.4733  0.8282
   22MOL   C56116143   5.985   6.840   7.454  0.4896 -0.0778  0.2446
   22MOL   C56216144   5.969   6.775   7.592 -0.0127 -0.5289  0.0897
   22MOL   C56316145   6.050   6.849   0.006 -1.0249 -0.0533  0.6176
   22MOL   C56416146   5.989   6.983   0.050  0.4286 -0.1360 -0.3815
   22MOL   C56516147   6.061   7.056   0.162  0.3170 -0.3769  0.2607
   22MOL   C56616148   5.965   7.158   0.225  0.5204  0.3709 -0.1627
   22MOL   C56716149   6.012   7.302   0.235  0.7364 -0.2202 -0.3310
   22MOL   C56816150   5.902   7.387   0.304  0.5540 -0.8849 -0.4059
   22MOL   C56916151   5.920   7.537   0.305  0.1842 -0.5921 -0.5194
   22MOL   N57016152   5.804   7.588   0.374  0.1405 -0.2756  0.3099
   22MOL   H57116153   6.056   6.862   7.190 -1.0877 -1.3867  1.5508
   22MOL   H57216154   6.097   7.005   7.264  1.0161  0.5398  1.1528
   22MOL   H57316155   6.123   6.712   7.360  1.6738  1.2319 -2.3396
   22MOL   H57416156   6.198   6.844   7.445  0.4604  0.5282 -0.0816
   22MOL   H57516157   5.897   6.812   7.397  0.4135  0.4165  0.1184
   22MOL   H57616158   5.976   6.947   7.472  2.7872 -0.2196  2.5931
   22MOL   H57716159   5.865   6.778   7.623  0.8634  0.0453  3.1851
   22MOL   H57816160   5.992   6.669   7.596  1.1083 -0.2559  1.2517
   22MOL   H57916161   6.154   6.851   7.667 -0.9759  0.0592  0.7819
   22MOL   H58016162   6.057   6.790   0.097 -0.8977 -0.9282  0.0513
   22MOL   H58116163   5.884   6.965   0.072  0.3700  1.7399  0.9588
   22MOL   H58216164   5.996   7.054   7.661  2.6552 -0.0910 -0.1907
   22MOL   H58316165   6.154   7.105   0.132  0.8700  0.3350  3.0658
   22MOL   H58416166   6.088   6.986   0.241 -0.7412 -0.1602  0.8201
   22MOL   H58516167   5.937   7.132   0.327  0.3725 -0.6526 -0.4506
   22MOL   H58616168   5.867   7.153   0.176 -1.0069 -0.3746  2.8678
   22MOL   H58716169   6.024   7.335   0.131 -0.7284  2.3936  0.2829
   22MOL   H58816170   6.098   7.321   0.300 -0.0028  2.8210 -0.1878
   22MOL   H58916171   5.915   7.354   0.407  0.2647  0.9618  0.2494
   22MOL   H59016172   5.803   7.364   0.265 -0.0211  1.4360 -0.3877
   22MOL   H59116173   5.924   7.582   0.206 -1.0777  0.7118  0.0133
   22MOL   H59216174   6.019   7.547   0.350  0.3652 -2.1677 -0.5422
   22MOL   H59316175   5.723   7.531   0.393 -0.5452 -0.4960 -3.0579
   22MOL   C59416176   5.787   0.017   0.422 -0.0813  0.4228 -0.2326
   22MOL   O59516177   5.864   0.111   0.385  0.0478 -0.6448 -0.3424
   22MOL   C59616178   5.659   0.053   0.502 -1.0153 -0.0544 -0.2336
   22MOL   C59716179   5.688   0.075   0.651  0.8179 -0.4377 -0.2481
   22MOL   C59816180   5.777   7.660   0.723 -0.1487  0.0412 -0.2706
   22MOL   C59916181   5.792   0.004   0.873 -0.0105  0.1844 -0.6622
   22MOL   C60016182   5.918   7.638   0.940 -0.1299 -0.1365 -0.4047
   22MOL   C60116183   5.931   7.491   0.955  1.0842  0.7253 -0.3252
   22MOL   C60216184   6.057   7.449   1.031 -0.2924 -0.1685 -0.0884
   22MOL   C60316185   6.036   7.309   1.090  0.3081  0.4491 -0.7979
   22MOL   C60416186   6.152   7.231   1.147  0.3479  0.4022 -0.0102
   22MOL   C60516187   6.232   7.162   1.034  0.4266  1.2194  0.4131
   22MOL   C60616188   6.374   7.120   1.074  0.2791 -0.1470  0.0299
   22MOL   N60716189   6.453   7.078   0.958 -0.3693 -0.3754 -0.0985
   22MOL   H60816190   5.587   7.668   0.477  0.2232 -1.1812 -0.2851
   22MOL   H60916191   5.619   0.144   0.456 -0.7396  1.7798  3.0212
   22MOL   H61016192   5.739   0.170   0.668  4.2384 -1.6377 -3.2006
   22MOL   H61116193   5.592   0.079   0.702  1.3340 -0.6438  0.7586
   22MOL   H61216194   5.878   7.657   0.681 -0.8270  2.4656 -2.2504
   22MOL   H61316195   5.734   7.560   0.728 -0.3160  0.2025  1.6047
   22MOL   H61416196   5.797   0.112   0.880  1.2847  0.3008 -2.8588
   22MOL   H61516197   5.700   7.673   0.926  0.9217  2.1102  1.9613
   22MOL   H61616198   5.914   7.680   1.041  1.5668 -1.1292  0.0899
   22MOL   H61716199   6.003   7.681   0.886  0.8689 -0.7345  0.6690
   22MOL   H61816200   5.927   7.446   0.856 -1.5492  1.9547 -0.8299
   22MOL   H61916201   5.842   7.466   1.013  1.4614 -1.8936 -0.8203
   22MOL   H62016202   6.081   7.523   1.107 -1.0900  2.4493 -2.3136
   22MOL   H62116203   6.143   7.459   0.965 -1.0337  0.0788 -1.0393
   22MOL   H62216204   5.973   7.245   1.028  1.6532  2.0967 -3.9726
   22MOL   H62316205   5.970   7.326   1.175  2.3918  0.0236  0.9393
   22MOL   H62416206   6.116   7.148   1.208  1.6971 -2.4473 -2.9138
   22MOL   H62516207   6.214   7.294   1.210 -0.3946  0.9843  0.1370
   22MOL   H62616208   6.241   7.240   0.959 -1.0074 -0.9578 -2.1033
   22MOL   H62716209   6.179   7.089   0.973 -1.8255  1.7174  1.7107
   22MOL   H62816210   6.372   7.044   1.151  1.3331 -0.1006  0.1094
   22MOL   H62916211   6.421   7.202   1.127 -2.7345  0.5921  1.6738
   22MOL   H63016212   6.430   7.118   0.868  0.0593 -0.5645 -0.2945
   22MOL   C63116213   6.557   6.997   0.958  0.6384  0.2152 -0.2565
   22MOL   O63216214   6.591   6.942   1.063 -0.3196  0.1159 -0.4768
   22MOL   C63316215   6.647   6.973   0.835  0.4323 -0.3072 -0.1579
   22MOL   C63416216   6.733   6.847   0.861 -0.2759  0.3365 -0.4678
   22MOL   C63516217   6.852   6.852   0.958 -0.5780 -0.3381 -0.5178
   22MOL   C63616218   6.960   6.750   0.916 -0.0736 -0.5478 -0.2403
   22MOL   C63716219   6.945   6.610   0.976  0.2595 -0.0315 -0.0046
   22MOL   C63816220   7.079   6.523   0.968  0.2429  0.0443  0.5969
   22MOL   C63916221   7.107   6.465   0.827 -0.0348  0.2892 -0.4851
   22MOL   C64016222   7.237   6.382   0.814  0.4621 -0.8121 -0.1053
   22MOL   C64116223   7.281   6.345   0.672  0.3998  0.2728 -0.6398
   22MOL   C64216224   7.408   6.257   0.665  0.4062  0.2922 -0.4845
   22MOL   C64316225   7.458   6.238   0.517  0.1620  0.0045 -0.0747
   22MOL   N64416226   7.478   6.365   0.445  0.7606 -0.2934 -0.8990
   22MOL   H64516227   6.703   7.061   0.806 -0.1275 -0.5062 -1.9072
   22MOL   H64616228   6.582   6.965   0.747 -0.0293  0.0217  0.1513
   22MOL   H64716229   6.667   6.769   0.899  0.6479 -0.2890 -0.1276
   22MOL   H64816230   6.763   6.808   0.764  0.4695 -1.1018  0.3205
   22MOL   H64916231   6.821   6.838   1.062 -0.8665 -0.0793 -0.5705
   22MOL   H65016232   6.898   6.950   0.945 -0.7307 -0.3688 -1.3037
   22MOL   H65116233   6.969   6.732   0.809 -1.1518 -0.5432 -0.3363
   22MOL   H65216234   7.058   6.788   0.946 -0.3607  0.3885 -0.4914
   22MOL   H65316235   6.857   6.564   0.931  0.4279  0.1554 -0.5224
   22MOL   H65416236   6.926   6.637   1.080  0.6785  2.7758 -0.6369
   22MOL   H65516237   7.070   6.436   1.033 -0.9282 -1.4195 -1.4658
   22MOL   H65616238   7.160   6.581   1.011 -0.0125 -1.4909  3.2153
   22MOL   H65716239   7.107   6.551   0.761  0.7524  0.2685 -0.5262
   22MOL   H65816240   7.021   6.404   0.799  1.0913 -1.3811 -0.3825
   22MOL   H65916241   7.227   6.295   0.880 -1.7984 -0.0203  0.6568
   22MOL   H66016242   7.319   6.436   0.862 -1.2367  1.0493  0.7785
   22MOL   H66116243   7.300   6.438   0.617  0.7823  1.4439  1.4240
   22MOL   H66216244   7.196   6.297   0.623 -0.0650 -1.2155  1.5513
   22MOL   H66316245   7.382   6.163   0.712  0.3928 -0.3922 -1.8388
   22MOL   H66416246   7.487   6.306   0.722 -0.0084  1.9933 -1.3231
   22MOL   H66516247   7.382   6.183   0.462  0.4151  0.0172 -0.4361
   22MOL   H66616248   7.545   6.175   0.497  0.7716  1.5698 -2.6993
   22MOL   H66716249   7.391   6.399   0.409 -0.0453 -1.6038 -0.2347
   22MOL   C66816250   7.598   6.415   0.401  0.1807  0.3344 -0.5273
   22MOL   O66916251   0.009   6.356   0.426 -0.5036 -0.5969  0.0708
   22MOL   C67016252   7.600   6.538   0.312  0.4066  0.5729 -0.0413
   22MOL   C67116253   7.680   6.655   0.376  0.3821 -0.2911 -0.7196
   22MOL   C67216254   7.661   6.795   0.327  0.1229 -0.8819 -0.4881
   22MOL   C67316255   7.533   6.852   0.382  0.4448  0.6283  0.9354
   22MOL   C67416256   7.524   7.002   0.363 -0.2411 -0.0845 -0.3817
   22MOL   C67516257   7.381   7.051   0.377  0.1651 -0.1771 -0.2559
   22MOL   C67616258   7.364   7.199   0.355 -0.2894 -1.0317  0.7187
   22MOL   C67716259   7.412   7.261   0.222 -0.4519 -0.0189  0.0510
   22MOL   C67816260   7.527   7.368   0.232 -0.3381 -0.1626 -0.7460
   22MOL   C67916261   7.541   7.444   0.096  1.0988 -0.2419  0.6096
   22MOL   C68016262   7.638   7.570   0.094  0.3860  0.1985  0.6335
   22MOL   N68116263   7.650   7.629   7.652  0.0638  0.2131 -0.1509
   22MOL   H68216264   7.497   6.569   0.293 -0.4744 -2.3129 -0.3424
   22MOL   H68316265   7.647   6.506   0.219 -0.4111  0.2769 -0.3658
   22MOL   H68416266   7.651   6.647   0.481  2.2045 -1.7111 -0.3162
   22MOL   H68516267   0.090   6.631   0.357  0.2006 -3.6621  2.0759
   22MOL   H68616268   7.656   6.801   0.218  0.6794 -1.7984 -0.5733
   22MOL   H68716269   0.049   6.859   0.360  0.3924 -0.4003 -2.0691
   22MOL   H68816270   7.452   6.794   0.336  1.6195 -0.9288  0.7831
   22MOL   H68916271   7.512   6.839   0.488 -3.1010  0.2631  0.2363
   22MOL   H69016272   7.570   7.037   0.271  1.5503 -2.9404 -0.6565
   22MOL   H69116273   7.588   7.055   0.435  1.7873 -1.1392 -1.3586
   22MOL   H69216274   7.335   7.035   0.474 -0.5266  1.1053 -0.3668
   22MOL   H69316275   7.323   6.998   0.302  1.1223 -0.3155 -0.9113
   22MOL   H69416276   7.397   7.258   0.441 -1.8857  1.5091 -0.3677
   22MOL   H69516277   7.256   7.213   0.364 -0.1565 -0.1673  1.0285
   22MOL   H69616278   7.331   7.301   0.160 -0.4885  0.4879  0.4276
   22MOL   H69716279   7.444   7.178   0.159  0.7315 -0.1815  0.8541
   22MOL   H69816280   7.616   7.313   0.263 -0.1229  1.3317  1.4439
   22MOL   H69916281   7.499   7.445   0.305  0.2157 -2.0875  1.5611
   22MOL   H70016282   7.442   7.471   0.061  1.6751  0.8543 -0.2158
   22MOL   H70116283   7.572   7.371   0.020  1.0623 -0.7255  1.0572
   22MOL   H70216284   0.041   7.543   0.134  0.6859  1.0079  0.4682
   22MOL   H70316285   7.604   7.642   0.169  1.0328  2.0956 -0.8420
   22MOL   H70416286   7.687   7.567   7.582 -0.4215  0.3906 -0.5646
   22MOL   C70516287   7.586   0.047   7.617  0.6478 -0.7231  0.9964
   22MOL   O70616288   7.546   0.135   7.694  0.1925  0.4355  0.0845
   22MOL   C70716289   7.576   0.073   7.468  0.1843  0.1351  0.5905
   22MOL   C70816290   7.425   0.064   7.420  0.2904  0.3339 -0.0150
   22MOL   C70916291   7.346   7.637   7.455 -0.4856  1.0553  0.0494
   22MOL   C71016292   7.202   7.627   7.405 -0.4726 -0.7613 -0.4031
   22MOL   C71116293   7.134   7.487   7.409 -0.0824 -0.1885  0.3723
   22MOL   C71216294   7.055   7.475   7.539  0.4374 -0.0651 -0.1912
   22MOL   C71316295   7.002   7.335   7.571  1.2283 -0.2154  0.3113
   22MOL   C71416296   6.942   7.309   0.019  0.2387 -0.3453  0.2169
   22MOL   C71516297   6.938   7.153   0.028 -0.2404 -0.1983 -0.2814
   22MOL   C71616298   6.858   7.110   0.153 -0.2755 -0.1833  0.1681
   22MOL   C71716299   6.889   6.963   0.186 -0.1922  0.6939  0.0376
   22MOL   N71816300   6.803   6.925   0.296  0.1127 -0.0709 -0.5810
   22MOL   H71916301   7.628   7.689   7.413 -0.7217 -0.3702  0.4349
   22MOL   H72016302   7.608   0.175   7.449  0.1896  0.1208  0.5234
   22MOL   H72116303   7.376   0.151   7.464 -0.7119 -1.9782  3.6167
   22MOL   H72216304   7.417   0.070   7.311  0.5621 -1.1522 -0.1267
   22MOL   H72316305   7.331   7.639   7.562  1.1192  0.9735  0.2867
   22MOL   H72416306   7.403   7.547   7.430 -2.4671 -0.3032  0.2909
   22MOL   H72516307   7.146   0.014   7.452  1.6642 -0.3098  1.4274
   22MOL   H72616308   7.208   7.652   7.299 -2.5384 -0.8549 -0.5590
   22MOL   H72716309   7.204   7.404   7.399 -0.5376 -0.4035 -1.2057
   22MOL   H72816310   7.065   7.467   7.327  2.9083 -1.7496 -1.8801
   22MOL   H72916311   6.973   7.547   7.543  0.5189  0.0130  0.0626
   22MOL   H73016312   7.138   7.496   7.606 -0.4790 -2.2018  1.7064
   22MOL   H73116313   7.071   7.256   7.540  0.4748 -0.3693 -1.0626
   22MOL   H73216314   6.914   7.320   7.508  1.3587  2.2327 -0.4818
   22MOL   H73316315   6.847   7.358   0.039  1.0597  2.3350 -2.0459
   22MOL   H73416316   7.014   7.354   0.087  4.0372 -1.7609 -2.6870
   22MOL   H73516317   7.034   7.103   0.024 -0.9500 -1.5482 -0.6440
   22MOL   H73616318   6.873   7.112   7.645  0.7683  1.1219 -1.8578
   22MOL   H73716319   6.753   7.139   0.144 -0.5441 -0.5162  1.9651
   22MOL   H73816320   6.894   7.164   0.241 -1.1183  2.0820 -0.8479
   22MOL   H73916321   6.994   6.952   0.213  0.2435  0.1233 -1.8392
   22MOL   H74016322   6.872   6.903   0.096  0.7506 -2.7420  2.0452
   22MOL   H74116323   6.788   6.825   0.292  0.8025 -0.2123  0.3279
   22MOL   H74216324   6.711   6.953   0.265  0.3121  0.0800 -1.0538
   23MOL     C116325   6.335   1.906   4.348 -0.3458 -0.2236  0.3615
   23MOL     O216326   6.440   1.886   4.401  0.0135  0.5169 -0.6491
   23MOL     C316327   6.295   1.826   4.222  0.5722 -0.0329 -0.9040
   23MOL     C416328   6.162   1.884   4.168 -0.6847  0.4796  0.1265
   23MOL     C516329   6.169   2.012   4.090  0.5062  0.2384  0.4296
   23MOL     C616330   6.045   2.077   4.037 -0.0897  0.1462 -0.4245
   23MOL     C716331   6.065   2.179   3.929 -0.0852 -0.8668  0.6158
   23MOL     C816332   6.157   2.294   3.963 -0.3403 -0.6805  0.0068
   23MOL     C916333   6.211   2.362   3.835 -0.5317  0.1360 -0.3396
   23MOL    C1016334   6.291   2.496   3.853 -0.4773 -0.1653  0.0064
   23MOL    C1116335   6.412   2.476   3.938 -0.2635  0.0356  0.5616
   23MOL    C1216336   6.477   2.611   3.965  0.1984  0.1744 -0.2384
   23MOL    C1316337   6.602   2.627   4.050 -0.0804 -0.2704 -0.3715
   23MOL    N1416338   6.660   2.760   4.052  0.0083 -0.3929 -0.4632
   23MOL    H1516339   6.280   1.722   4.253 -0.0547  0.3551  0.1114
   23MOL    H1616340   6.384   1.825   4.159  1.3367  0.0147  0.1553
   23MOL    H1716341   6.122   1.804   4.106  0.4503  0.0367 -0.0326
   23MOL    H1816342   6.084   1.893   4.244  0.4270 -1.9516  1.6321
   23MOL    H1916343   6.234   1.989   4.006 -0.5215  0.6789 -0.5052
   23MOL    H2016344   6.218   2.085   4.154 -0.0574 -0.8662  2.1465
   23MOL    H2116345   5.978   1.999   4.002 -0.9705  0.7027  0.0012
   23MOL    H2216346   6.000   2.117   4.128 -0.6137  1.5961 -1.3145
   23MOL    H2316347   5.971   2.213   3.886  1.4404 -0.7925 -2.8543
   23MOL    H2416348   6.111   2.136   3.839 -1.3140 -0.7279 -0.0862
   23MOL    H2516349   6.245   2.271   4.024  0.3471 -0.0268 -0.7239
   23MOL    H2616350   6.114   2.382   4.010  2.9514  1.0792 -0.1122
   23MOL    H2716351   6.127   2.384   3.768  0.0388  0.6919 -0.8799
   23MOL    H2816352   6.265   2.298   3.765 -0.1112  0.8712 -0.6832
   23MOL    H2916353   6.221   2.565   3.899 -1.8396 -1.8867  0.5433
   23MOL    H3016354   6.310   2.539   3.754 -1.6212  0.4093  0.0357
   23MOL    H3116355   6.486   2.417   3.884 -0.6242 -0.4033  0.5393
   23MOL    H3216356   6.389   2.432   4.035 -0.3659 -0.4276  0.3262
   23MOL    H3316357   6.397   2.659   4.020 -0.5426 -1.6666  0.3378
   23MOL    H3416358   6.494   2.667   3.873  1.4442 -0.7961 -0.6314
   23MOL    H3516359   6.670   2.549   4.014  1.7687  0.4063  1.5423
   23MOL    H3616360   6.578   2.588   4.149 -1.3913  2.0054  0.2368
   23MOL    H3716361   6.745   2.767   3.999  0.2072  1.0070 -0.0064
   23MOL    H3816362   6.268   1.990   4.363  2.1721  2.1111 -1.0268
   23MOL    C3916363   6.604   2.875   4.095 -0.5697 -0.3364 -0.1253
   23MOL    O4016364   6.504   2.894   4.163  0.4120 -0.0670 -0.6684
   23MOL    C4116365   6.691   2.998   4.046 -0.2955  0.2937  0.1780
   23MOL    C4216366   6.616   3.135   4.090  0.4227 -0.3280  0.1642
   23MOL    C4316367   6.522   3.184   3.982  0.0280  0.1869  0.1030
   23MOL    C4416368   6.463   3.322   4.009 -0.2193 -0.6550 -0.6108
   23MOL    C4516369   6.363   3.368   3.900 -0.2767 -0.8544 -0.5190
   23MOL    C4616370   6.321   3.512   3.933 -0.1984  0.0621 -0.5405
   23MOL    C4716371   6.279   3.594   3.805  0.4263  0.0275  0.8053
   23MOL    C4816372   6.251   3.741   3.848  0.0989 -0.1791  0.8835
   23MOL    C4916373   6.202   3.835   3.733 -0.7966 -0.7318 -0.4507
   23MOL    C5016374   6.142   3.971   3.776  0.0679  0.1080  0.2315
   23MOL    C5116375   6.246   4.071   3.818 -0.0710 -0.0095  0.3713
   23MOL    N5216376   6.179   4.174   3.896 -0.0603 -1.0967  0.5646
   23MOL    H5316377   6.698   3.000   3.937 -1.6107 -0.3824  0.0792
   23MOL    H5416378   6.794   2.997   4.081 -0.0318 -0.3254 -0.5767
   23MOL    H5516379   6.571   3.141   4.189  0.0109 -0.1646 -0.0360
   23MOL    H5616380   6.697   3.207   4.102  1.1923 -0.9660 -1.0931
   23MOL    H5716381   6.447   3.106   3.982 -0.5377  0.7256 -1.3688
   23MOL    H5816382   6.558   3.178   3.879 -0.7186 -1.3226 -0.0783
   23MOL    H5916383   6.409   3.310   4.103  0.5419 -1.3629 -0.2600
   23MOL    H6016384   6.543   3.392   4.035  0.2247 -1.2703 -0.3025
   23MOL    H6116385   6.273   3.306   3.898 -1.9328  1.3260  1.7102
   23MOL    H6216386   6.415   3.370   3.805 -0.0532 -0.9117 -0.3973
   23MOL    H6316387   6.411   3.557   3.973 -0.0988  1.3049 -2.0817
   23MOL    H6416388   6.239   3.513   4.004  0.0130 -4.7053 -0.0574
   23MOL    H6516389   6.198   3.550   3.745  2.2377 -3.6863  0.9396
   23MOL    H6616390   6.357   3.591   3.729  0.2938 -0.6583  0.6917
   23MOL    H6716391   6.332   3.791   3.902 -0.5137  0.8937  0.8270
   23MOL    H6816392   6.170   3.736   3.920  0.1458  5.6028  1.6382
   23MOL    H6916393   6.122   3.788   3.675  0.7537 -2.0593 -1.5995
   23MOL    H7016394   6.286   3.854   3.666 -0.4203  1.0164  0.4841
   23MOL    H7116395   6.067   3.956   3.853  1.5923  0.0448  1.7388
   23MOL    H7216396   6.091   4.031   3.701 -0.1599 -1.7582 -1.1458
   23MOL    H7316397   6.289   4.127   3.735  0.7393 -3.0797 -1.3363
   23MOL    H7416398   6.320   4.018   3.877  0.3308 -3.2268 -2.8910
   23MOL    H7516399   6.137   4.250   3.845  0.4152 -0.8494  0.5477
   23MOL    C7616400   6.204   4.186   4.026  0.4132  0.6610  0.2183
   23MOL    O7716401   6.269   4.104   4.089  0.2967 -0.0221  0.0758
   23MOL    C7816402   6.149   4.312   4.091 -0.1928 -0.0163 -0.1467
   23MOL    C7916403   6.246   4.436   4.103 -0.1470  0.3426  0.7861
   23MOL    C8016404   6.188   4.564   4.174  0.1222 -0.1190 -0.0540
   23MOL    C8116405   6.278   4.686   4.192  0.0314  0.2174  0.5121
   23MOL    C8216406   6.361   4.730   4.060 -0.7982  0.4558 -0.3131
   23MOL    C8316407   6.459   4.856   4.077 -0.5215 -0.6043 -0.6789
   23MOL    C8416408   6.550   4.872   3.957 -0.6742  0.7698  0.0278
   23MOL    C8516409   6.658   4.974   3.977 -0.1235  0.0859 -0.8936
   23MOL    C8616410   6.773   4.962   3.881 -0.4155  0.0539 -0.2741
   23MOL    C8716411   6.868   4.846   3.892  0.3294  0.0536 -0.4693
   23MOL    C8816412   6.849   4.743   3.785  0.0398  1.1083  0.0585
   23MOL    N8916413   6.898   4.610   3.813 -0.2550 -0.4462  0.2625
   23MOL    H9016414   6.136   4.282   4.195 -0.9319 -1.0887 -0.5363
   23MOL    H9116415   6.049   4.340   4.056 -0.8213 -0.3351  1.3386
   23MOL    H9216416   6.338   4.404   4.153  0.8520 -1.2215 -1.9664
   23MOL    H9316417   6.275   4.453   3.999 -0.6625  0.5004  0.6654
   23MOL    H9416418   6.160   4.544   4.277  1.0400  1.0755  0.4434
   23MOL    H9516419   6.098   4.599   4.123  1.0347  2.1938 -0.1485
   23MOL    H9616420   6.226   4.778   4.221  1.5436  1.1434  0.3720
   23MOL    H9716421   6.359   4.657   4.259 -1.8540 -1.2034  2.2244
   23MOL    H9816422   6.290   4.747   3.980 -1.3474 -1.3652 -0.2115
   23MOL    H9916423   6.423   4.646   4.030  1.1343  1.9184 -0.5481
   23MOL   H10016424   6.516   4.835   4.167 -2.2983  0.3050  0.7011
   23MOL   H10116425   6.398   4.945   4.092 -1.4213 -1.3606  0.2305
   23MOL   H10216426   6.503   4.911   3.867  1.7059 -0.0893 -1.6403
   23MOL   H10316427   6.595   4.776   3.933  0.1431  1.4410 -1.1704
   23MOL   H10416428   6.702   4.947   4.073 -4.4953 -1.1417  0.9031
   23MOL   H10516429   6.627   5.078   3.986  0.9229  0.3994 -0.7627
   23MOL   H10616430   6.836   5.051   3.882  0.0681 -0.2583  2.5938
   23MOL   H10716431   6.739   4.950   3.778 -0.9101 -3.2754  0.2133
   23MOL   H10816432   6.861   4.789   3.985  0.0100  2.3753  0.9601
   23MOL   H10916433   6.971   4.881   3.897 -0.5954  2.7249  0.7200
   23MOL   H11016434   6.911   4.777   3.701  1.2939 -1.6534 -0.1977
   23MOL   H11116435   6.747   4.735   3.747  0.2092  0.0754 -0.1959
   23MOL   H11216436   6.822   4.546   3.835 -0.5241 -0.0649  0.4466
   23MOL   C11316437   7.025   4.564   3.796 -0.0138 -0.3943 -0.4490
   23MOL   O11416438   7.112   4.629   3.736 -0.4893 -0.2961 -0.3097
   23MOL   C11516439   7.052   4.422   3.838  0.4915 -0.0135  0.1098
   23MOL   C11616440   7.197   4.390   3.869 -0.7056  0.3564  0.5671
   23MOL   C11716441   7.306   4.379   3.756  0.1141  0.4639  0.3245
   23MOL   C11816442   7.446   4.361   3.812 -0.7749  0.2565  0.4635
   23MOL   C11916443   7.548   4.373   3.696  0.2326  0.5029 -0.7360
   23MOL   C12016444   0.007   4.364   3.741 -0.0905 -0.1701 -0.2262
   23MOL   C12116445   0.107   4.347   3.619 -0.6414 -0.5974 -0.1985
   23MOL   C12216446   0.255   4.322   3.663 -0.9802  0.4814  0.1229
   23MOL   C12316447   0.373   4.333   3.568 -0.9315  0.2784 -0.1469
   23MOL   C12416448   0.356   4.234   3.454  0.1180 -0.8146  0.6488
   23MOL   C12516449   0.385   4.095   3.499 -0.0373 -0.0338  0.1048
   23MOL   N12616450   0.403   4.001   3.385  0.2205  0.4854 -0.4980
   23MOL   H12716451   7.015   4.356   3.760 -1.1625 -0.3801  1.1699
   23MOL   H12816452   6.988   4.380   3.916  1.1590 -3.1153 -0.9238
   23MOL   H12916453   7.219   4.472   3.938  0.6973  1.4385 -1.1356
   23MOL   H13016454   7.200   4.289   3.909 -3.1715  0.1232  0.2088
   23MOL   H13116455   7.299   4.474   3.703  1.2544 -1.3145 -3.2582
   23MOL   H13216456   7.274   4.307   3.680 -2.9283  0.9178  1.1275
   23MOL   H13316457   7.465   4.435   3.890  0.6586  0.6886 -0.2842
   23MOL   H13416458   7.458   4.266   3.864 -0.3411  1.1863  2.1208
   23MOL   H13516459   7.544   4.469   3.645  5.4114  1.0347 -0.3780
   23MOL   H13616460   7.525   4.288   3.631 -3.4411  1.5989 -0.9504
   23MOL   H13716461   0.033   4.291   3.819  0.8427  0.9870  0.5707
   23MOL   H13816462   0.030   4.459   3.789  1.2578 -0.5702 -0.0558
   23MOL   H13916463   0.112   4.437   3.557  1.4001  0.5173  1.5279
   23MOL   H14016464   0.084   4.263   3.553  0.4394 -0.9912 -0.0827
   23MOL   H14116465   0.264   4.222   3.704  0.6130 -0.2810 -2.0094
   23MOL   H14216466   0.285   4.398   3.735  1.4703  0.6759 -1.0392
   23MOL   H14316467   0.468   4.327   3.619  0.3674 -0.1704 -2.5415
   23MOL   H14416468   0.377   4.435   3.528  2.2836  0.0069 -0.6120
   23MOL   H14516469   0.425   4.259   3.374 -1.7700 -0.2460 -0.8570
   23MOL   H14616470   0.256   4.246   3.411 -0.1057  1.0796  1.5971
   23MOL   H14716471   0.294   4.059   3.548 -2.3104  0.6359 -3.3974
   23MOL   H14816472   0.467   4.087   3.571  1.3343  1.3883 -1.2659
   23MOL   H14916473   0.474   4.021   3.315  0.4568  3.7350  0.5817
   23MOL   C15016474   0.349   3.874   3.388 -0.2194  0.3837 -0.7278
   23MOL   O15116475   0.281   3.836   3.486  0.1659  0.0798 -0.4019
   23MOL   C15216476   0.375   3.778   3.273  0.5986  0.0340  0.5533
   23MOL   C15316477   0.431   3.645   3.304  0.6594 -0.4523  0.2985
   23MOL   C15416478   0.319   3.537   3.311 -0.0163 -0.3531  0.2402
   23MOL   C15516479   0.372   3.399   3.357  0.5073 -0.2778  0.6278
   23MOL   C15616480   0.270   3.290   3.348  0.4428  0.0600  0.3396
   23MOL   C15716481   0.295   3.180   3.456 -0.4141 -0.4296 -0.3604
   23MOL   C15816482   0.189   3.069   3.448  0.0915  0.0534  0.3810
   23MOL   C15916483   0.242   2.954   3.533 -0.2779  0.3623 -0.0194
   23MOL   C16016484   0.302   2.839   3.454 -0.3063  0.2060 -1.1783
   23MOL   C16116485   0.277   2.700   3.510 -0.0073 -0.4357 -0.4101
   23MOL   C16216486   0.147   2.636   3.460  1.3032  0.2947  0.8825
   23MOL   N16316487   0.146   2.498   3.492  0.5846  0.3655  0.2165
   23MOL   H16416488   0.449   3.828   3.211 -0.4714  0.5937 -0.2784
   23MOL   H16516489   0.284   3.770   3.214  1.7982 -3.6477 -0.9428
   23MOL   H16616490   0.510   3.608   3.238 -0.2640 -2.2046  0.1224
   23MOL   H16716491   0.482   3.654   3.399  4.2547 -0.7524 -1.4926
   23MOL   H16816492   0.278   3.528   3.210 -0.8898 -2.1365  0.7276
   23MOL   H16916493   0.243   3.574   3.380 -0.2732 -1.4861  0.5739
   23MOL   H17016494   0.459   3.373   3.297  0.3935 -2.2773  1.3038
   23MOL   H17116495   0.390   3.415   3.464 -0.6439 -1.6292  1.0408
   23MOL   H17216496   0.259   3.250   3.247 -0.0296  2.2202 -0.4904
   23MOL   H17316497   0.171   3.322   3.379  0.0005 -1.1475  0.1973
   23MOL   H17416498   0.288   3.209   3.561 -2.2644  0.0487 -0.5983
   23MOL   H17516499   0.385   3.121   3.439 -1.1321 -1.5920 -0.1204
   23MOL   H17616500   0.177   3.044   3.342  0.6788  0.9696  0.0923
   23MOL   H17716501   0.094   3.107   3.486 -0.4717  0.7922 -1.6935
   23MOL   H17816502   0.152   2.927   3.588  0.4598  2.6406  2.3858
   23MOL   H17916503   0.307   2.990   3.613  0.5729 -1.8183  0.3192
   23MOL   H18016504   0.407   2.861   3.468  0.1233 -0.5117 -3.2145
   23MOL   H18116505   0.282   2.837   3.347 -1.6435 -1.3114 -0.9302
   23MOL   H18216506   0.286   2.698   3.619  0.5915 -1.6475 -0.4794
   23MOL   H18316507   0.366   2.649   3.473  1.9688  1.5887  1.3942
   23MOL   H18416508   0.140   2.620   3.352  1.0015  3.4486  0.3990
   23MOL   H18516509   0.060   2.690   3.495 -0.1872 -0.0306 -2.1480
   23MOL   H18616510   0.237   2.454   3.500  0.3806 -0.4374 -1.6474
   23MOL   C18716511   0.033   2.420   3.486 -0.1927  0.2467  0.4374
   23MOL   O18816512   7.615   2.470   3.468  0.1196 -0.1059 -0.3802
   23MOL   C18916513   0.055   2.279   3.519 -0.4295  0.5703  0.5104
   23MOL   C19016514   7.634   2.188   3.485 -0.2689  0.2625  0.8957
   23MOL   C19116515   7.612   2.179   3.331  0.3680 -0.8855 -0.3215
   23MOL   C19216516   7.507   2.076   3.305 -0.4928  0.5437 -0.1994
   23MOL   C19316517   7.570   1.928   3.289 -0.4949  0.1888 -1.2325
   23MOL   C19416518   7.464   1.819   3.264  0.2800  0.2563 -0.4839
   23MOL   C19516519   7.405   1.819   3.118 -1.0933 -0.2480 -0.5873
   23MOL   C19616520   7.312   1.698   3.086  0.8670 -0.1672  0.4860
   23MOL   C19716521   7.294   1.668   2.935 -0.7267 -0.5416  0.3310
   23MOL   C19816522   7.417   1.634   2.850  0.2875  0.2569  1.7746
   23MOL   C19916523   7.471   1.496   2.887  0.0743 -0.2993  0.0946
   23MOL   N20016524   7.580   1.469   2.802  0.0661 -0.1577  0.1905
   23MOL   H20116525   0.072   2.275   3.626  1.1199 -1.2240  0.2241
   23MOL   H20216526   0.145   2.249   3.465 -0.1509 -0.8688  1.7536
   23MOL   H20316527   7.646   2.091   3.534 -2.7008 -1.3854 -1.6040
   23MOL   H20416528   7.547   2.238   3.527  0.1263  1.6695  0.0793
   23MOL   H20516529   0.009   2.149   3.280  0.8373 -2.1368  1.2342
   23MOL   H20616530   7.573   2.270   3.283  0.8133  0.5134  1.9234
   23MOL   H20716531   7.433   2.080   3.385  1.9929 -0.8926  2.2880
   23MOL   H20816532   7.442   2.089   3.219 -0.6692  1.4919  0.0753
   23MOL   H20916533   7.624   1.902   3.380  1.8725 -0.1679 -2.7069
   23MOL   H21016534   7.637   1.937   3.203  0.5388  0.5809 -0.3946
   23MOL   H21116535   7.394   1.824   3.347  1.0496 -2.1007  0.3370
   23MOL   H21216536   7.523   1.729   3.284  0.7353  0.6573 -0.0180
   23MOL   H21316537   7.474   1.812   3.034  1.9444 -0.2131  1.8204
   23MOL   H21416538   7.350   1.907   3.085 -1.6346 -0.1745  0.4641
   23MOL   H21516539   7.214   1.718   3.130  0.8509  0.3105  0.2407
   23MOL   H21616540   7.345   1.608   3.138  0.6585 -0.0269  0.8654
   23MOL   H21716541   7.252   1.758   2.891  1.5758  0.2415 -0.3443
   23MOL   H21816542   7.225   1.584   2.926 -0.0129 -1.1596  0.5720
   23MOL   H21916543   7.487   1.717   2.857  0.3351  0.5747 -1.7282
   23MOL   H22016544   7.390   1.626   2.745  1.1069 -2.7459  1.7335
   23MOL   H22116545   7.394   1.420   2.877 -0.4177  0.1934  0.0632
   23MOL   H22216546   7.502   1.491   2.991  0.6997 -0.5237 -0.1040
   23MOL   H22316547   7.625   1.554   2.770 -3.3431  1.7453  0.2902
   23MOL   C22416548   7.636   1.343   2.768  0.2505  0.6582  0.1182
   23MOL   O22516549   7.590   1.240   2.821 -0.3342 -0.0987 -0.1287
   23MOL   C22616550   0.049   1.344   2.656 -0.5006 -0.3402 -1.0581
   23MOL   C22716551   0.087   1.207   2.610  0.8937 -0.3223 -0.0989
   23MOL   C22816552   7.686   1.138   2.508 -0.2016 -0.4097 -0.0640
   23MOL   C22916553   0.029   0.995   2.473 -0.2600  0.3961  0.3631
   23MOL   C23016554   7.625   0.910   2.394  0.1215  0.3282  0.8258
   23MOL   C23116555   7.503   0.871   2.485  0.0946  0.5030 -0.1668
   23MOL   C23216556   7.420   0.760   2.414  0.0462  0.0103  0.5645
   23MOL   C23316557   7.291   0.713   2.495  0.3059 -0.2752 -0.4318
   23MOL   C23416558   7.315   0.655   2.632 -0.3729 -0.2294 -0.1136
   23MOL   C23516559   7.209   0.568   2.690 -0.1220 -0.0840 -0.3122
   23MOL   C23616560   7.235   0.533   2.844 -0.1788 -0.5064 -0.2216
   23MOL   N23716561   7.111   0.494   2.902  0.3774 -0.1302 -0.7188
   23MOL   H23816562   0.140   1.400   2.680  1.1157 -2.9929 -0.8662
   23MOL   H23916563   7.692   1.416   2.591 -0.3572  0.2656 -0.5106
   23MOL   H24016564   0.180   1.220   2.554  0.8513  0.8523  0.0872
   23MOL   H24116565   0.106   1.140   2.693 -0.5070 -1.2276 -0.4968
   23MOL   H24216566   7.676   1.203   2.422  1.2213 -0.5564 -0.3419
   23MOL   H24316567   7.594   1.138   2.568  1.2801  2.8880  2.3850
   23MOL   H24416568   0.130   0.999   2.431  0.4783  0.5788  2.1217
   23MOL   H24516569   0.046   0.950   2.571  1.8055 -0.5958 -0.4128
   23MOL   H24616570   7.681   0.827   2.351 -0.9343  0.1796 -0.2983
   23MOL   H24716571   7.587   0.971   2.312  0.0145  2.0143  2.1016
   23MOL   H24816572   7.432   0.950   2.511 -0.9387 -0.7344  0.8449
   23MOL   H24916573   7.546   0.832   2.577 -2.3683  0.1037  0.8719
   23MOL   H25016574   7.484   0.672   2.408 -0.0647 -0.1250  1.3047
   23MOL   H25116575   7.394   0.788   2.312  1.7581  2.0312  0.6353
   23MOL   H25216576   7.241   0.632   2.443  0.1977 -1.7489  1.9157
   23MOL   H25316577   7.219   0.795   2.486 -0.7890 -1.4290 -2.7207
   23MOL   H25416578   7.346   0.741   2.691  0.2169  0.3299 -1.2207
   23MOL   H25516579   7.410   0.600   2.628 -1.2034 -1.7606  0.6447
   23MOL   H25616580   7.207   0.478   2.628 -3.6013 -1.2164  1.3383
   23MOL   H25716581   7.110   0.611   2.675  0.1895  0.8975  0.4809
   23MOL   H25816582   7.259   0.624   2.899 -1.5232  0.1932 -0.7641
   23MOL   H25916583   7.310   0.459   2.872  0.5927  0.2941 -0.1765
   23MOL   H26016584   7.044   0.569   2.905  2.6073  1.8511  2.1598
   23MOL   C26116585   7.064   0.374   2.898 -0.4228 -0.0209  1.0816
   23MOL   O26216586   7.134   0.280   2.871  0.5578 -0.3252 -0.4297
   23MOL   C26316587   6.914   0.351   2.920 -0.6000 -0.5146 -0.1574
   23MOL   C26416588   6.838   0.293   2.800 -0.1229 -0.3713  0.0797
   23MOL   C26516589   6.684   0.278   2.824  0.5327 -0.0453  0.1597
   23MOL   C26616590   6.605   0.246   2.698  0.4110  0.7582  0.3146
   23MOL   C26716591   6.455   0.213   2.725 -0.1270 -0.0654  0.2412
   23MOL   C26816592   6.387   0.157   2.599  0.7064 -0.6344 -0.4269
   23MOL   C26916593   6.253   0.226   2.568  0.0355 -0.0258 -0.0531
   23MOL   C27016594   6.213   0.218   2.417  0.3087 -0.1101  0.5855
   23MOL   C27116595   6.218   0.078   2.356  0.1970  0.7087 -1.0713
   23MOL   C27216596   6.115   7.680   2.418  0.4122  0.4785 -0.4609
   23MOL   C27316597   6.096   7.556   2.333 -0.0885 -0.5187  0.2935
   23MOL   N27416598   5.982   7.482   2.390 -0.6314  1.2179 -0.0201
   23MOL   H27516599   6.874   0.443   2.962  2.5434  0.8608 -0.0426
   23MOL   H27616600   6.909   0.292   3.011 -0.6709 -1.9372 -1.0672
   23MOL   H27716601   6.844   0.362   2.716 -1.0607  1.9934  1.8881
   23MOL   H27816602   6.880   0.198   2.767 -0.8833 -0.1613 -1.5885
   23MOL   H27916603   6.643   0.366   2.874  0.6149 -0.2564  0.6082
   23MOL   H28016604   6.674   0.196   2.895  2.1124 -0.2669  0.1503
   23MOL   H28116605   6.607   0.332   2.631 -0.3878 -0.1070 -0.8331
   23MOL   H28216606   6.651   0.166   2.641  1.8318  1.8052 -0.0582
   23MOL   H28316607   6.420   0.316   2.735 -3.0060 -0.9051 -0.6446
   23MOL   H28416608   6.449   0.150   2.813 -0.7552  0.4666  0.5773
   23MOL   H28516609   6.377   0.052   2.625  0.5223 -0.1359  1.5769
   23MOL   H28616610   6.456   0.162   2.515 -0.5280 -0.5260 -1.4419
   23MOL   H28716611   6.258   0.332   2.590  1.0346 -0.0515 -0.1516
   23MOL   H28816612   6.179   0.187   2.637  0.7785  2.4123  2.1541
   23MOL   H28916613   6.271   0.288   2.358 -1.3597  0.5662 -0.2674
   23MOL   H29016614   6.113   0.259   2.403 -0.5245 -2.1310  0.4692
   23MOL   H29116615   6.319   0.039   2.371 -1.7448 -4.1693  0.0402
   23MOL   H29216616   6.208   0.084   2.247  2.6739 -1.3206 -1.4489
   23MOL   H29316617   6.020   0.036   2.438  0.2842 -0.3974  1.1786
   23MOL   H29416618   6.152   7.640   2.512 -1.7306 -0.8345 -0.1330
   23MOL   H29516619   6.193   7.506   2.331  0.4323  0.5126 -0.3199
   23MOL   H29616620   6.077   7.587   2.231  0.0621 -3.0616 -0.5488
   23MOL   H29716621   6.004   7.414   2.461 -1.2832  2.3904  1.3127
   23MOL   C29816622   5.855   7.510   2.359  0.5183 -0.1085 -0.1123
   23MOL   O29916623   5.824   7.593   2.276  0.4196  0.0321  0.2007
   23MOL   C30016624   5.752   7.425   2.437  0.3531 -0.6617  0.0050
   23MOL   C30116625   5.702   7.313   2.347  0.0373 -0.3589 -0.1188
   23MOL   C30216626   5.610   7.214   2.421  0.5027  0.5589  0.1615
   23MOL   C30316627   5.480   7.277   2.469 -0.5439  0.1558 -0.4002
   23MOL   C30416628   5.358   7.253   2.371  0.5194  0.1505 -0.9793
   23MOL   C30516629   5.237   7.342   2.388 -0.7697 -0.1612  0.6218
   23MOL   C30616630   5.232   7.479   2.313  0.4076  0.4401  0.6119
   23MOL   C30716631   5.308   7.595   2.384 -0.4058  0.4278  0.3574
   23MOL   C30816632   5.304   0.037   2.307  0.1993  0.0909 -0.6223
   23MOL   C30916633   5.404   0.144   2.354 -0.7405  0.1948  0.4967
   23MOL   C31016634   5.546   0.102   2.334 -0.2441 -0.0963  0.8171
   23MOL   N31116635   5.634   0.215   2.369 -0.0627  0.5528 -0.2600
   23MOL   H31216636   5.671   7.494   2.460  2.1411  1.1951  0.9149
   23MOL   H31316637   5.797   7.390   2.530  3.4540  0.2552 -1.0603
   23MOL   H31416638   5.664   7.359   2.256 -0.7128  1.1317  0.9247
   23MOL   H31516639   5.785   7.252   2.313 -0.8985 -0.0685 -3.0225
   23MOL   H31616640   5.667   7.187   2.510 -0.1009  0.2190  0.4546
   23MOL   H31716641   5.591   7.122   2.364 -0.8031  1.1697 -0.4270
   23MOL   H31816642   5.451   7.241   2.568 -1.2094 -0.1487 -0.7003
   23MOL   H31916643   5.489   7.382   2.497  1.5968  0.2862 -1.5156
   23MOL   H32016644   5.329   7.149   2.385  0.3494  0.3305  0.0197
   23MOL   H32116645   5.392   7.251   2.267 -0.5424 -1.6902 -1.3068
   23MOL   H32216646   5.211   7.360   2.493 -0.8473  1.7177  0.2954
   23MOL   H32316647   5.150   7.290   2.347  0.3746 -1.3853 -0.2890
   23MOL   H32416648   5.129   7.513   2.306  0.0288 -0.7690  0.2171
   23MOL   H32516649   5.273   7.462   2.213 -2.2287  0.7974 -0.5709
   23MOL   H32616650   5.412   7.563   2.391 -0.7238 -0.4977  0.9167
   23MOL   H32716651   5.273   7.610   2.486 -0.4595  0.1040  0.3883
   23MOL   H32816652   5.207   0.085   2.319 -1.5127 -3.4799  0.7492
   23MOL   H32916653   5.322   0.013   2.203 -1.6138  1.3266 -1.2438
   23MOL   H33016654   5.384   0.185   2.453  0.2408  3.0820 -0.4344
   23MOL   H33116655   5.382   0.240   2.307  1.7527  1.5108  1.9135
   23MOL   H33216656   5.566   0.083   2.229 -2.4123 -0.7910  0.5129
   23MOL   H33316657   5.578   0.024   2.404 -0.9411 -0.6306  0.5357
   23MOL   H33416658   5.676   0.266   2.293  0.7015  0.2980 -0.0185
   23MOL   C33516659   5.684   0.243   2.488  1.0494 -0.2815  0.7477
   23MOL   O33616660   5.666   0.172   2.585 -0.4039  0.9560  0.0315
   23MOL   C33716661   5.783   0.358   2.484 -0.3439  0.1243 -0.4849
   23MOL   C33816662   5.812   0.405   2.634  0.1064  0.4049  0.3360
   23MOL   C33916663   5.949   0.364   2.674 -0.5122  0.3282  0.0388
   23MOL   C34016664   5.982   0.398   2.817 -0.1456 -0.0584 -0.2480
   23MOL   C34116665   5.986   0.550   2.850 -0.7132 -0.1652 -0.9217
   23MOL   C34216666   6.084   0.627   2.764 -0.1629  0.3846  0.2784
   23MOL   C34316667   6.073   0.776   2.796 -0.5885  0.5321 -0.2860
   23MOL   C34416668   6.171   0.823   2.905  0.1623  0.0609  0.2463
   23MOL   C34516669   6.282   0.916   2.861 -0.7635  0.3854 -0.4668
   23MOL   C34616670   6.383   0.962   2.972  0.3144  0.1169  0.3799
   23MOL   C34716671   6.511   1.045   2.931 -0.5347  0.6991  0.4138
   23MOL   N34816672   6.601   1.065   3.041  0.3207 -0.6515 -0.0282
   23MOL   H34916673   5.743   0.443   2.428 -0.8847 -0.0353 -0.3441
   23MOL   H35016674   5.876   0.329   2.435  0.6902 -1.4119  2.2785
   23MOL   H35116675   5.802   0.513   2.643 -2.5065  0.1605  0.4968
   23MOL   H35216676   5.744   0.369   2.711 -1.2974  1.3251 -0.4487
   23MOL   H35316677   6.028   0.400   2.607 -0.9297  1.3027  0.0669
   23MOL   H35416678   5.964   0.257   2.657 -2.8162  0.2145 -1.4452
   23MOL   H35516679   5.909   0.345   2.879  0.0392 -0.3272 -0.2602
   23MOL   H35616680   6.075   0.346   2.836 -0.2317  0.8117  2.7538
   23MOL   H35716681   6.018   0.560   2.954 -0.7691 -3.2604 -0.5601
   23MOL   H35816682   5.884   0.590   2.853 -0.3629  0.6683  0.1210
   23MOL   H35916683   6.058   0.613   2.659  1.1402  3.7002 -0.5231
   23MOL   H36016684   6.185   0.598   2.793 -0.2539 -0.1069  0.1125
   23MOL   H36116685   5.971   0.804   2.822 -0.3748  1.1111 -0.0556
   23MOL   H36216686   6.093   0.837   2.708 -1.5055  0.4533 -0.5462
   23MOL   H36316687   6.208   0.731   2.951  1.8207  0.0880 -0.9886
   23MOL   H36416688   6.109   0.852   2.990 -0.0021 -3.0719  1.2793
   23MOL   H36516689   6.241   1.004   2.811  1.4619  1.4712 -0.4646
   23MOL   H36616690   6.337   0.867   2.780  0.9054 -1.5486  1.7368
   23MOL   H36716691   6.417   0.873   3.024  3.7952  0.7907 -0.5616
   23MOL   H36816692   6.327   1.002   3.056 -1.6920  0.6517 -1.1715
   23MOL   H36916693   6.479   1.143   2.895 -2.2506 -0.8330 -2.4021
   23MOL   H37016694   6.554   0.996   2.844 -0.9727  1.1699 -0.0668
   23MOL   H37116695   6.557   1.071   3.132  1.2069 -1.4909  0.4770
   23MOL   C37216696   6.732   1.091   3.041 -0.2731 -0.2470 -0.1031
   23MOL   O37316697   6.794   1.098   2.932 -0.1900 -0.3967 -0.8635
   23MOL   C37416698   6.806   1.107   3.172  0.1887  0.6357  0.6826
   23MOL   C37516699   6.879   1.237   3.189  0.3749  0.6285 -0.1224
   23MOL   C37616700   7.031   1.222   3.178  0.4292 -0.5261  0.5227
   23MOL   C37716701   7.112   1.349   3.213 -0.0900 -0.7821 -0.3652
   23MOL   C37816702   7.122   1.376   3.367  0.0876 -0.2087  0.1846
   23MOL   C37916703   7.233   1.466   3.413  0.0708 -0.3822  0.1062
   23MOL   C38016704   7.262   1.479   3.561  0.0681  0.0910 -0.0338
   23MOL   C38116705   7.324   1.615   3.606 -0.4037 -0.2006 -0.1690
   23MOL   C38216706   7.351   1.630   3.756 -0.3704  0.2911  0.2381
   23MOL   C38316707   7.241   1.614   3.861  0.5531 -0.0932 -0.3071
   23MOL   C38416708   7.286   1.646   4.005  0.2762  0.3995  0.6919
   23MOL   N38516709   7.178   1.620   4.102 -0.3507 -0.1646 -0.5139
   23MOL   H38616710   6.879   1.028   3.186 -0.9082 -0.7180 -0.9647
   23MOL   H38716711   6.730   1.080   3.246 -1.8478 -2.0719 -2.2642
   23MOL   H38816712   6.856   1.306   3.108 -1.7450 -0.7561 -0.7541
   23MOL   H38916713   6.852   1.282   3.284  1.3113  1.9792 -0.4784
   23MOL   H39016714   7.060   1.203   3.075 -2.2291 -0.0136 -0.3572
   23MOL   H39116715   7.060   1.138   3.241  1.5018  0.1237  0.9146
   23MOL   H39216716   7.211   1.351   3.168  0.3314 -2.5545  0.4077
   23MOL   H39316717   7.070   1.429   3.153 -1.0053 -1.6428 -0.8932
   23MOL   H39416718   7.146   1.280   3.415  2.4172  0.4914  0.4528
   23MOL   H39516719   7.034   1.432   3.398 -1.3414 -0.6716 -2.9317
   23MOL   H39616720   7.209   1.564   3.374 -1.8279 -0.9008 -0.0674
   23MOL   H39716721   7.329   1.442   3.366  0.0738 -2.0124  0.8915
   23MOL   H39816722   7.322   1.392   3.587  0.3953  0.0068 -1.0438
   23MOL   H39916723   7.165   1.464   3.609  0.4865 -0.7217  0.5723
   23MOL   H40016724   7.249   1.693   3.587 -0.2079 -0.1588 -0.7834
   23MOL   H40116725   7.415   1.632   3.549  0.0312  0.7343  0.7849
   23MOL   H40216726   7.394   1.728   3.776  0.9228  0.2847 -2.2834
   23MOL   H40316727   7.428   1.555   3.776  0.1627 -0.0462 -2.8497
   23MOL   H40416728   7.198   1.515   3.851  0.2294 -0.1043  1.0198
   23MOL   H40516729   7.176   1.693   3.822  1.7254 -0.3852 -2.9361
   23MOL   H40616730   7.319   1.749   4.017 -1.0299  0.8602  0.4178
   23MOL   H40716731   7.369   1.578   4.025 -0.2922 -0.6906 -0.5705
   23MOL   H40816732   7.146   1.525   4.116 -0.3143 -0.2741 -1.1651
   23MOL   C40916733   7.124   1.720   4.168 -1.1343 -0.0961 -0.5154
   23MOL   O41016734   7.156   1.839   4.149 -0.7151 -0.4602  0.3912
   23MOL   C41116735   7.017   1.694   4.272  0.3148  0.4316  0.2465
   23MOL   C41216736   6.877   1.704   4.214 -0.0147  0.2135 -0.1437
   23MOL   C41316737   6.779   1.600   4.275  0.0743 -0.2009  0.1071
   23MOL   C41416738   6.633   1.627   4.238  0.5065 -0.4199 -0.3830
   23MOL   C41516739   6.611   1.619   4.085 -0.4304 -0.0743  0.6520
   23MOL   C41616740   6.628   1.482   4.032 -0.0873 -0.2156  0.1660
   23MOL   C41716741   6.602   1.468   3.884 -0.0538 -0.0541 -0.3239
   23MOL   C41816742   6.613   1.318   3.839 -0.2337 -0.1223  0.3029
   23MOL   C41916743   6.589   1.302   3.686  0.7452  0.0093 -0.3988
   23MOL   C42016744   6.569   1.158   3.652 -0.6247  0.0508  0.0140
   23MOL   C42116745   6.539   1.132   3.509 -0.0051 -0.5846  0.0222
   23MOL   N42216746   6.509   0.988   3.483 -0.5642  0.5058  0.3559
   23MOL   H42316747   7.025   1.769   4.351  1.7211  1.2498 -0.6469
   23MOL   H42416748   7.026   1.596   4.318 -1.0803  0.2713  0.1896
   23MOL   H42516749   6.849   1.808   4.229  0.4283  0.1506  1.2902
   23MOL   H42616750   6.891   1.683   4.108  1.1105 -0.9680  0.2228
   23MOL   H42716751   6.788   1.620   4.382 -0.0125 -0.8841  0.2475
   23MOL   H42816752   6.803   1.494   4.263  0.7653 -0.3493  2.4025
   23MOL   H42916753   6.563   1.567   4.295  0.0184 -0.7458 -1.3181
   23MOL   H43016754   6.603   1.726   4.273 -0.4698 -0.4029 -1.2427
   23MOL   H43116755   6.671   1.678   4.015 -0.8775 -2.1328 -1.5168
   23MOL   H43216756   6.509   1.651   4.065 -0.8040 -2.2644 -1.0976
   23MOL   H43316757   6.569   1.412   4.091 -0.6502 -0.5434 -0.7755
   23MOL   H43416758   6.731   1.452   4.050  0.0587 -0.2166 -0.6607
   23MOL   H43516759   6.663   1.535   3.824 -1.8323  0.8272 -1.1645
   23MOL   H43616760   6.500   1.504   3.876  0.2121  1.0523  1.1348
   23MOL   H43716761   6.551   1.259   3.907  0.2942  2.4532  3.0867
   23MOL   H43816762   6.711   1.279   3.866 -0.6889 -1.4122  0.1619
   23MOL   H43916763   6.664   1.350   3.624  1.1264  0.0042  0.0519
   23MOL   H44016764   6.492   1.344   3.659  1.0498  0.0127 -1.4918
   23MOL   H44116765   6.491   1.112   3.714 -0.6087  1.0590  0.7962
   23MOL   H44216766   6.652   1.090   3.669 -0.3966  0.5520  0.9702
   23MOL   H44316767   6.625   1.160   3.449 -0.2090  2.8004  1.1951
   23MOL   H44416768   6.459   1.200   3.480  0.3057  0.4308  1.4931
   23MOL   H44516769   6.533   0.925   3.558 -0.7892  0.7744  0.6582
   23MOL   C44616770   6.459   0.944   3.365 -0.8473 -0.0637  0.1308
   23MOL   O44716771   6.454   1.021   3.272  0.1374  0.0736 -0.4298
   23MOL   C44816772   6.426   0.796   3.360 -0.0554  0.0307 -0.4456
   23MOL   C44916773   6.282   0.789   3.304 -0.0838 -0.1334  0.1464
   23MOL   C45016774   6.218   0.651   3.314 -0.1614 -0.0935 -0.0330
   23MOL   C45116775   6.068   0.651   3.261 -0.8623  0.0032  0.1273
   23MOL   C45216776   6.009   0.513   3.313  0.1866 -0.4648  0.2323
   23MOL   C45316777   5.868   0.497   3.264  0.0709  0.5641  0.8198
   23MOL   C45416778   5.806   0.360   3.314  0.0887 -0.3647  0.4177
   23MOL   C45516779   5.847   0.243   3.219  0.1119  0.0465 -0.4222
   23MOL   C45616780   5.748   0.254   3.093  0.0790  0.4012 -0.0869
   23MOL   C45716781   5.617   0.176   3.109  0.0035 -0.5380  0.3184
   23MOL   C45816782   5.533   0.153   2.979 -0.1815 -0.2751 -0.7087
   23MOL   N45916783   5.618   0.096   2.872 -0.1387 -0.4751 -0.5047
   23MOL   H46016784   6.426   0.752   3.460  0.0535 -1.3966 -1.0622
   23MOL   H46116785   6.494   0.736   3.300  1.9896 -0.0600  1.9193
   23MOL   H46216786   6.219   0.867   3.349 -2.0416 -1.0084 -1.0070
   23MOL   H46316787   6.277   0.817   3.199  0.4955  0.9718  0.3984
   23MOL   H46416788   6.213   0.611   3.416  0.3081  0.7231  0.3184
   23MOL   H46516789   6.276   0.579   3.258  0.4227 -0.1659  0.6563
   23MOL   H46616790   6.015   0.733   3.309 -0.9315 -0.8413  1.5364
   23MOL   H46716791   6.063   0.658   3.153  1.3829 -1.4135 -0.0966
   23MOL   H46816792   6.020   0.503   3.421  0.2702 -1.7390  0.1155
   23MOL   H46916793   6.073   0.438   3.268  1.1361  0.8690 -0.6652
   23MOL   H47016794   5.872   0.490   3.155  2.1315 -0.3629  0.9440
   23MOL   H47116795   5.809   0.586   3.287 -0.6746  0.3332 -0.1362
   23MOL   H47216796   5.697   0.366   3.315  0.1833  2.0446 -0.7436
   23MOL   H47316797   5.820   0.326   3.417  0.4430  0.1096  0.5310
   23MOL   H47416798   5.829   0.148   3.268 -0.2677 -0.7199 -2.0122
   23MOL   H47516799   5.955   0.250   3.209  0.0446  0.1143 -1.1382
   23MOL   H47616800   5.798   0.206   3.008  1.4319  0.0719  0.8807
   23MOL   H47716801   5.724   0.354   3.055 -1.7882 -0.8538 -2.3084
   23MOL   H47816802   5.550   0.223   3.181  0.9356 -0.3230  1.0565
   23MOL   H47916803   5.644   0.078   3.149  0.5633 -0.7245 -0.4974
   23MOL   H48016804   5.501   0.254   2.955 -0.6849 -0.3745 -0.4673
   23MOL   H48116805   5.450   0.089   3.008 -1.9393  1.5640 -1.5325
   23MOL   H48216806   5.626   0.145   2.784  3.3935 -0.1532 -0.0694
   23MOL   C48316807   5.662   7.662   2.878  0.4219 -0.9888  0.0470
   23MOL   O48416808   5.630   7.596   2.974 -0.3880 -0.0096 -0.1399
   23MOL   C48516809   5.737   7.591   2.770 -0.6761  0.8843  0.2705
   23MOL   C48616810   5.875   7.538   2.804 -0.1650  0.2445 -0.4619
   23MOL   C48716811   5.961   7.648   2.865  0.3512  0.1857 -0.1178
   23MOL   C48816812   6.106   7.599   2.890  0.0899  0.3401 -0.4504
   23MOL   C48916813   6.211   0.009   2.920  0.2210 -0.5166  0.4017
   23MOL   C49016814   6.182   0.082   3.049  0.0545  0.8825 -0.2400
   23MOL   C49116815   6.301   0.179   3.090 -0.3893 -0.2061 -0.1772
   23MOL   C49216816   6.294   0.224   3.238 -0.0247  0.7474 -0.3319
   23MOL   C49316817   6.349   0.102   3.322  0.5312 -0.6865  0.1614
   23MOL   C49416818   6.346   0.130   3.473 -0.3956  0.1726 -0.5941
   23MOL   C49516819   6.445   0.030   3.535  0.1232 -0.3037 -0.4960
   23MOL   N49616820   6.437   0.047   3.678  0.2285  0.3675 -0.2932
   23MOL   H49716821   5.751   7.660   2.686 -0.4934  0.0186 -0.4193
   23MOL   H49816822   5.672   7.516   2.724 -0.6257  1.0285 -0.0369
   23MOL   H49916823   5.864   7.459   2.879  0.8515 -0.2848 -0.8549
   23MOL   H50016824   5.918   7.495   2.713 -0.4308  1.3358 -1.1071
   23MOL   H50116825   5.909   7.690   2.951  1.0118 -0.5206  0.6283
   23MOL   H50216826   5.970   0.035   2.792 -1.9287 -1.5131 -2.3975
   23MOL   H50316827   6.106   7.525   2.970  0.1044  0.7989 -0.0257
   23MOL   H50416828   6.141   7.540   2.806  0.8531  0.9587 -0.5709
   23MOL   H50516829   6.201   0.086   2.843  1.4723 -3.1135 -2.4522
   23MOL   H50616830   6.315   7.672   2.932  0.7548 -0.0286 -2.4794
   23MOL   H50716831   6.157   0.000   3.117 -3.8123  2.8193  0.8499
   23MOL   H50816832   6.095   0.147   3.049 -0.6802 -0.0783 -1.4612
   23MOL   H50916833   6.300   0.273   3.035 -0.7005  1.1863  2.1468
   23MOL   H51016834   6.395   0.130   3.063  0.0345  0.7470 -0.4523
   23MOL   H51116835   6.191   0.242   3.268  0.1323 -0.9049  1.3099
   23MOL   H51216836   6.360   0.309   3.256  0.0248  0.3861  1.3497
   23MOL   H51316837   6.457   0.099   3.308  0.8735 -0.2977  2.5279
   23MOL   H51416838   6.306   0.005   3.294 -1.9494  1.0678 -2.4195
   23MOL   H51516839   6.243   0.118   3.508  0.2304 -2.8055  0.4074
   23MOL   H51616840   6.389   0.229   3.488  2.7223 -1.3715  1.1022
   23MOL   H51716841   6.546   0.058   3.506 -0.1173  1.5183  0.3529
   23MOL   H51816842   6.426   7.623   3.498 -1.1109 -0.3793  0.3468
   23MOL   H51916843   6.500   0.106   3.730  1.4581 -0.3672 -0.9245
   23MOL   C52016844   6.346   7.670   3.750 -0.3625 -0.4314 -0.1441
   23MOL   O52116845   6.271   7.582   3.702 -0.6354  0.1546 -0.1825
   23MOL   C52216846   6.344   0.003   3.900 -0.3715  0.4975 -0.7253
   23MOL   C52316847   6.216   7.642   3.969  0.0285 -0.1798  0.1933
   23MOL   C52416848   6.205   7.674   4.122  0.2522  0.1251  0.0644
   23MOL   C52516849   6.069   7.633   4.167  0.3971 -0.0605 -0.0391
   23MOL   C52616850   6.056   7.660   4.318 -0.1319  0.0063 -0.0737
   23MOL   C52716851   5.920   7.596   4.370 -0.5692  0.2186  0.2163
   23MOL   C52816852   5.897   7.628   4.515 -0.0907  0.7774  0.4552
   23MOL   C52916853   5.763   7.564   4.555 -0.9679  0.0129  0.1746
   23MOL   C53016854   5.727   7.622   4.696  0.2537  0.0980  0.0900
   23MOL   C53116855   5.817   7.560   4.808  0.2037  0.0958  0.1185
   23MOL   C53216856   5.785   7.611   4.945 -0.8066 -0.2939 -0.7117
   23MOL   N53316857   5.893   7.569   5.038  0.1341 -0.5867 -0.0172
   23MOL   H53416858   6.348   0.111   3.912 -1.6756  0.4467  0.2529
   23MOL   H53516859   6.434   7.665   3.953  0.9413  2.6831 -1.6009
   23MOL   H53616860   6.147   0.012   3.915  1.7328  1.2671 -0.3252
   23MOL   H53716861   6.217   7.534   3.953 -1.4873 -0.0848 -0.5902
   23MOL   H53816862   6.222   0.088   4.127 -0.7448  0.3740 -1.5291
   23MOL   H53916863   6.282   7.620   4.177  0.5761  0.7420  0.2319
   23MOL   H54016864   5.988   7.685   4.116  0.0306  0.1003  0.7011
   23MOL   H54116865   6.053   7.532   4.130  1.4726 -0.2306 -0.0490
   23MOL   H54216866   6.060   0.072   4.345 -1.2662 -0.1367  0.6753
   23MOL   H54316867   6.128   7.606   4.379  0.7120  0.4024 -0.7034
   23MOL   H54416868   5.923   7.489   4.351 -0.1993  0.4705 -1.1826
   23MOL   H54516869   5.837   7.633   4.310 -0.2876  2.3083  1.0820
   23MOL   H54616870   5.888   0.041   4.534 -0.3401  1.0765 -1.2512
   23MOL   H54716871   5.982   7.587   4.570  0.9151  2.1468 -0.0359
   23MOL   H54816872   5.768   7.455   4.560  1.8049  0.1380  0.8796
   23MOL   H54916873   5.690   7.593   4.479 -2.0449 -0.7648  0.8864
   23MOL   H55016874   5.623   7.612   4.725  0.8127 -4.1784  0.8877
   23MOL   H55116875   5.739   0.037   4.693 -0.9005  0.2705  1.2805
   23MOL   H55216876   5.918   7.588   4.779  0.3827 -1.0192 -0.3610
   23MOL   H55316877   5.821   7.451   4.811  0.4867  0.1074  0.1372
   23MOL   H55416878   5.681   7.586   4.966 -0.3110 -1.4359  0.4035
   23MOL   H55516879   5.787   0.026   4.960 -0.9828 -0.2558 -0.9667
   23MOL   H55616880   5.980   7.526   5.009  0.3303  0.9960 -1.8879
   23MOL   C55716881   5.880   7.589   5.168  0.1243 -0.5661 -0.6058
   23MOL   O55816882   5.777   7.643   5.214  0.4038  0.2251 -0.1950
   23MOL   C55916883   5.985   7.531   5.256 -0.3267  0.2882 -0.1551
   23MOL   C56016884   6.095   7.626   5.305  0.9626 -0.5119 -0.8981
   23MOL   C56116885   6.172   7.691   5.191  0.0498 -0.3221  0.1077
   23MOL   C56216886   6.296   0.073   5.245  0.4081 -0.2641 -0.1122
   23MOL   C56316887   6.381   0.163   5.144  0.0888  0.4105 -0.3988
   23MOL   C56416888   6.488   0.251   5.220 -0.3455  0.7838  0.1534
   23MOL   C56516889   6.585   0.326   5.127  0.5813  0.0253 -0.9518
   23MOL   C56616890   6.666   0.429   5.207 -0.3713  0.1845  0.5881
   23MOL   C56716891   6.710   0.384   5.349  0.3972 -0.0631 -0.5085
   23MOL   C56816892   6.790   0.486   5.422 -0.2836  0.2067  0.1798
   23MOL   C56916893   6.891   0.430   5.529 -0.2607  0.6910 -0.0924
   23MOL   N57016894   6.974   0.533   5.588 -0.3219  0.1022  0.4121
   23MOL   H57116895   6.031   7.448   5.203 -0.7142 -1.0490  1.5538
   23MOL   H57216896   5.925   7.487   5.335  0.1154  2.9156  1.7145
   23MOL   H57316897   6.055   0.010   5.370 -1.4321 -2.4098 -0.0255
   23MOL   H57416898   6.167   7.568   5.363  1.4269  1.2763  0.3290
   23MOL   H57516899   6.109   0.068   5.136 -0.6395 -1.4381 -0.5790
   23MOL   H57616900   6.209   7.612   5.125 -1.3826 -1.6233  0.7946
   23MOL   H57716901   6.275   0.136   5.332  1.3806  1.2232 -0.9386
   23MOL   H57816902   6.363   7.692   5.285  2.2190 -0.1448 -2.7791
   23MOL   H57916903   6.317   0.244   5.107  0.4444  1.8656  2.0098
   23MOL   H58016904   6.420   0.100   5.065 -0.1385 -1.1953  0.7537
   23MOL   H58116905   6.549   0.190   5.286  1.0693  1.4946 -0.4724
   23MOL   H58216906   6.442   0.321   5.289 -2.4020 -0.8167  0.4468
   23MOL   H58316907   6.530   0.372   5.044 -1.7046 -0.2614  0.3601
   23MOL   H58416908   6.641   0.245   5.080 -1.4244 -1.0528 -1.5427
   23MOL   H58516909   6.608   0.519   5.227 -1.3171 -0.4304  0.6523
   23MOL   H58616910   6.744   0.464   5.139  1.0110 -3.2003  0.3631
   23MOL   H58716911   6.774   0.299   5.327 -2.0293 -2.0988  0.0129
   23MOL   H58816912   6.629   0.357   5.418  1.6449 -1.0537  0.5907
   23MOL   H58916913   6.734   0.561   5.478  0.8707  0.0146  1.6386
   23MOL   H59016914   6.834   0.550   5.347 -1.3500  1.7319  0.8359
   23MOL   H59116915   6.946   0.347   5.485  0.3836  0.6057  0.8569
   23MOL   H59216916   6.843   0.380   5.614  0.9018 -1.6521 -0.7810
   23MOL   H59316917   6.981   0.622   5.542 -0.3832 -0.0375  0.1317
   23MOL   C59416918   7.048   0.508   5.690 -0.3536 -1.0154 -0.6798
   23MOL   O59516919   7.037   0.412   5.768 -0.5746 -0.3992  0.3340
   23MOL   C59616920   7.141   0.623   5.725  0.7623  0.1800  0.2188
   23MOL   C59716921   7.171   0.639   5.873 -0.4777 -0.4872 -0.1913
   23MOL   C59816922   7.215   0.776   5.905  0.0692  0.0099  0.4862
   23MOL   C59916923   7.365   0.807   5.879 -0.0820  0.2512  0.5089
   23MOL   C60016924   7.417   0.956   5.912  0.4091  0.1643 -0.8838
   23MOL   C60116925   7.397   1.006   6.059 -0.2872  0.6407  0.2452
   23MOL   C60216926   7.450   1.146   6.082 -0.3626 -0.0627  0.3821
   23MOL   C60316927   7.344   1.254   6.106  0.7731 -1.1560 -0.2462
   23MOL   C60416928   7.273   1.307   5.971  0.0248  0.1234 -0.0186
   23MOL   C60516929   7.143   1.389   5.999  0.2501 -0.6695 -0.4930
   23MOL   C60616930   7.174   1.532   6.053  0.8789  0.6179  0.0034
   23MOL   N60716931   7.054   1.611   6.066 -0.1911  0.5677 -0.5458
   23MOL   H60816932   7.100   0.719   5.694 -1.6413  0.0165  2.6775
   23MOL   H60916933   7.232   0.610   5.667  2.8295 -0.1439  3.4399
   23MOL   H61016934   7.089   0.613   5.939 -1.3116  2.4021 -0.0138
   23MOL   H61116935   7.253   0.579   5.914 -1.3868 -0.0178  2.3756
   23MOL   H61216936   7.196   0.787   6.011 -2.8016 -0.2972  0.0440
   23MOL   H61316937   7.143   0.847   5.863  0.6427 -0.8795 -2.0793
   23MOL   H61416938   7.432   0.745   5.938 -0.9334 -0.3641  0.8379
   23MOL   H61516939   7.376   0.783   5.773 -3.1171  2.6083 -0.4064
   23MOL   H61616940   7.367   1.021   5.840 -2.8362 -0.9476  0.3057
   23MOL   H61716941   7.523   0.966   5.888  0.3575 -0.3920 -1.3453
   23MOL   H61816942   7.450   0.945   6.132 -2.4646 -0.8999  0.5668
   23MOL   H61916943   7.293   0.990   6.084  0.2165 -0.9706  1.3923
   23MOL   H62016944   7.513   1.172   5.997  0.1363 -0.1832  0.7120
   23MOL   H62116945   7.519   1.131   6.165 -1.3677  1.5985  1.5663
   23MOL   H62216946   7.394   1.343   6.144  0.4946 -1.0624 -0.0957
   23MOL   H62316947   7.273   1.225   6.183  1.7285 -1.6399  0.4557
   23MOL   H62416948   7.242   1.221   5.912  1.0636 -0.7205  0.6592
   23MOL   H62516949   7.335   1.375   5.912 -1.3212 -1.2821 -3.1275
   23MOL   H62616950   7.068   1.333   6.054 -0.6172 -1.6952 -2.6438
   23MOL   H62716951   7.100   1.400   5.899  1.7035  1.0590 -0.9583
   23MOL   H62816952   7.244   1.585   5.988 -0.6377  0.7458 -1.5718
   23MOL   H62916953   7.225   1.526   6.149  1.4760 -0.0492 -0.3459
   23MOL   H63016954   6.972   1.565   6.101  0.0605 -0.5607 -1.4170
   23MOL   C63116955   7.054   1.741   6.038  0.0871  0.1574  0.2679
   23MOL   O63216956   7.148   1.800   5.986  0.0237 -0.2146 -0.2988
   23MOL   C63316957   6.929   1.818   6.076 -0.5857 -0.3127  1.0087
   23MOL   C63416958   6.826   1.823   5.968  0.0926 -0.3357 -0.1807
   23MOL   C63516959   6.718   1.927   6.004  1.0476 -0.5149 -0.8002
   23MOL   C63616960   6.626   1.933   5.884  0.6380  0.4624 -0.2052
   23MOL   C63716961   6.558   2.069   5.857  0.0242  0.0672  0.3803
   23MOL   C63816962   6.446   2.063   5.757  0.1377 -0.7789 -0.3976
   23MOL   C63916963   6.390   2.203   5.718  0.1574 -0.0407  0.2934
   23MOL   C64016964   6.272   2.189   5.626  0.3600 -0.9756  0.5050
   23MOL   C64116965   6.302   2.136   5.485 -0.8719  0.3413 -0.0942
   23MOL   C64216966   6.409   2.214   5.414 -0.4420 -0.4872  0.3689
   23MOL   C64316967   6.432   2.160   5.270  0.1105  0.0276  0.2617
   23MOL   N64416968   6.544   2.238   5.211 -0.3069 -0.0903 -0.3477
   23MOL   H64516969   6.954   1.922   6.096  0.9695 -0.3070 -0.7886
   23MOL   H64616970   6.885   1.779   6.167 -0.5731 -0.2336  1.0492
   23MOL   H64716971   6.883   1.867   5.886  1.2453 -1.1308  0.1919
   23MOL   H64816972   6.787   1.727   5.932  1.2941 -1.2336  0.8815
   23MOL   H64916973   6.765   2.025   6.009 -2.4077  1.1077  1.6548
   23MOL   H65016974   6.664   1.917   6.098 -1.3733  0.3898 -2.0420
   23MOL   H65116975   6.682   1.887   5.802  0.3639  0.0488 -0.1635
   23MOL   H65216976   6.544   1.862   5.893 -0.5916  1.7678 -0.8683
   23MOL   H65316977   6.636   2.139   5.827  0.4358 -0.4793  0.1542
   23MOL   H65416978   6.511   2.114   5.944 -1.7379 -0.6599 -0.1846
   23MOL   H65516979   6.359   2.018   5.805  0.2886  0.1368  0.7736
   23MOL   H65616980   6.472   2.000   5.673  0.7080 -0.3398 -0.5534
   23MOL   H65716981   6.473   2.265   5.682 -0.5464  0.9270  0.3115
   23MOL   H65816982   6.359   2.256   5.808  1.8212 -0.8176  1.3491
   23MOL   H65916983   6.230   2.289   5.614  2.8496 -0.1887 -2.1707
   23MOL   H66016984   6.193   2.125   5.667 -0.9322 -0.3129 -0.8945
   23MOL   H66116985   6.214   2.144   5.421  0.3092 -0.0242 -1.7976
   23MOL   H66216986   6.332   2.031   5.489 -1.8626  0.0615  0.0335
   23MOL   H66316987   6.501   2.217   5.473  1.6922  0.1130 -2.8887
   23MOL   H66416988   6.387   2.321   5.419  0.0359 -0.2938 -1.2734
   23MOL   H66516989   6.337   2.173   5.220 -1.1184 -1.8800  2.0012
   23MOL   H66616990   6.457   2.054   5.273 -2.5075 -0.6556 -1.0331
   23MOL   H66716991   6.626   2.248   5.269  0.0970 -0.2557 -0.8950
   23MOL   C66816992   6.518   2.317   5.108 -0.3022 -0.1415 -0.5165
   23MOL   O66916993   6.408   2.316   5.051 -0.2980 -0.2029 -0.0935
   23MOL   C67016994   6.633   2.400   5.050 -0.9185  0.3583 -0.4141
   23MOL   C67116995   6.623   2.436   4.897 -0.3926 -0.6631  0.0982
   23MOL   C67216996   6.695   2.563   4.855 -0.4844  1.5158 -0.0077
   23MOL   C67316997   6.696   2.592   4.712 -0.0319 -0.7303  0.1209
   23MOL   C67416998   6.786   2.714   4.679  0.3128  0.6648  0.2084
   23MOL   C67516999   6.774   2.753   4.530 -0.3429  0.0103  0.3466
   23MOL   C67617000   6.882   2.843   4.484 -0.3572 -0.4500  0.3618
   23MOL   C67717001   6.895   2.873   4.329 -0.5161 -0.3239 -0.3899
   23MOL   C67817002   7.031   2.919   4.283 -0.3607  0.1310 -0.0803
   23MOL   C67917003   7.081   3.056   4.312  0.7785 -0.4253  0.6489
   23MOL   C68017004   7.010   3.165   4.226  0.0288 -0.3575  0.3406
   23MOL   N68117005   7.065   3.297   4.239 -0.1361 -0.3699  0.0583
   23MOL   H68217006   6.720   2.336   5.062 -0.1194  1.5290  0.1606
   23MOL   H68317007   6.641   2.489   5.112 -0.3040  0.1861 -0.2441
   23MOL   H68417008   6.661   2.355   4.834 -1.4217  0.8994 -2.5978
   23MOL   H68517009   6.522   2.439   4.857  1.1069  1.6543 -3.8374
   23MOL   H68617010   6.794   2.537   4.892 -0.8633 -0.9138 -0.6045
   23MOL   H68717011   6.665   2.655   4.904 -3.2380  1.1113 -0.9016
   23MOL   H68817012   6.731   2.501   4.664  2.5992 -0.1783  0.9109
   23MOL   H68917013   6.598   2.601   4.665  0.2509 -1.7078 -0.6591
   23MOL   H69017014   6.887   2.688   4.710  0.4091  0.4120 -0.3040
   23MOL   H69117015   6.759   2.795   4.746  1.1241  2.8578 -2.0470
   23MOL   H69217016   6.677   2.796   4.506  1.3144  3.1443 -0.9897
   23MOL   H69317017   6.791   2.661   4.473  2.1366  0.4579  0.3170
   23MOL   H69417018   6.973   2.794   4.517 -0.2550 -0.4725  0.0537
   23MOL   H69517019   6.866   2.936   4.539  0.1459  1.5395 -2.7069
   23MOL   H69617020   6.819   2.945   4.298  2.0773  1.7199 -2.2442
   23MOL   H69717021   6.868   2.775   4.291  0.6242 -0.5892 -0.5445
   23MOL   H69817022   7.027   2.905   4.175  0.3818 -0.0977 -0.0811
   23MOL   H69917023   7.114   2.854   4.312 -0.3508  0.7167  1.2497
   23MOL   H70017024   7.190   3.061   4.303  0.6065 -1.0663 -2.4785
   23MOL   H70117025   7.075   3.073   4.419  0.0072  0.1125  0.5258
   23MOL   H70217026   6.904   3.172   4.250  0.1924 -0.0485  0.9956
   23MOL   H70317027   7.016   3.141   4.120 -1.5257  1.9643 -0.3055
   23MOL   H70417028   7.117   3.335   4.161  0.8644 -0.3363  0.7245
   23MOL   C70517029   7.050   3.376   4.349  0.1825 -0.2342  0.4588
   23MOL   O70617030   6.987   3.332   4.448 -0.3699 -0.5729 -0.8428
   23MOL   C70717031   7.093   3.518   4.338  0.0673  0.4703 -0.3116
   23MOL   C70817032   7.080   3.616   4.462  0.8661  0.0508  0.3760
   23MOL   C70917033   7.199   3.604   4.556 -0.2697 -0.3609  0.3870
   23MOL   C71017034   7.177   3.498   4.664 -0.2164 -0.1712 -0.2590
   23MOL   C71117035   7.293   3.485   4.761  0.4725 -0.2556  0.0264
   23MOL   C71217036   7.409   3.417   4.699 -0.2146 -0.2105  0.0937
   23MOL   C71317037   7.517   3.383   4.807  0.5376 -0.6816 -0.0677
   23MOL   C71417038   7.607   3.273   4.756 -0.1629 -0.0713 -0.2986
   23MOL   C71517039   0.036   3.247   4.842  0.8324  0.4537  0.2242
   23MOL   C71617040   0.124   3.135   4.785  0.1169  0.4360 -0.6873
   23MOL   C71717041   0.236   3.100   4.888 -0.1783  0.0043 -0.7573
   23MOL   N71817042   0.310   2.988   4.843  0.1366  0.1104  0.4795
   23MOL   H71917043   7.045   3.562   4.251 -0.2650  0.4817 -0.1244
   23MOL   H72017044   7.195   3.516   4.301  0.9003  1.8287  1.8045
   23MOL   H72117045   7.070   3.713   4.413 -0.5578  0.0406  0.6276
   23MOL   H72217046   6.987   3.603   4.517  0.7675 -0.8632  0.0017
   23MOL   H72317047   7.211   3.702   4.602 -0.9400 -0.4970  0.8428
   23MOL   H72417048   7.293   3.593   4.501 -0.0052  0.8272  0.5947
   23MOL   H72517049   7.091   3.527   4.725 -0.1982 -1.0392  0.1818
   23MOL   H72617050   7.149   3.402   4.621  0.6453 -1.0509  1.1221
   23MOL   H72717051   7.257   3.434   4.851 -1.3143  0.2011 -0.4086
   23MOL   H72817052   7.344   3.579   4.784  1.3385 -0.7371  0.0594
   23MOL   H72917053   7.456   3.475   4.620  1.0441  0.6168  1.4167
   23MOL   H73017054   7.365   3.321   4.669 -0.9410  0.0303  0.3959
   23MOL   H73117055   7.479   3.359   4.906 -1.3162 -0.6467 -0.7546
   23MOL   H73217056   7.575   3.474   4.825 -2.6745  1.3583  0.3081
   23MOL   H73317057   7.651   3.294   4.659 -0.0775  2.2268  0.2197
   23MOL   H73417058   7.547   3.182   4.748 -0.6784  0.2695 -0.3366
   23MOL   H73517059   0.021   3.219   4.946 -1.6723  0.6889 -0.0484
   23MOL   H73617060   0.081   3.346   4.844  0.5343  0.5515  2.2517
   23MOL   H73717061   0.166   3.188   4.700 -1.3823  2.1209 -0.4282
   23MOL   H73817062   0.069   3.044   4.765  2.4781 -0.3540 -3.9131
   23MOL   H73917063   0.200   3.072   4.987  0.5366  0.4961 -0.3506
   23MOL   H74017064   0.304   3.185   4.891  0.9289 -0.8136 -1.8187
   23MOL   H74117065   0.247   2.910   4.834  0.4826 -0.1156  0.0323
   23MOL   H74217066   0.375   2.957   4.914 -1.3501 -0.5970  1.5658
   24MOL     C117067   3.852   1.428   3.719  0.8171 -0.6995 -0.1278
   24MOL     O217068   3.926   1.372   3.802 -0.2233 -0.0854  0.5951
   24MOL     C317069   3.705   1.455   3.761 -0.2114 -0.4647  0.4301
   24MOL     C417070   3.674   1.484   3.910 -0.5868  0.7204  0.1211
   24MOL     C517071   3.520   1.517   3.942 -0.6507 -0.1634  0.2825
   24MOL     C617072   3.486   1.660   3.894 -0.7878 -0.3574 -0.5783
   24MOL     C717073   3.335   1.685   3.923  0.0140  0.5691 -0.6434
   24MOL     C817074   3.283   1.822   3.868 -0.0034 -0.5094 -0.3959
   24MOL     C917075   3.151   1.854   3.920 -0.1771 -0.1969 -0.3025
   24MOL    C1017076   3.081   1.963   3.845  0.3549 -0.3271 -0.2709
   24MOL    C1117077   3.133   2.101   3.855 -0.3443  0.0278 -0.3472
   24MOL    C1217078   3.061   2.206   3.775 -0.0694  0.1957 -0.0479
   24MOL    C1317079   3.108   2.346   3.800 -0.1003 -0.2154  1.1133
   24MOL    N1417080   3.031   2.428   3.712 -0.0410  0.5749  0.4314
   24MOL    H1517081   3.644   1.375   3.718 -0.3454 -0.4343  0.5643
   24MOL    H1617082   3.679   1.551   3.716  0.1583 -1.0579 -1.0973
   24MOL    H1717083   3.690   1.404   3.982 -0.3921  2.2126  1.7778
   24MOL    H1817084   3.737   1.565   3.947  0.9569  0.7704 -2.4899
   24MOL    H1917085   3.489   1.506   4.045  1.2871  0.7766  0.9902
   24MOL    H2017086   3.450   1.454   3.886 -0.1840  0.1408 -0.6685
   24MOL    H2117087   3.554   1.725   3.949  1.3030 -1.2273 -2.1031
   24MOL    H2217088   3.518   1.686   3.794  0.8414 -1.1701 -0.2962
   24MOL    H2317089   3.329   1.668   4.031 -2.2345  0.3807 -0.7720
   24MOL    H2417090   3.281   1.601   3.880  0.0381  0.2366 -0.0361
   24MOL    H2517091   3.285   1.817   3.759 -0.8585 -1.6746 -0.3753
   24MOL    H2617092   3.352   1.897   3.907 -0.1160 -1.1299  1.0419
   24MOL    H2717093   3.161   1.873   4.027 -1.2948 -2.1399  0.1788
   24MOL    H2817094   3.088   1.766   3.912  1.7178 -1.6731  0.4313
   24MOL    H2917095   2.974   1.966   3.867  0.1418 -1.4152 -1.1228
   24MOL    H3017096   3.076   1.927   3.742  0.6911  1.9708 -1.1310
   24MOL    H3117097   3.238   2.107   3.827 -0.4237 -1.4887 -1.0410
   24MOL    H3217098   3.135   2.131   3.960 -0.2560  0.2651 -0.4182
   24MOL    H3317099   2.956   2.207   3.802 -0.5983  2.0340 -2.0289
   24MOL    H3417100   3.073   2.185   3.668  1.3672 -1.3644  0.3920
   24MOL    H3517101   3.216   2.358   3.788 -0.3529 -1.8958 -3.8938
   24MOL    H3617102   3.086   2.375   3.903 -1.4263 -0.0375  0.7781
   24MOL    H3717103   2.935   2.403   3.693 -0.1469  1.2473  0.0529
   24MOL    H3817104   3.867   1.452   3.614 -0.6155 -1.3715 -0.4974
   24MOL    C3917105   3.066   2.553   3.662  0.0341 -0.2786  0.6077
   24MOL    O4017106   3.166   2.615   3.704  0.6033  1.1908 -0.3573
   24MOL    C4117107   2.973   2.619   3.566  0.0829  0.5624  0.2969
   24MOL    C4217108   3.049   2.705   3.468  0.2813  0.3964  0.4389
   24MOL    C4317109   3.156   2.631   3.391 -0.6423  0.0137  0.3427
   24MOL    C4417110   3.239   2.714   3.295 -0.1878 -0.4874  0.2310
   24MOL    C4517111   3.337   2.645   3.202 -0.7873 -0.4085 -1.2293
   24MOL    C4617112   3.435   2.746   3.137  0.0285 -0.6864 -0.4303
   24MOL    C4717113   3.532   2.670   3.046 -1.0499  0.9982 -0.0886
   24MOL    C4817114   3.625   2.758   2.964  0.4063 -0.4234 -0.0471
   24MOL    C4917115   3.710   2.666   2.875  0.4938  0.6540 -0.2286
   24MOL    C5017116   3.809   2.740   2.790 -0.5873 -0.1016 -0.2316
   24MOL    C5117117   3.745   2.810   2.667 -0.7901 -0.0531  0.5202
   24MOL    N5217118   3.717   2.718   2.553  0.6095 -0.0631 -0.1514
   24MOL    H5317119   2.889   2.665   3.617 -1.8066  0.2250 -2.3731
   24MOL    H5417120   2.935   2.533   3.510  0.7099  0.7483 -0.4363
   24MOL    H5517121   2.976   2.737   3.393  0.1027 -1.4595 -0.2077
   24MOL    H5617122   3.094   2.792   3.517  1.3784  0.4008 -0.5554
   24MOL    H5717123   3.108   2.544   3.346 -0.8461  0.7763 -0.9499
   24MOL    H5817124   3.221   2.576   3.460  2.6316 -0.9286 -3.3095
   24MOL    H5917125   3.167   2.768   3.234 -0.0865 -1.8047 -1.0849
   24MOL    H6017126   3.290   2.789   3.356 -1.9541  2.0873 -1.3672
   24MOL    H6117127   3.280   2.589   3.128 -0.1751  0.5699 -2.4580
   24MOL    H6217128   3.398   2.580   3.264 -0.1692  1.1817 -0.1419
   24MOL    H6317129   3.500   2.793   3.211  0.0633  0.8323 -1.3901
   24MOL    H6417130   3.379   2.832   3.099 -0.7035 -0.3715  1.2866
   24MOL    H6517131   3.476   2.606   2.978  1.7938 -2.5748  0.7548
   24MOL    H6617132   3.590   2.594   3.098  0.2973  0.6111 -2.0912
   24MOL    H6717133   3.694   2.813   3.028  0.7373  0.4583 -1.1404
   24MOL    H6817134   3.577   2.833   2.901  1.5993 -1.6052 -2.4482
   24MOL    H6917135   3.643   2.598   2.823  1.6395 -0.5746 -0.1433
   24MOL    H7017136   3.770   2.610   2.947  0.7303  1.8366  0.5132
   24MOL    H7117137   3.881   2.669   2.749 -1.1764 -0.4090 -0.7494
   24MOL    H7217138   3.855   2.818   2.850  0.4747  0.4620 -1.7510
   24MOL    H7317139   3.824   2.877   2.634 -0.2306 -0.6195  0.7161
   24MOL    H7417140   3.662   2.879   2.686 -0.3574  0.7146 -0.3232
   24MOL    H7517141   3.779   2.641   2.531  1.0450  0.0737  0.6009
   24MOL    C7617142   3.597   2.716   2.492 -0.3146  0.4750  0.2839
   24MOL    O7717143   3.510   2.804   2.505 -0.0480  0.2631 -0.2749
   24MOL    C7817144   3.565   2.594   2.407  0.2817 -0.5551  0.2444
   24MOL    C7917145   3.423   2.590   2.344 -0.4734 -0.2562 -0.1966
   24MOL    C8017146   3.396   2.680   2.215  0.2211  0.2184 -1.1179
   24MOL    C8117147   3.258   2.653   2.154  0.0625  0.0307 -0.0422
   24MOL    C8217148   3.214   2.755   2.056  0.0350  0.8444 -0.5346
   24MOL    C8317149   3.173   2.894   2.120 -0.1238  0.1966 -0.2892
   24MOL    C8417150   3.200   3.005   2.019 -0.1932 -0.3918 -0.1731
   24MOL    C8517151   3.134   2.985   1.879  0.2350 -0.1578 -0.3103
   24MOL    C8617152   3.171   3.101   1.785  0.3521  0.4711  0.0573
   24MOL    C8717153   3.089   3.224   1.827 -0.1591 -0.4297 -0.1880
   24MOL    C8817154   3.125   3.349   1.754 -0.2193 -0.0836  0.3419
   24MOL    N8917155   3.269   3.371   1.749  0.1761 -0.4991  0.1386
   24MOL    H9017156   3.567   2.509   2.475 -0.7555  0.6624  1.8424
   24MOL    H9117157   3.641   2.576   2.331  2.7064 -1.0776  2.7383
   24MOL    H9217158   3.409   2.486   2.313 -2.5970 -1.0233  3.0456
   24MOL    H9317159   3.351   2.606   2.425  1.4440 -0.5952  1.6125
   24MOL    H9417160   3.465   2.648   2.136  1.2478  2.0653 -0.9870
   24MOL    H9517161   3.414   2.785   2.238 -0.3334 -0.5584  3.2814
   24MOL    H9617162   3.272   2.559   2.101 -1.8473 -0.4105  0.2199
   24MOL    H9717163   3.185   2.645   2.234  0.5445 -0.0888  0.3890
   24MOL    H9817164   3.147   2.718   1.979  1.5542 -0.6330 -1.1881
   24MOL    H9917165   3.306   2.764   1.998 -1.6286  0.6673 -3.2615
   24MOL   H10017166   3.231   2.903   2.212 -1.4842  1.2128  0.4936
   24MOL   H10117167   3.065   2.889   2.136  0.0426 -2.9043  0.3010
   24MOL   H10217168   3.303   3.037   2.002 -0.0666 -0.3005  0.7510
   24MOL   H10317169   3.175   3.099   2.068  2.3902 -0.7218  1.9325
   24MOL   H10417170   3.027   2.980   1.897  0.2604 -1.0777 -0.3975
   24MOL   H10517171   3.160   2.887   1.838 -0.4487 -0.5511  0.1893
   24MOL   H10617172   3.151   3.078   1.681 -3.3726 -0.0051  0.8164
   24MOL   H10717173   3.278   3.120   1.785  0.6530 -1.0104 -2.7026
   24MOL   H10817174   3.106   3.254   1.930 -1.1306  2.5025 -0.8294
   24MOL   H10917175   2.981   3.215   1.816 -0.9527  2.7112  3.8149
   24MOL   H11017176   3.072   3.431   1.803  1.1631  0.5866  0.7378
   24MOL   H11117177   3.077   3.332   1.657  1.1862  0.9697 -0.5626
   24MOL   H11217178   3.298   3.325   1.664 -1.6722  2.1294 -2.0059
   24MOL   C11317179   3.352   3.433   1.833  0.2246 -0.2692  0.1898
   24MOL   O11417180   3.332   3.502   1.936  0.3006 -0.4414  0.3177
   24MOL   C11517181   3.496   3.424   1.789 -0.0904 -0.1001 -0.3729
   24MOL   C11617182   3.601   3.380   1.887 -0.1389 -1.1722 -0.7820
   24MOL   C11717183   3.734   3.353   1.820 -0.1553  0.2639 -0.5582
   24MOL   C11817184   3.761   3.214   1.758  0.6592 -0.1140 -0.6990
   24MOL   C11917185   3.890   3.213   1.677 -0.1361  0.6111  0.0112
   24MOL   C12017186   3.881   3.203   1.525 -0.0539 -0.0626  0.0625
   24MOL   C12117187   3.831   3.335   1.464  0.5378  0.0626 -0.4907
   24MOL   C12217188   3.744   3.310   1.341 -0.2907 -0.3752 -0.7220
   24MOL   C12317189   3.687   3.435   1.275  0.0205  0.3208 -0.2684
   24MOL   C12417190   3.598   3.390   1.156 -0.0294 -0.3185  0.2410
   24MOL   C12517191   3.501   3.490   1.096 -0.1591  1.0702 -0.4748
   24MOL   N12617192   3.433   3.444   0.974  0.0736  0.5214  0.1100
   24MOL   H12717193   3.522   3.521   1.746  1.2336  0.1070  0.8374
   24MOL   H12817194   3.497   3.351   1.708  1.4976 -0.1595 -0.3256
   24MOL   H12917195   3.610   3.470   1.949 -0.2646 -1.3728 -0.4713
   24MOL   H13017196   3.569   3.305   1.959  0.6321 -0.3971  0.3851
   24MOL   H13117197   3.806   3.383   1.896 -1.6977  1.2058  0.5647
   24MOL   H13217198   3.750   3.430   1.745  1.4829 -0.1599 -0.6531
   24MOL   H13317199   3.772   3.145   1.842 -0.9440 -0.2944 -0.6093
   24MOL   H13417200   3.673   3.185   1.700  0.9738 -0.9878 -0.7393
   24MOL   H13517201   3.940   3.130   1.727 -1.6469  0.4594  1.3401
   24MOL   H13617202   3.942   3.304   1.709 -1.3591  1.1919  0.4022
   24MOL   H13717203   3.813   3.120   1.504  1.1293 -1.0207 -0.0475
   24MOL   H13817204   3.978   3.171   1.489  0.2713 -1.3455  1.9753
   24MOL   H13917205   3.914   3.405   1.454  1.4771 -1.1075 -0.9281
   24MOL   H14017206   3.756   3.379   1.530 -0.4588 -3.6125  0.9425
   24MOL   H14117207   3.669   3.239   1.375 -0.8764 -0.4280 -2.0941
   24MOL   H14217208   3.803   3.258   1.266 -0.5297 -0.2962 -0.9636
   24MOL   H14317209   3.762   3.502   1.232  0.5989 -0.0368  0.1801
   24MOL   H14417210   3.625   3.491   1.345 -1.0548 -0.3220 -0.6983
   24MOL   H14517211   3.540   3.301   1.178  0.2107 -0.5540 -0.0657
   24MOL   H14617212   3.667   3.355   1.080 -1.7600 -2.7294 -0.2815
   24MOL   H14717213   3.563   3.576   1.073  2.3864 -0.7607 -0.6862
   24MOL   H14817214   3.431   3.524   1.172  0.0582 -0.0943  0.2645
   24MOL   H14917215   3.392   3.353   0.964  3.9806 -1.2734 -0.4162
   24MOL   C15017216   3.426   3.519   0.858 -0.2531 -0.2552 -0.0059
   24MOL   O15117217   3.483   3.630   0.851  0.3386 -0.1969 -0.0837
   24MOL   C15217218   3.353   3.448   0.746 -0.5398 -0.3716 -0.5242
   24MOL   C15317219   3.228   3.525   0.698 -0.3923  0.3867  0.5596
   24MOL   C15417220   3.125   3.537   0.802  0.9169 -0.1985  0.3193
   24MOL   C15517221   2.992   3.591   0.744 -0.1202 -0.5179  0.3656
   24MOL   C15617222   2.884   3.601   0.851  0.0498  0.2720  0.7477
   24MOL   C15717223   2.834   3.465   0.912  0.5436  0.0370  0.5347
   24MOL   C15817224   2.716   3.474   1.007  0.7469 -0.4976 -0.0331
   24MOL   C15917225   2.674   3.338   1.066  0.1576 -0.1835  0.0155
   24MOL   C16017226   2.526   3.328   1.111  0.4555 -0.0160  0.5725
   24MOL   C16117227   2.496   3.403   1.239  0.5618  0.3799 -0.0791
   24MOL   C16217228   2.371   3.350   1.305  0.2200  0.3816 -0.3567
   24MOL   N16317229   2.362   3.389   1.442 -0.4352 -0.2116 -0.6714
   24MOL   H16417230   3.360   3.340   0.759  1.4873 -0.6855 -3.4860
   24MOL   H16517231   3.413   3.453   0.655 -1.2245 -0.3297 -0.9770
   24MOL   H16617232   3.267   3.622   0.669 -2.1315  0.4580 -1.7020
   24MOL   H16717233   3.199   3.468   0.609 -0.6262  1.3586  0.0039
   24MOL   H16817234   3.160   3.605   0.881 -0.5870 -0.0913  0.9202
   24MOL   H16917235   3.094   3.444   0.850  2.3807 -0.8132  0.0917
   24MOL   H17017236   3.005   3.685   0.690  0.2789  0.0563  1.4548
   24MOL   H17117237   2.958   3.515   0.674 -1.7327  1.2480 -0.8003
   24MOL   H17217238   2.799   3.653   0.806  1.1449  0.7847 -0.7679
   24MOL   H17317239   2.923   3.657   0.936  1.4611  1.7965 -0.8802
   24MOL   H17417240   2.916   3.421   0.969 -0.6263 -0.4359  1.8894
   24MOL   H17517241   2.802   3.399   0.831  0.1572 -0.5718  1.1797
   24MOL   H17617242   2.626   3.516   0.963 -0.4084 -3.5240 -0.6500
   24MOL   H17717243   2.752   3.538   1.088  0.6061 -0.0926 -0.2915
   24MOL   H17817244   2.739   3.315   1.150  0.2702 -0.5623 -0.1719
   24MOL   H17917245   2.690   3.268   0.984  0.6221 -0.8817  0.6958
   24MOL   H18017246   2.510   3.221   1.116 -0.1814  0.1198  1.5102
   24MOL   H18117247   2.460   3.363   1.032 -1.6290 -2.1056  1.3523
   24MOL   H18217248   2.490   3.510   1.219 -0.4092  0.3202 -0.1453
   24MOL   H18317249   2.586   3.389   1.299  0.2610  0.2715  0.3497
   24MOL   H18417250   2.371   3.241   1.302  0.0065  0.3841 -0.4535
   24MOL   H18517251   2.281   3.375   1.248  0.5500  0.4412 -0.8561
   24MOL   H18617252   2.383   3.335   1.525 -0.2531  0.3440 -0.3516
   24MOL   C18717253   2.357   3.511   1.493  0.2793  0.2575 -0.4204
   24MOL   O18817254   2.329   3.611   1.420 -0.2396 -0.1546 -0.0069
   24MOL   C18917255   2.357   3.524   1.643  0.0244 -0.5868  0.3779
   24MOL   C19017256   2.453   3.640   1.689  0.6295  0.6625 -0.3936
   24MOL   C19117257   2.601   3.605   1.683  0.6134 -0.1250  0.8469
   24MOL   C19217258   2.695   3.719   1.728 -0.4519  0.3300 -0.7122
   24MOL   C19317259   2.844   3.673   1.729  0.6340 -0.0348  0.8396
   24MOL   C19417260   2.947   3.795   1.766  0.2376 -0.4753  0.1183
   24MOL   C19517261   3.086   3.735   1.795  0.5184  0.1243  0.4565
   24MOL   C19617262   3.190   3.813   1.870 -0.1642  0.4168  0.8183
   24MOL   C19717263   3.258   3.917   1.782 -0.5573  0.3047 -0.3710
   24MOL   C19817264   3.372   3.988   1.861  0.0243  0.8523 -0.0149
   24MOL   C19917265   3.457   4.098   1.788  0.1340  0.1492 -0.4777
   24MOL   N20017266   3.377   4.214   1.760  0.0991 -0.0771  0.1897
   24MOL   H20117267   2.385   3.435   1.699 -1.1748 -1.0591  0.2443
   24MOL   H20217268   2.253   3.530   1.675  0.0826 -2.9716  1.1591
   24MOL   H20317269   2.446   3.723   1.618 -0.8639  1.4532  0.6661
   24MOL   H20417270   2.423   3.690   1.781 -2.9208  0.8371 -1.5770
   24MOL   H20517271   2.624   3.590   1.578  1.6668  2.7027  0.6113
   24MOL   H20617272   2.623   3.506   1.722  0.0822 -0.7834 -0.5120
   24MOL   H20717273   2.682   3.801   1.658 -0.3308  0.4516 -0.5919
   24MOL   H20817274   2.666   3.746   1.829 -0.1809 -1.6821 -0.0623
   24MOL   H20917275   2.869   3.631   1.632  3.5130 -0.2016  1.6151
   24MOL   H21017276   2.837   3.601   1.810 -1.4614 -1.4890 -0.5846
   24MOL   H21117277   2.914   3.859   1.848  0.6657  2.7131 -2.0940
   24MOL   H21217278   2.940   3.865   1.682 -0.3353  0.7035  1.1359
   24MOL   H21317279   3.114   3.696   1.697 -0.6156  1.5177 -0.4543
   24MOL   H21417280   3.059   3.655   1.864  0.0654  0.8432  1.1226
   24MOL   H21517281   3.262   3.743   1.914  0.6503  0.5296 -0.3232
   24MOL   H21617282   3.148   3.858   1.960 -0.0695  0.6222  0.7586
   24MOL   H21717283   3.186   3.997   1.764 -1.1403 -0.2288 -0.4092
   24MOL   H21817284   3.288   3.873   1.688  0.4942 -0.4409  0.3081
   24MOL   H21917285   3.434   3.915   1.912 -0.6936  0.3872  0.1969
   24MOL   H22017286   3.321   4.038   1.943 -1.2546  0.0620 -0.3162
   24MOL   H22117287   3.503   4.048   1.703  1.0981 -0.0564  0.1589
   24MOL   H22217288   3.531   4.124   1.864 -1.5903 -4.1408  2.9041
   24MOL   H22317289   3.338   4.234   1.851  0.2206 -1.6243  0.5991
   24MOL   C22417290   3.375   4.285   1.648  0.9359  0.1147 -0.2803
   24MOL   O22517291   3.311   4.388   1.637 -0.0087 -0.3068 -0.0368
   24MOL   C22617292   3.438   4.238   1.513  0.3562 -0.8279 -0.1536
   24MOL   C22717293   3.339   4.189   1.407  0.4155  0.5297  0.3172
   24MOL   C22817294   3.258   4.066   1.450 -1.0957 -0.0553 -0.1120
   24MOL   C22917295   3.155   4.011   1.354  0.1832 -0.8909 -0.8445
   24MOL   C23017296   3.078   3.881   1.398  0.1024  0.1407 -0.2632
   24MOL   C23117297   2.965   3.855   1.300 -0.2067 -0.1406 -0.2642
   24MOL   C23217298   2.884   3.735   1.350 -0.2160 -0.2401 -0.0388
   24MOL   C23317299   2.953   3.594   1.363  0.1107 -0.1039 -0.5790
   24MOL   C23417300   3.032   3.546   1.236  0.8952 -0.5600 -0.0228
   24MOL   C23517301   3.081   3.400   1.239  0.0330  0.2706  0.4868
   24MOL   C23617302   3.182   3.364   1.350 -0.0369  0.0208 -0.2042
   24MOL   N23717303   3.215   3.225   1.334  1.0299  0.5794  0.2184
   24MOL   H23817304   3.508   4.156   1.528 -0.3462 -1.0815  1.8768
   24MOL   H23917305   3.496   4.319   1.467 -0.6603 -0.3896 -0.6795
   24MOL   H24017306   3.290   4.283   1.382  0.8616  0.5118 -0.6215
   24MOL   H24117307   3.395   4.167   1.316 -2.3446  2.2904 -1.8634
   24MOL   H24217308   3.207   4.098   1.541  2.1482 -0.6261  1.9545
   24MOL   H24317309   3.329   3.986   1.470 -2.5154 -1.4118 -0.3645
   24MOL   H24417310   3.088   4.092   1.325  0.4549  0.1693  1.3791
   24MOL   H24517311   3.203   3.997   1.257 -0.1321 -2.2857 -0.8191
   24MOL   H24617312   3.027   3.901   1.492 -0.1741 -1.0768 -0.1463
   24MOL   H24717313   3.144   3.796   1.415 -1.7938 -0.8942  2.3945
   24MOL   H24817314   3.008   3.839   1.201  0.7055 -1.7563  0.3640
   24MOL   H24917315   2.902   3.944   1.299  0.3717  0.3173  1.6605
   24MOL   H25017316   2.800   3.717   1.282 -0.5818  2.7225 -0.4270
   24MOL   H25117317   2.833   3.746   1.445  1.1678  0.0662  0.6739
   24MOL   H25217318   2.872   3.522   1.374 -0.5949  0.5531 -1.3950
   24MOL   H25317319   3.023   3.594   1.447 -1.4587  0.7635  0.7627
   24MOL   H25417320   3.115   3.614   1.221  0.4072  0.3860  1.5139
   24MOL   H25517321   2.974   3.578   1.149 -0.3933  0.6645  1.2696
   24MOL   H25617322   3.115   3.367   1.141 -1.9566 -0.3557 -0.0107
   24MOL   H25717323   2.993   3.337   1.252 -0.6260  1.3534  1.3662
   24MOL   H25817324   3.128   3.376   1.444 -0.4909 -1.3152 -0.2802
   24MOL   H25917325   3.267   3.432   1.350  0.8192 -1.0331 -1.7347
   24MOL   H26017326   3.195   3.186   1.243  1.1846 -2.2728  1.3468
   24MOL   C26117327   3.294   3.152   1.421 -0.0680 -0.6048  0.7150
   24MOL   O26217328   3.335   3.203   1.528  0.2387  0.7476  0.4674
   24MOL   C26317329   3.325   3.007   1.388 -0.4577  0.2536 -0.0081
   24MOL   C26417330   3.470   2.952   1.426  0.6964  0.1338  0.8223
   24MOL   C26517331   3.484   2.916   1.568  0.1704 -0.2823  0.2380
   24MOL   C26617332   3.620   2.873   1.620  0.0131  0.3089 -0.1762
   24MOL   C26717333   3.615   2.860   1.771 -0.0078 -0.2967 -0.6278
   24MOL   C26817334   3.752   2.832   1.841 -0.7989  0.3394  0.3270
   24MOL   C26917335   3.730   2.814   1.994 -0.5465 -0.9439 -0.1800
   24MOL   C27017336   3.687   2.945   2.070 -0.3779 -0.4717  0.3981
   24MOL   C27117337   3.681   2.935   2.225  0.1018 -0.2357 -0.3296
   24MOL   C27217338   3.654   3.068   2.298  0.3752  0.7155 -0.4732
   24MOL   C27317339   3.505   3.107   2.295  0.5764  0.6131 -0.6861
   24MOL   N27417340   3.420   3.038   2.397 -0.2519 -0.0071  0.2352
   24MOL   H27517341   3.318   2.992   1.280 -0.9036 -2.8126  0.3873
   24MOL   H27617342   3.257   2.938   1.437  0.1540 -0.7542 -0.5531
   24MOL   H27717343   3.500   2.872   1.358  1.3207  1.7049 -0.7889
   24MOL   H27817344   3.541   3.034   1.410 -1.5915  1.7994 -1.0968
   24MOL   H27917345   3.421   2.830   1.588 -0.2024  0.0461  0.4839
   24MOL   H28017346   3.436   2.996   1.625  2.0070  0.9063  0.1711
   24MOL   H28117347   3.641   2.777   1.573  2.4172  0.9558 -0.5432
   24MOL   H28217348   3.696   2.947   1.593  0.9513 -1.4096 -2.4139
   24MOL   H28317349   3.554   2.774   1.796 -1.7887  0.6306 -1.6776
   24MOL   H28417350   3.565   2.946   1.815  1.1425  1.4386 -2.5684
   24MOL   H28517351   3.823   2.914   1.829  0.2558 -0.4571  1.0381
   24MOL   H28617352   3.793   2.739   1.801 -3.1447 -0.3747 -0.4805
   24MOL   H28717353   3.820   2.775   2.043 -0.4909  0.3693  0.8049
   24MOL   H28817354   3.644   2.752   2.018 -1.7293  0.8176  0.2744
   24MOL   H28917355   3.592   2.971   2.024  0.0842 -2.9739 -2.1126
   24MOL   H29017356   3.760   3.023   2.045 -0.7262 -0.6322 -1.2105
   24MOL   H29117357   3.780   2.904   2.258 -0.2412 -1.2019 -0.1794
   24MOL   H29217358   3.609   2.858   2.253 -0.7145  0.6043 -0.1244
   24MOL   H29317359   3.717   3.148   2.258  1.2647  1.2244  1.9091
   24MOL   H29417360   3.684   3.062   2.402  1.7677  0.3124 -0.8908
   24MOL   H29517361   3.464   3.088   2.196 -0.7540 -0.3260  0.0343
   24MOL   H29617362   3.493   3.215   2.302  1.8913  0.8696 -2.1354
   24MOL   H29717363   3.443   2.943   2.423  2.0584  0.5516  0.3735
   24MOL   C29817364   3.309   3.083   2.449 -0.3043 -0.2571 -0.5743
   24MOL   O29917365   3.267   3.195   2.424 -0.0762 -0.3425 -0.2802
   24MOL   C30017366   3.244   3.000   2.560 -0.6009  0.3048 -0.4925
   24MOL   C30117367   3.235   3.065   2.703 -0.1154 -0.3138  1.0991
   24MOL   C30217368   3.378   3.088   2.759  0.4166  0.2357 -0.5757
   24MOL   C30317369   3.363   3.139   2.905  0.5294  0.3382 -0.1215
   24MOL   C30417370   3.495   3.161   2.979  0.1749  0.7273 -0.4239
   24MOL   C30517371   3.473   3.238   3.116  0.4495  0.1130  0.2439
   24MOL   C30617372   3.436   3.134   3.221  0.5168 -0.0981 -0.1043
   24MOL   C30717373   3.398   3.206   3.352 -0.5628  0.0578  0.0944
   24MOL   C30817374   3.516   3.269   3.434 -0.2751 -0.2246 -0.0612
   24MOL   C30917375   3.470   3.338   3.569  0.1936 -0.2588  0.5205
   24MOL   C31017376   3.580   3.384   3.665 -0.6956 -0.1930  0.0669
   24MOL   N31117377   3.701   3.431   3.598 -0.0234  0.5259  0.0326
   24MOL   H31217378   3.270   2.895   2.571 -0.9983  0.4068  1.8118
   24MOL   H31317379   3.141   2.980   2.530  0.0810 -1.0569 -1.9437
   24MOL   H31417380   3.185   3.161   2.689  0.0276 -0.3898  0.0230
   24MOL   H31517381   3.167   3.001   2.760 -1.4782 -1.2720 -1.5069
   24MOL   H31617382   3.437   3.154   2.695 -0.3644  1.2971 -0.2112
   24MOL   H31717383   3.428   2.991   2.750  0.5303  0.0755  1.6605
   24MOL   H31817384   3.310   3.234   2.894  0.5532  0.3959  0.2755
   24MOL   H31917385   3.307   3.061   2.955 -2.3673  1.2308 -1.8807
   24MOL   H32017386   3.566   3.223   2.924 -0.0385 -0.4469 -2.0602
   24MOL   H32117387   3.545   3.066   2.996 -0.5397  0.0741 -1.8355
   24MOL   H32217388   3.391   3.307   3.100  2.0575  2.1818  0.8013
   24MOL   H32317389   3.559   3.297   3.145  0.6433  0.9250 -1.8873
   24MOL   H32417390   3.518   3.067   3.247  1.7440  1.6262  0.6496
   24MOL   H32517391   3.344   3.084   3.193  0.2418  1.1870 -1.5229
   24MOL   H32617392   3.345   3.144   3.424 -3.1662  0.3359 -1.5338
   24MOL   H32717393   3.329   3.287   3.329 -0.2757  1.3402  3.5039
   24MOL   H32817394   3.577   3.343   3.381  0.6449 -0.2703  0.8999
   24MOL   H32917395   3.579   3.186   3.467  0.9042  0.7899  0.3078
   24MOL   H33017396   3.406   3.268   3.622  0.0673  1.5417  2.8084
   24MOL   H33117397   3.406   3.425   3.553  1.1045  0.0543 -1.5591
   24MOL   H33217398   3.610   3.297   3.723 -1.1859 -0.4145 -0.0078
   24MOL   H33317399   3.545   3.456   3.739  1.0482 -0.6857  1.4143
   24MOL   H33417400   3.688   3.451   3.500 -0.4611 -0.5148 -0.1206
   24MOL   C33517401   3.826   3.438   3.650  0.1353  0.0514 -0.1438
   24MOL   O33617402   3.847   3.400   3.768 -0.0697  0.3095  0.7253
   24MOL   C33717403   3.944   3.463   3.555 -0.3816  0.2588 -0.4849
   24MOL   C33817404   4.041   3.334   3.546  0.6048 -0.2484  0.1254
   24MOL   C33917405   4.134   3.355   3.433 -0.5640 -0.4380  0.1347
   24MOL   C34017406   4.240   3.249   3.416  1.1291  0.3021 -0.2652
   24MOL   C34117407   4.335   3.294   3.305  0.5316  0.4015 -0.5723
   24MOL   C34217408   4.438   3.395   3.351 -0.0588  0.0697 -0.0834
   24MOL   C34317409   4.550   3.427   3.249 -0.3153 -0.2583 -0.9687
   24MOL   C34417410   4.653   3.519   3.321 -0.2458 -0.4509 -0.0106
   24MOL   C34517411   4.733   3.604   3.224  0.0754 -0.0725  0.2144
   24MOL   C34617412   4.661   3.747   3.204 -0.2264  0.4495 -0.0261
   24MOL   C34717413   4.724   3.827   3.093  0.1067  0.1530 -0.3635
   24MOL   N34817414   4.640   3.938   3.060  0.2227  0.4802 -0.2412
   24MOL   H34917415   3.986   3.556   3.593  0.2156 -0.1866 -0.0313
   24MOL   H35017416   3.911   3.506   3.461 -0.3058  2.7780  0.5902
   24MOL   H35117417   4.101   3.333   3.637  1.5685 -3.0668 -0.5048
   24MOL   H35217418   3.989   3.239   3.533  2.5595 -1.2336 -0.8169
   24MOL   H35317419   4.180   3.453   3.445  0.0718 -0.7602  0.3961
   24MOL   H35417420   4.074   3.347   3.343  0.4994  1.3827 -0.7685
   24MOL   H35517421   4.301   3.244   3.506 -0.9354 -0.1856  1.1546
   24MOL   H35617422   4.203   3.148   3.397  0.4020  0.6799 -0.8994
   24MOL   H35717423   4.277   3.330   3.220  1.1356  1.2735 -0.6255
   24MOL   H35817424   4.391   3.209   3.267  1.4673  0.4570  0.6625
   24MOL   H35917425   4.493   3.363   3.440 -1.8993  1.5633  1.6303
   24MOL   H36017426   4.395   3.494   3.368 -1.0967 -0.2070 -1.0567
   24MOL   H36117427   4.501   3.478   3.166 -1.0266  1.8615  0.6913
   24MOL   H36217428   4.581   3.330   3.211 -0.6894 -1.0063  0.5858
   24MOL   H36317429   4.721   3.448   3.369  1.0885  0.6035 -0.2897
   24MOL   H36417430   4.612   3.580   3.401 -0.9726 -1.3543  0.3049
   24MOL   H36517431   4.755   3.542   3.138 -2.5050 -1.8951  0.7912
   24MOL   H36617432   4.826   3.612   3.280 -0.1830  1.0933  0.4983
   24MOL   H36717433   4.675   3.810   3.292  1.6385  0.6119 -0.4141
   24MOL   H36817434   4.554   3.733   3.188 -0.3438 -1.9599  2.4864
   24MOL   H36917435   4.738   3.770   3.001  1.4354  1.2878 -0.8871
   24MOL   H37017436   4.826   3.858   3.118  0.9401 -1.2853 -1.8764
   24MOL   H37117437   4.666   4.031   3.089 -0.9495  1.5535 -2.5326
   24MOL   C37217438   4.529   3.931   2.983  0.2198 -0.1891  0.3256
   24MOL   O37317439   4.508   3.843   2.903 -0.3336 -0.0786  0.3563
   24MOL   C37417440   4.430   4.044   2.986  0.2193 -0.3532 -0.1405
   24MOL   C37517441   4.283   3.987   2.969  0.2131  0.1162  0.0567
   24MOL   C37617442   4.244   3.975   2.818  0.0952 -0.2336 -0.3033
   24MOL   C37717443   4.100   3.931   2.801 -0.0401 -0.3289 -0.3894
   24MOL   C37817444   4.054   3.924   2.656 -0.2577  0.2182  0.5611
   24MOL   C37917445   3.917   3.864   2.635  0.4717 -0.4055 -0.3099
   24MOL   C38017446   3.806   3.962   2.620  0.6925  0.7237  0.2817
   24MOL   C38117447   3.664   3.889   2.640  0.3979 -0.7875 -0.0657
   24MOL   C38217448   3.545   3.982   2.603  0.3567 -0.1735 -0.1691
   24MOL   C38317449   3.415   3.918   2.654 -0.1188 -0.1316  0.2536
   24MOL   C38417450   3.292   3.987   2.606  0.2671  0.0997  0.4610
   24MOL   N38517451   3.175   3.905   2.638  0.7976  0.0359 -0.2336
   24MOL   H38617452   4.464   4.102   2.900 -1.7445 -1.9643 -2.0416
   24MOL   H38717453   4.444   4.104   3.076  0.6978  2.0080 -1.7484
   24MOL   H38817454   4.265   3.893   3.021  2.6250  1.0898  2.8055
   24MOL   H38917455   4.213   4.057   3.015 -2.5556  0.0706 -3.8194
   24MOL   H39017456   4.302   3.908   2.754 -1.5457 -2.3987  0.3871
   24MOL   H39117457   4.260   4.074   2.776  1.4807 -0.2117  0.2715
   24MOL   H39217458   4.071   3.836   2.845 -1.7605  0.0115 -0.7452
   24MOL   H39317459   4.045   4.008   2.854 -0.3930 -0.0097 -1.2003
   24MOL   H39417460   4.125   3.868   2.595  1.6975  0.7741  2.2508
   24MOL   H39517461   4.062   4.022   2.610 -2.5439  0.4012  0.5108
   24MOL   H39617462   3.896   3.777   2.697 -2.0283 -0.4223 -1.0892
   24MOL   H39717463   3.921   3.824   2.534 -1.5221 -0.2067 -0.4959
   24MOL   H39817464   3.815   4.013   2.524 -0.3135  0.9398  0.3012
   24MOL   H39917465   3.821   4.040   2.694  1.5837 -0.9721  1.9512
   24MOL   H40017466   3.655   3.853   2.743 -0.3949 -1.0242 -0.2131
   24MOL   H40117467   3.659   3.801   2.575 -2.2029  0.2306 -1.3275
   24MOL   H40217468   3.540   3.998   2.496 -0.4709 -2.1401 -0.4437
   24MOL   H40317469   3.548   4.081   2.647  0.9495 -0.7381  1.0919
   24MOL   H40417470   3.411   3.904   2.762  0.2392  0.6507  0.3727
   24MOL   H40517471   3.401   3.815   2.621 -1.6256 -0.0494  0.6206
   24MOL   H40617472   3.297   4.018   2.502  0.0388  3.7488  1.4331
   24MOL   H40717473   3.296   4.085   2.655 -0.3602  0.1242  0.4654
   24MOL   H40817474   3.188   3.805   2.647  0.4017 -0.0674 -0.7422
   24MOL   C40917475   3.049   3.948   2.649  0.4850 -0.1141 -0.5276
   24MOL   O41017476   3.020   4.065   2.618  0.2679 -0.0337  0.1639
   24MOL   C41117477   2.942   3.860   2.701 -1.2631  1.1322  0.4928
   24MOL   C41217478   2.805   3.865   2.629 -0.0212 -0.4330 -1.2902
   24MOL   C41317479   2.744   3.721   2.638 -0.1465 -0.0682  0.4884
   24MOL   C41417480   2.599   3.720   2.580 -0.2232 -0.1659 -0.0456
   24MOL   C41517481   2.542   3.579   2.570 -0.0474 -0.8177  0.6744
   24MOL   C41617482   2.496   3.515   2.708  0.1905 -0.5588  0.1318
   24MOL   C41717483   2.434   3.379   2.692 -0.0387  0.9147  0.0968
   24MOL   C41817484   2.347   3.317   2.809  1.1057  0.2450 -0.9031
   24MOL   C41917485   2.248   3.202   2.761 -0.7771 -0.4646  0.3783
   24MOL   C42017486   2.147   3.161   2.874 -0.4343  0.0111 -0.6921
   24MOL   C42117487   2.048   3.047   2.828  0.6534 -0.8365  0.7678
   24MOL   N42217488   2.095   2.934   2.753  0.1570  0.6881 -0.3717
   24MOL   H42317489   2.936   3.897   2.803  1.4077 -1.5134  1.6778
   24MOL   H42417490   2.976   3.757   2.701 -0.3846  1.4128  1.2666
   24MOL   H42517491   2.741   3.943   2.672  1.8738  1.8426 -2.4973
   24MOL   H42617492   2.820   3.883   2.523 -0.8077  0.2541 -1.2953
   24MOL   H42717493   2.741   3.687   2.741  0.5125 -0.0602  0.5116
   24MOL   H42817494   2.807   3.653   2.581  1.0709 -0.2579  2.0265
   24MOL   H42917495   2.533   3.783   2.639 -0.0181  0.6291 -0.6526
   24MOL   H43017496   2.589   3.782   2.491 -0.7121 -0.2658 -0.0579
   24MOL   H43117497   2.602   3.508   2.512  0.3338 -0.1557  0.2537
   24MOL   H43217498   2.454   3.590   2.507  0.1134  0.3651  0.6455
   24MOL   H43317499   2.423   3.580   2.757 -0.8278 -2.3318  1.0459
   24MOL   H43417500   2.584   3.497   2.769  0.1166 -2.5660 -0.3209
   24MOL   H43517501   2.507   3.302   2.665  0.4095  1.2579  0.3331
   24MOL   H43617502   2.369   3.379   2.605 -0.1815 -0.3385  0.1930
   24MOL   H43717503   2.286   3.397   2.852 -1.5190 -2.0662 -0.1746
   24MOL   H43817504   2.410   3.293   2.894 -1.3030 -0.9298  0.6013
   24MOL   H43917505   2.319   3.124   2.733  0.9910  0.2022  2.7675
   24MOL   H44017506   2.186   3.223   2.674 -1.7181  1.3097  1.4588
   24MOL   H44117507   2.104   3.241   2.934  0.8313 -0.2066  0.5465
   24MOL   H44217508   2.213   3.117   2.949 -0.8422  0.0869 -0.2925
   24MOL   H44317509   1.959   3.095   2.788  1.7879 -0.3924 -1.3250
   24MOL   H44417510   1.998   3.006   2.916 -0.1370  2.1014  1.7369
   24MOL   H44517511   2.182   2.892   2.783  0.2994 -0.3859 -2.2075
   24MOL   C44617512   2.034   2.881   2.641 -0.0052 -0.7474 -0.4245
   24MOL   O44717513   1.936   2.935   2.587  0.0434 -0.1804  0.2133
   24MOL   C44817514   2.083   2.752   2.580 -0.3958 -0.2033  0.1743
   24MOL   C44917515   1.973   2.647   2.551  0.1243 -0.2074 -0.6454
   24MOL   C45017516   2.013   2.515   2.472 -0.0581  0.7952  0.5669
   24MOL   C45117517   2.121   2.428   2.540 -0.0032  0.0571 -0.4234
   24MOL   C45217518   2.113   2.290   2.475 -0.5271 -0.5022  0.2327
   24MOL   C45317519   2.229   2.196   2.522  0.1078  0.7200 -0.0041
   24MOL   C45417520   2.205   2.039   2.489  0.3993  0.6888  0.2200
   24MOL   C45517521   2.315   1.943   2.543 -0.0240 -0.1698 -0.0443
   24MOL   C45617522   2.459   1.967   2.494 -0.2862  0.1596  0.6581
   24MOL   C45717523   2.568   1.886   2.551 -0.3734 -0.4512 -0.1397
   24MOL   C45817524   2.552   1.739   2.515 -0.3510 -0.8977  1.0391
   24MOL   N45917525   2.660   1.650   2.570 -0.2061 -0.6513  0.2802
   24MOL   H46017526   2.150   2.700   2.647  0.9005 -1.0121 -1.7157
   24MOL   H46117527   2.142   2.774   2.491 -0.7159  2.7438  0.6249
   24MOL   H46217528   1.923   2.620   2.645  3.9308 -0.1375  1.5088
   24MOL   H46317529   1.899   2.700   2.491 -0.4551  0.4509  0.6187
   24MOL   H46417530   2.046   2.540   2.372  1.6888 -1.2605  0.5946
   24MOL   H46517531   1.920   2.463   2.451  0.7587 -0.2257 -0.5539
   24MOL   H46617532   2.220   2.472   2.544  0.0667  0.0500 -1.8969
   24MOL   H46717533   2.092   2.411   2.644  0.3559 -0.2358 -0.3688
   24MOL   H46817534   2.122   2.298   2.367 -2.9893 -1.8104 -0.1032
   24MOL   H46917535   2.016   2.243   2.485 -0.8108 -0.0811 -0.5204
   24MOL   H47017536   2.246   2.216   2.628  0.9168 -0.8479  0.1756
   24MOL   H47117537   2.326   2.223   2.480  0.5584  2.2053  1.9079
   24MOL   H47217538   2.225   2.042   2.381 -0.9680 -0.5885 -0.0782
   24MOL   H47317539   2.106   1.998   2.507  1.6038 -2.3674  0.2082
   24MOL   H47417540   2.278   1.846   2.511 -2.0904  0.2806  0.8952
   24MOL   H47517541   2.310   1.936   2.652 -0.2746  0.8439  0.0196
   24MOL   H47617542   2.480   2.072   2.512  1.9030 -0.1690  0.1425
   24MOL   H47717543   2.459   1.966   2.385  0.2970 -3.4533  0.6314
   24MOL   H47817544   2.585   1.901   2.658  1.9559  2.2488 -0.8388
   24MOL   H47917545   2.661   1.924   2.509 -0.1786 -0.3862  0.3432
   24MOL   H48017546   2.544   1.739   2.406  2.2805 -1.6351  0.8056
   24MOL   H48117547   2.463   1.697   2.562 -1.4750  0.2413 -0.0240
   24MOL   H48217548   2.711   1.691   2.647  1.7360 -0.4405 -1.0768
   24MOL   C48317549   2.676   1.525   2.522  0.7080 -0.3402  0.1400
   24MOL   O48417550   2.602   1.470   2.436  0.4876 -0.6697  0.4359
   24MOL   C48517551   2.802   1.449   2.568  0.0845 -0.9567 -0.1483
   24MOL   C48617552   2.831   1.334   2.472  1.3732 -0.2397  0.2113
   24MOL   C48717553   2.961   1.260   2.514 -0.5696  0.1519  0.1092
   24MOL   C48817554   2.993   1.149   2.404 -0.2313 -0.6002  0.3174
   24MOL   C48917555   3.091   1.051   2.462  0.3600 -0.2667 -0.0044
   24MOL   C49017556   3.128   0.942   2.366 -0.2701  0.0328  0.3513
   24MOL   C49117557   3.239   0.847   2.421  0.7438 -0.1077  0.4067
   24MOL   C49217558   3.287   0.735   2.327 -0.2736  0.0232  0.1053
   24MOL   C49317559   3.375   0.626   2.399  0.9580 -0.6190  0.4625
   24MOL   C49417560   3.402   0.496   2.323 -0.6001  0.6356 -0.1857
   24MOL   C49517561   3.535   0.508   2.256  0.1012 -0.2972  0.0441
   24MOL   N49617562   3.540   0.602   2.146  0.5298 -0.0595  0.0097
   24MOL   H49717563   2.795   1.420   2.673  1.1513  2.7535  1.0184
   24MOL   H49817564   2.883   1.521   2.565 -0.3158 -0.5440 -1.3520
   24MOL   H49917565   2.754   1.258   2.466 -0.0757  1.3276 -1.7246
   24MOL   H50017566   2.852   1.369   2.371 -0.8621 -1.5347 -0.7503
   24MOL   H50117567   2.940   1.210   2.608 -0.0744 -1.6300 -0.7090
   24MOL   H50217568   3.042   1.331   2.530  0.1715 -0.5922 -0.3070
   24MOL   H50317569   2.899   1.099   2.380 -1.5969  1.3367  1.4275
   24MOL   H50417570   3.035   1.187   2.310  1.7793 -1.7310  0.7295
   24MOL   H50517571   3.053   0.999   2.550 -0.3672  2.5020  1.3885
   24MOL   H50617572   3.183   1.097   2.497  0.6367 -0.9402  0.1416
   24MOL   H50717573   3.168   0.995   2.279 -1.6505 -0.3607 -0.5458
   24MOL   H50817574   3.036   0.891   2.338 -0.7895 -0.1870  2.3845
   24MOL   H50917575   3.195   0.822   2.518  0.9204  3.4975  1.5011
   24MOL   H51017576   3.320   0.912   2.453 -0.2832  1.1626  0.4923
   24MOL   H51117577   3.345   0.782   2.247 -0.6577  2.4105  1.1983
   24MOL   H51217578   3.200   0.694   2.276  0.1610 -0.5563 -0.1814
   24MOL   H51317579   3.308   0.598   2.480  0.9231  0.1614  0.7095
   24MOL   H51417580   3.461   0.677   2.443  1.1279 -1.0756  0.6669
   24MOL   H51517581   3.321   0.463   2.259 -0.5187  1.9209 -0.9711
   24MOL   H51617582   3.409   0.416   2.396  0.0368  0.3369 -0.5675
   24MOL   H51717583   3.573   0.411   2.223  1.7547  0.1378  0.5835
   24MOL   H51817584   3.616   0.531   2.325 -0.2507 -1.6264  0.9264
   24MOL   H51917585   3.459   0.638   2.098 -0.1249 -0.9055  0.4696
   24MOL   C52017586   3.649   0.674   2.116  0.2153  0.5224 -0.4441
   24MOL   O52117587   3.758   0.641   2.153 -0.2749  0.1744 -0.5309
   24MOL   C52217588   3.641   0.782   2.008 -0.0853 -0.0949  0.0138
   24MOL   C52317589   3.701   0.914   2.054 -0.6774 -0.2289  0.4607
   24MOL   C52417590   3.587   0.998   2.129 -0.4652  0.0545 -0.0934
   24MOL   C52517591   3.644   1.108   2.223  0.2449  0.5579  0.3992
   24MOL   C52617592   3.527   1.201   2.270  0.0379  0.0795 -0.9020
   24MOL   C52717593   3.540   1.282   2.399 -0.0250  0.2664  0.2654
   24MOL   C52817594   3.400   1.346   2.445 -0.8658  0.5125 -0.2666
   24MOL   C52917595   3.421   1.416   2.579 -0.1766  0.7595  0.5216
   24MOL   C53017596   3.289   1.484   2.630  0.1150  0.3919  0.2723
   24MOL   C53117597   3.313   1.589   2.742 -0.2372  0.1675  0.0926
   24MOL   C53217598   3.191   1.682   2.792 -0.3916 -0.0047  0.9060
   24MOL   N53317599   3.160   1.776   2.687 -0.3377 -0.2067  0.0726
   24MOL   H53417600   3.539   0.795   1.974  0.1711  1.4470 -0.1656
   24MOL   H53517601   3.685   0.748   1.914 -0.4693  1.2973 -0.6755
   24MOL   H53617602   3.778   0.894   2.129 -0.1891  0.6365  0.1943
   24MOL   H53717603   3.762   0.967   1.980  0.9508 -1.5832  0.8008
   24MOL   H53817604   3.500   0.944   2.166 -2.9095  1.9939 -2.8026
   24MOL   H53917605   3.552   1.064   2.050 -0.9324 -0.1901 -0.0949
   24MOL   H54017606   3.684   1.076   2.320  1.8066  0.3736 -0.2855
   24MOL   H54117607   3.722   1.164   2.171  1.1219  1.5676  2.7271
   24MOL   H54217608   3.435   1.144   2.262  1.1229 -1.9084  0.4603
   24MOL   H54317609   3.511   1.275   2.192  0.5143  0.5806 -0.5293
   24MOL   H54417610   3.623   1.352   2.389  1.7028 -1.2958  3.1684
   24MOL   H54517611   3.580   1.214   2.474 -0.1470  1.6074  1.5611
   24MOL   H54617612   3.316   1.276   2.451 -0.8401  0.5310  0.3482
   24MOL   H54717613   3.371   1.422   2.372  1.0534  2.1299  0.5992
   24MOL   H54817614   3.493   1.496   2.568 -0.7032  1.1728  0.0897
   24MOL   H54917615   3.465   1.342   2.646 -0.1029 -0.3577 -0.7381
   24MOL   H55017616   3.219   1.408   2.662  0.6608 -0.6813 -1.0422
   24MOL   H55117617   3.261   1.547   2.546  2.2504  0.9416 -0.0545
   24MOL   H55217618   3.389   1.660   2.710 -0.2645 -0.6596 -1.9075
   24MOL   H55317619   3.332   1.540   2.838 -2.7097 -1.4231 -0.1907
   24MOL   H55417620   3.203   1.747   2.879  1.4756  1.7374 -0.6153
   24MOL   H55517621   3.120   1.608   2.829  1.8528 -2.1264  1.1297
   24MOL   H55617622   3.235   1.832   2.649  0.2234 -0.7204  0.4024
   24MOL   C55717623   3.041   1.784   2.630  0.6781  0.5963  0.5427
   24MOL   O55817624   2.941   1.733   2.678  0.0132  0.1622  0.2719
   24MOL   C55917625   3.021   1.868   2.505  0.1195 -0.0117 -0.5743
   24MOL   C56017626   3.103   1.823   2.384 -0.3502  0.4460 -0.0852
   24MOL   C56117627   3.043   1.694   2.326  0.5584 -0.1772 -0.4745
   24MOL   C56217628   3.130   1.626   2.215  0.0424 -0.4142 -0.0837
   24MOL   C56317629   3.100   1.478   2.191 -0.4298  0.0626 -0.2434
   24MOL   C56417630   3.150   1.420   2.056 -0.2562  0.0866 -0.2568
   24MOL   C56517631   3.128   1.273   2.051 -0.1513  0.2185 -0.3758
   24MOL   C56617632   3.178   1.216   1.910  0.8924  0.3058 -0.4452
   24MOL   C56717633   3.236   1.077   1.902 -0.6349 -1.2815  0.4384
   24MOL   C56817634   3.135   0.969   1.913  0.3492  1.1115 -0.5581
   24MOL   C56917635   3.195   0.827   1.914 -0.0845 -0.6028 -0.4649
   24MOL   N57017636   3.243   0.791   1.780 -0.5006 -0.2050  0.2903
   24MOL   H57117637   3.054   1.968   2.533  0.5438 -1.0241  2.7778
   24MOL   H57217638   2.915   1.871   2.480 -0.4877 -0.4267  1.8003
   24MOL   H57317639   3.104   1.908   2.316  0.4669 -0.7631 -1.6261
   24MOL   H57417640   3.207   1.811   2.412 -0.3064  0.8261 -0.0861
   24MOL   H57517641   2.934   1.698   2.315  0.6083  1.8427 -0.4568
   24MOL   H57617642   3.047   1.622   2.407 -1.3623  1.4733  1.1616
   24MOL   H57717643   3.123   1.690   2.127  0.1020 -0.0961  0.1406
   24MOL   H57817644   3.235   1.643   2.237 -0.2262  0.5652  0.5009
   24MOL   H57917645   2.994   1.458   2.210 -0.7238  1.6770 -0.0957
   24MOL   H58017646   3.145   1.421   2.272 -0.7921  1.1716  0.7582
   24MOL   H58117647   3.255   1.448   2.058 -0.0872 -0.6234  1.8773
   24MOL   H58217648   3.100   1.465   1.970  0.3016 -0.5410 -0.9134
   24MOL   H58317649   3.020   1.259   2.050  0.0003 -0.9493 -0.8109
   24MOL   H58417650   3.176   1.213   2.128  3.1533  2.8294 -0.2546
   24MOL   H58517651   3.260   1.277   1.872  1.7168  0.0716  0.9095
   24MOL   H58617652   3.106   1.227   1.829 -0.3159 -1.7870  0.2983
   24MOL   H58717653   3.308   1.061   1.983  0.3155  0.0995 -0.1030
   24MOL   H58817654   3.308   1.070   1.820  0.2346 -1.6526  1.2199
   24MOL   H58917655   3.055   0.984   1.840 -1.0299 -1.4061  0.3979
   24MOL   H59017656   3.084   0.987   2.007  0.5616  0.1742 -0.2636
   24MOL   H59117657   3.126   0.755   1.957 -3.1646  2.1188 -0.6854
   24MOL   H59217658   3.274   0.821   1.988  0.3449 -0.6360 -0.9181
   24MOL   H59317659   3.231   0.859   1.706 -0.1016  1.3721  1.6403
   24MOL   C59417660   3.327   0.692   1.752 -0.3551 -0.0259 -0.0459
   24MOL   O59517661   3.379   0.613   1.827 -0.5820  0.6625  0.2538
   24MOL   C59617662   3.366   0.696   1.604  0.4945 -0.4138 -0.1029
   24MOL   C59717663   3.496   0.626   1.580 -0.7319 -0.3955 -0.6075
   24MOL   C59817664   3.616   0.713   1.610  0.4143 -0.1312  0.6438
   24MOL   C59917665   3.751   0.658   1.559  0.0149 -0.0296  0.4235
   24MOL   C60017666   3.809   0.529   1.626  0.2199  0.2268 -0.0366
   24MOL   C60117667   3.946   0.479   1.572  0.0417 -0.5657 -0.1201
   24MOL   C60217668   3.996   0.344   1.622 -0.0903 -0.4165  0.7856
   24MOL   C60317669   4.132   0.303   1.574  0.1985  0.2477 -0.2429
   24MOL   C60417670   4.134   0.243   1.434  0.4577  0.1039  0.0121
   24MOL   C60517671   4.278   0.200   1.392 -0.2820  0.2956 -0.3366
   24MOL   C60617672   4.293   0.089   1.295 -0.7798  0.2863 -0.5943
   24MOL   N60717673   4.231   0.117   1.172 -0.1402 -0.4918 -0.2232
   24MOL   H60817674   3.376   0.801   1.578 -0.0968 -1.0287 -2.9204
   24MOL   H60917675   3.275   0.658   1.558 -0.8224  0.9859  1.3149
   24MOL   H61017676   3.516   0.531   1.629  0.0953 -0.9187 -1.9323
   24MOL   H61117677   3.491   0.594   1.476 -0.8395  0.8191 -0.9809
   24MOL   H61217678   3.619   0.743   1.715  0.4080  1.2584  0.2446
   24MOL   H61317679   3.611   0.813   1.567  1.1199  0.3929  1.7686
   24MOL   H61417680   3.739   0.643   1.451  2.2852 -2.7215  0.4984
   24MOL   H61517681   3.833   0.729   1.569  1.0724 -1.2833  0.7175
   24MOL   H61617682   3.741   0.447   1.604 -1.0315  0.9461  1.0744
   24MOL   H61717683   3.812   0.532   1.735 -1.3400 -3.4941  0.1558
   24MOL   H61817684   4.020   0.554   1.600  0.8361 -2.1486  2.1780
   24MOL   H61917685   3.946   0.485   1.463 -1.1110  2.3169 -0.0128
   24MOL   H62017686   3.926   0.271   1.582 -1.3048  1.6189 -0.8809
   24MOL   H62117687   4.002   0.332   1.730 -1.7987  1.3339  1.1134
   24MOL   H62217688   4.175   0.239   1.652  1.1055 -0.3229 -1.1782
   24MOL   H62317689   4.202   0.386   1.587 -2.3861  2.1463  1.8464
   24MOL   H62417690   4.101   0.307   1.352  0.0312  0.2560  0.3019
   24MOL   H62517691   4.078   0.149   1.437 -1.7955  1.4118  0.2337
   24MOL   H62617692   4.334   0.177   1.483 -0.4980  0.9853 -0.0273
   24MOL   H62717693   4.323   0.281   1.335 -3.5653  1.1200 -1.8533
   24MOL   H62817694   4.261   7.688   1.338  0.3124  0.0750 -0.2188
   24MOL   H62917695   4.401   0.073   1.291 -0.8970 -0.8914  0.6541
   24MOL   H63017696   4.282   0.184   1.117 -0.1585 -0.0585  0.2871
   24MOL   C63117697   4.130   0.043   1.118  0.3833 -0.1771 -0.7686
   24MOL   O63217698   4.070   7.644   1.174  0.0351  0.6092 -0.0962
   24MOL   C63317699   4.082   0.084   0.973 -0.1499  0.5625  0.1510
   24MOL   C63417700   3.928   0.088   0.965 -1.1112  0.1864 -0.1381
   24MOL   C63517701   3.861   0.174   0.853  0.4385  0.2569  0.7566
   24MOL   C63617702   3.710   0.194   0.852 -0.3216 -0.0265  0.4447
   24MOL   C63717703   3.656   0.303   0.751  0.2443 -0.1395 -0.0283
   24MOL   C63817704   3.511   0.336   0.747  0.0950  0.3370 -0.3826
   24MOL   C63917705   3.462   0.400   0.883  1.0152  0.7894  0.3193
   24MOL   C64017706   3.316   0.462   0.867 -0.3465 -0.3069  0.0389
   24MOL   C64117707   3.271   0.545   0.985  0.1094 -0.2885  0.4323
   24MOL   C64217708   3.134   0.609   0.961  0.2902  0.0042  0.3852
   24MOL   C64317709   3.080   0.672   1.089  0.6180  0.0629 -0.4574
   24MOL   N64417710   2.963   0.754   1.058  0.1068  0.1025 -0.5285
   24MOL   H64517711   4.131   0.032   0.890 -0.6310 -1.3818  1.0506
   24MOL   H64617712   4.107   0.183   0.934 -0.7852  0.9525  0.7383
   24MOL   H64717713   3.887   7.681   0.976  0.1607 -0.3461 -0.1879
   24MOL   H64817714   3.893   0.136   1.056  1.8744 -1.6659  2.0531
   24MOL   H64917715   3.896   0.160   0.751  1.4824  1.7607  0.8917
   24MOL   H65017716   3.901   0.274   0.869 -0.2126  0.4412  1.2785
   24MOL   H65117717   3.662   0.099   0.830  0.4781 -0.1564 -0.7740
   24MOL   H65217718   3.676   0.222   0.952  0.6987  1.5589  0.3691
   24MOL   H65317719   3.683   0.278   0.648  1.1713  0.7797 -0.0126
   24MOL   H65417720   3.712   0.394   0.772  0.3854  0.0786 -1.3325
   24MOL   H65517721   3.459   0.244   0.722 -2.2522  1.2255  1.0363
   24MOL   H65617722   3.498   0.406   0.664  1.4532  1.6133  0.4402
   24MOL   H65717723   3.521   0.490   0.901 -1.0032  2.0186  0.9560
   24MOL   H65817724   3.465   0.330   0.966 -0.3403  0.1368 -0.1577
   24MOL   H65917725   3.254   0.373   0.854 -0.5318 -0.2586  0.6179
   24MOL   H66017726   3.314   0.511   0.769  2.8395  0.5427  0.3442
   24MOL   H66117727   3.344   0.623   1.010  0.0226  0.0608 -0.3906
   24MOL   H66217728   3.270   0.474   1.068  1.2802  1.2359  1.7978
   24MOL   H66317729   3.055   0.549   0.916 -0.0989 -0.1202  1.2252
   24MOL   H66417730   3.148   0.684   0.883 -0.0321 -0.8683 -0.5213
   24MOL   H66517731   3.155   0.736   1.136 -1.5968  0.4945  2.6857
   24MOL   H66617732   3.058   0.593   1.161  0.2770  2.3178  1.9832
   24MOL   H66717733   2.873   0.710   1.068  0.5507 -0.3333  1.9894
   24MOL   C66817734   2.963   0.882   1.023  0.0577  0.8369  0.0090
   24MOL   O66917735   3.056   0.961   1.028 -0.2684  0.5235 -0.1460
   24MOL   C67017736   2.821   0.933   0.987  0.1975 -0.5265 -0.1773
   24MOL   C67117737   2.755   1.016   1.109  0.0343  0.1136  0.4769
   24MOL   C67217738   2.616   1.069   1.084 -0.0663  0.3437  0.1259
   24MOL   C67317739   2.564   1.168   1.188 -0.8247  0.3987 -0.1950
   24MOL   C67417740   2.424   1.217   1.159 -0.1672  0.4870  0.3327
   24MOL   C67517741   2.364   1.317   1.254  0.3436  0.0526 -0.4610
   24MOL   C67617742   2.238   1.380   1.193  0.3335  0.1272 -0.6481
   24MOL   C67717743   2.168   1.461   1.299  0.0657 -0.0234 -0.0172
   24MOL   C67817744   2.067   1.383   1.386  0.3275 -0.3183 -0.7183
   24MOL   C67917745   2.032   1.458   1.514 -0.6393  0.1576 -0.2657
   24MOL   C68017746   1.952   1.379   1.615 -0.5922 -0.4703  0.0319
   24MOL   N68117747   1.945   1.460   1.736 -0.1630  0.3843  0.4684
   24MOL   H68217748   2.757   0.848   0.963 -2.9737  1.1960  1.8276
   24MOL   H68317749   2.817   0.996   0.898 -0.4139  2.3602  1.8596
   24MOL   H68417750   2.753   0.953   1.198 -0.2888  0.9462  1.0691
   24MOL   H68517751   2.824   1.098   1.132  0.8075  0.1452 -1.8683
   24MOL   H68617752   2.544   0.988   1.090  0.6618 -0.2514  0.9826
   24MOL   H68717753   2.602   1.117   0.987  0.9311  0.4566  0.0225
   24MOL   H68817754   2.563   1.110   1.281 -0.2092  0.2156 -0.3003
   24MOL   H68917755   2.627   1.256   1.197  0.7651 -0.9444  2.5887
   24MOL   H69017756   2.360   1.130   1.150  1.1911 -0.4179 -0.8985
   24MOL   H69117757   2.433   1.260   1.059  0.1301 -2.9902 -1.2121
   24MOL   H69217758   2.437   1.395   1.277 -0.7066  0.7663  0.4637
   24MOL   H69317759   2.334   1.267   1.346 -1.6147 -2.9168 -2.6265
   24MOL   H69417760   2.173   1.300   1.159 -0.3765  0.3174  0.2291
   24MOL   H69517761   2.273   1.438   1.108  1.5011  2.9529  1.6418
   24MOL   H69617762   2.110   1.536   1.244  1.5171  1.8451  0.9303
   24MOL   H69717763   2.252   1.511   1.347  0.5460  0.9614 -1.8158
   24MOL   H69817764   2.088   1.276   1.395  0.6926 -0.2406 -0.6016
   24MOL   H69917765   1.980   1.373   1.321  1.5082  1.1194 -2.5604
   24MOL   H70017766   1.965   1.543   1.499 -0.2802  0.6432  0.8307
   24MOL   H70117767   2.119   1.504   1.560 -1.8568  1.2653  0.9983
   24MOL   H70217768   2.007   1.290   1.645 -0.7548 -0.9717 -1.1027
   24MOL   H70317769   1.856   1.344   1.577 -0.5439 -1.3356  0.6919
   24MOL   H70417770   2.027   1.450   1.793 -0.1727 -2.9072  0.0409
   24MOL   C70517771   1.836   1.516   1.778  0.0270 -0.3434 -0.7520
   24MOL   O70617772   1.729   1.525   1.718  0.2447  0.0283 -0.3233
   24MOL   C70717773   1.858   1.578   1.918 -0.2146  0.0755  0.2137
   24MOL   C70817774   1.732   1.624   1.999 -0.3712 -0.4221 -0.2804
   24MOL   C70917775   1.767   1.680   2.135  0.0066  0.7341 -0.0883
   24MOL   C71017776   1.641   1.732   2.203  0.1683  0.1831 -0.6898
   24MOL   C71117777   1.676   1.785   2.349 -0.3505  0.0381 -0.5498
   24MOL   C71217778   1.546   1.859   2.404 -0.3065 -0.9691  0.5090
   24MOL   C71317779   1.570   1.916   2.547 -0.3995  0.5070 -0.2084
   24MOL   C71417780   1.680   2.029   2.565 -0.0331 -0.6758 -1.0288
   24MOL   C71517781   1.650   2.162   2.499  0.4424  0.5010 -1.2401
   24MOL   C71617782   1.563   2.242   2.589 -0.7651  0.2088  0.2859
   24MOL   C71717783   1.531   2.376   2.517  0.0374 -0.2200  0.1030
   24MOL   N71817784   1.470   2.476   2.607  0.2137  0.3762 -0.1534
   24MOL   H71917785   1.920   1.667   1.904 -0.2180 -0.3620 -2.6706
   24MOL   H72017786   1.914   1.515   1.988  0.9052  1.4589  0.5983
   24MOL   H72117787   1.683   1.699   1.938  0.0363 -0.4765 -0.6794
   24MOL   H72217788   1.652   1.549   1.997  0.6914 -1.6941  2.4206
   24MOL   H72317789   1.838   1.761   2.115 -1.3480  1.7995 -0.6602
   24MOL   H72417790   1.818   1.612   2.203 -1.4504 -0.9674 -0.6609
   24MOL   H72517791   1.612   1.821   2.147  2.4264 -0.5413 -3.0746
   24MOL   H72617792   1.568   1.651   2.202  0.5676 -0.2080  0.7707
   24MOL   H72717793   1.767   1.844   2.339 -0.5314  0.1421 -1.6811
   24MOL   H72817794   1.707   1.704   2.414  3.1101  2.5085  1.0210
   24MOL   H72917795   1.466   1.787   2.422 -0.5089 -0.9139 -0.1387
   24MOL   H73017796   1.511   1.941   2.341  0.3733 -1.7320 -0.8807
   24MOL   H73117797   1.598   1.830   2.608 -0.4727  0.2821 -0.4918
   24MOL   H73217798   1.471   1.937   2.587  0.0090 -1.1522  1.8061
   24MOL   H73317799   1.776   2.000   2.522 -0.0387 -0.2456 -1.3294
   24MOL   H73417800   1.716   2.041   2.667 -0.3804  1.9298 -1.1655
   24MOL   H73517801   1.607   2.152   2.400  4.3714 -0.6872 -2.8865
   24MOL   H73617802   1.742   2.220   2.495 -0.0268  1.4052  0.3225
   24MOL   H73717803   1.616   2.258   2.684 -1.8066 -0.0202  0.9127
   24MOL   H73817804   1.472   2.183   2.600  0.4176 -1.9774 -1.3836
   24MOL   H73917805   1.456   2.360   2.440 -2.1383  1.0352  1.9258
   24MOL   H74017806   1.623   2.413   2.471 -0.0933 -1.7686 -1.4539
   24MOL   H74117807   1.455   2.561   2.555  3.2247  0.3683 -1.0858
   24MOL   H74217808   1.539   2.505   2.674  0.7536 -1.6713  0.2217
   25MOL     C117809   4.894   1.384   1.821 -0.1522  0.1618 -0.1116
   25MOL     O217810   4.852   1.342   1.713 -0.0541 -0.0092 -0.2805
   25MOL     C317811   4.816   1.485   1.915 -0.3448 -0.5207  0.2574
   25MOL     C417812   4.863   1.475   2.062 -0.2977 -0.2852  0.1624
   25MOL     C517813   4.843   1.331   2.131  0.2552 -0.2346  0.2304
   25MOL     C617814   4.890   1.333   2.276 -0.3790  0.0507 -0.4915
   25MOL     C717815   4.794   1.410   2.368 -0.3291  1.4393 -0.1251
   25MOL     C817816   4.857   1.445   2.504  0.0240 -0.5737 -0.3812
   25MOL     C917817   4.767   1.552   2.568 -0.1145  0.1214  0.3589
   25MOL    C1017818   4.829   1.602   2.695  0.3177  0.5260 -0.6372
   25MOL    C1117819   4.742   1.699   2.782 -0.3750 -0.0781 -0.3054
   25MOL    C1217820   4.793   1.751   2.915 -0.2277 -0.2682 -0.3149
   25MOL    C1317821   4.687   1.852   2.958 -0.4533  0.6882 -0.2025
   25MOL    N1417822   4.714   1.914   3.088 -0.2340  0.2904 -0.4073
   25MOL    H1517823   4.710   1.461   1.904  0.0104 -1.3864 -1.6220
   25MOL    H1617824   4.837   1.589   1.891 -1.3419 -0.6612 -1.2931
   25MOL    H1717825   4.968   1.501   2.063 -0.0997 -1.0979  1.8356
   25MOL    H1817826   4.803   1.554   2.108 -2.5476  0.1725 -3.3748
   25MOL    H1917827   4.910   1.262   2.079 -1.6410 -2.8306  1.1225
   25MOL    H2017828   4.741   1.291   2.132  0.6332 -1.2141  1.7570
   25MOL    H2117829   4.902   1.230   2.311 -1.2542  0.0443 -0.1904
   25MOL    H2217830   4.984   1.387   2.288 -1.2421  1.8270 -1.5735
   25MOL    H2317831   4.696   1.364   2.381  0.7238 -0.9253 -0.3446
   25MOL    H2417832   4.765   1.498   2.310  0.4650  2.1889  0.5872
   25MOL    H2517833   4.953   1.493   2.487 -0.2932  0.1056 -0.2811
   25MOL    H2617834   4.874   1.357   2.567 -1.3814  0.2023  1.1392
   25MOL    H2717835   4.674   1.499   2.586  0.3220 -0.3872  1.1329
   25MOL    H2817836   4.762   1.636   2.498  0.6846 -1.3963 -1.5704
   25MOL    H2917837   4.918   1.664   2.685  0.5684  0.6008  1.8211
   25MOL    H3017838   4.861   1.514   2.752 -0.7419  0.0688 -0.7457
   25MOL    H3117839   4.649   1.649   2.806  0.7353 -2.7126 -1.3190
   25MOL    H3217840   4.707   1.785   2.725  1.6293 -0.0376 -1.5540
   25MOL    H3317841   4.894   1.791   2.907 -0.1604 -0.0248  1.6347
   25MOL    H3417842   4.805   1.670   2.986 -2.0940 -0.4450 -0.1638
   25MOL    H3517843   4.588   1.807   2.957  1.0772 -2.8869  0.0388
   25MOL    H3617844   4.696   1.928   2.880  0.8663  1.1126  0.3555
   25MOL    H3717845   4.738   2.012   3.088 -2.9449  1.0136  0.5087
   25MOL    H3817846   4.990   1.359   1.865  1.6981  0.7937 -3.5442
   25MOL    C3917847   4.670   1.865   3.201 -0.1913 -0.2075  0.2161
   25MOL    O4017848   4.619   1.755   3.208 -0.1913  0.5249 -0.3694
   25MOL    C4117849   4.669   1.958   3.324 -0.2191 -0.7437 -0.2693
   25MOL    C4217850   4.585   1.905   3.444 -0.6162  0.2560 -0.1448
   25MOL    C4317851   4.556   2.017   3.545 -0.0417  0.4964  0.4844
   25MOL    C4417852   4.684   2.060   3.621 -0.2832  0.6258 -0.2336
   25MOL    C4517853   4.731   1.958   3.737 -0.0177  0.3064 -0.1640
   25MOL    C4617854   4.850   1.990   3.821 -0.9230  0.0184 -0.4905
   25MOL    C4717855   4.973   2.022   3.740 -0.1669  0.1663 -0.5394
   25MOL    C4817856   5.102   2.012   3.826  0.1594  0.4609 -0.2854
   25MOL    C4917857   5.135   1.869   3.874  0.0267 -0.8873  0.2167
   25MOL    C5017858   5.140   1.764   3.760  0.6089  0.6302 -0.5281
   25MOL    C5117859   5.171   1.617   3.804 -0.6286 -0.3690  0.3647
   25MOL    N5217860   5.284   1.611   3.898 -0.1535  0.6824 -0.5503
   25MOL    H5317861   4.617   2.050   3.298  1.3838 -0.0589 -1.1028
   25MOL    H5417862   4.772   1.985   3.349 -1.2619  1.7100  1.5947
   25MOL    H5517863   4.488   1.873   3.405 -1.3646  4.3328 -1.9154
   25MOL    H5617864   4.622   1.817   3.496 -1.0079 -0.3212 -0.8282
   25MOL    H5717865   4.500   1.974   3.628 -2.4842  1.9307 -0.4052
   25MOL    H5817866   4.500   2.093   3.493 -2.5109  0.0322  2.3793
   25MOL    H5917867   4.767   2.057   3.550  0.1291 -0.5743  0.2896
   25MOL    H6017868   4.674   2.160   3.664 -0.0700 -0.1235  1.5930
   25MOL    H6117869   4.756   1.861   3.694 -0.4510  0.5482 -0.9725
   25MOL    H6217870   4.644   1.938   3.799  0.5765 -1.6541  0.0514
   25MOL    H6317871   4.872   1.897   3.873  0.7222  0.7465  0.1283
   25MOL    H6417872   4.833   2.062   3.900 -3.1507  1.7017 -2.4323
   25MOL    H6517873   4.966   2.125   3.705  0.0429  0.7947  1.2085
   25MOL    H6617874   4.978   1.959   3.651  1.6947 -2.0938  1.0916
   25MOL    H6717875   5.099   2.080   3.911  2.2152  0.0736  0.1333
   25MOL    H6817876   5.192   2.044   3.773  0.1845 -0.2659 -0.6843
   25MOL    H6917877   5.063   1.845   3.952 -1.0067  0.0819 -0.4252
   25MOL    H7017878   5.234   1.874   3.918 -0.6652 -0.4320  1.7548
   25MOL    H7117879   5.221   1.788   3.692  1.0834  0.5807  0.0179
   25MOL    H7217880   5.053   1.758   3.695  1.7840  1.2157 -2.1706
   25MOL    H7317881   5.186   1.571   3.706  0.3408 -0.7510  0.6860
   25MOL    H7417882   5.091   1.558   3.848  0.6758 -2.0324  0.5558
   25MOL    H7517883   5.264   1.617   3.997 -2.6993  0.9719 -1.0276
   25MOL    C7617884   5.412   1.613   3.866 -0.3122  0.1920  0.4492
   25MOL    O7717885   5.448   1.613   3.750 -0.9367 -0.4100  0.2119
   25MOL    C7817886   5.513   1.624   3.981  0.1434 -0.2551  0.1500
   25MOL    C7917887   5.627   1.517   3.967  0.1907  1.1520  0.3187
   25MOL    C8017888   5.735   1.520   4.080  0.3211 -0.3874 -0.8238
   25MOL    C8117889   5.815   1.393   4.090  0.0952  0.2326 -0.2670
   25MOL    C8217890   5.926   1.410   4.207 -0.0999 -0.2621 -0.3959
   25MOL    C8317891   6.040   1.313   4.193 -0.1586  0.0176  0.5554
   25MOL    C8417892   6.151   1.328   4.287 -0.2970  0.0806  0.4492
   25MOL    C8517893   6.272   1.232   4.254 -0.6300  0.2650 -0.6050
   25MOL    C8617894   6.406   1.272   4.325  1.2450 -0.3205 -0.4394
   25MOL    C8717895   6.510   1.165   4.289  0.3606 -0.7419 -0.4870
   25MOL    C8817896   6.644   1.203   4.335  0.5944  0.1719 -0.9268
   25MOL    N8917897   6.668   1.205   4.478 -0.0722 -0.1677 -0.3963
   25MOL    H9017898   5.456   1.621   4.074  2.3775 -1.1978  1.5341
   25MOL    H9117899   5.547   1.727   3.971 -1.4771  0.2212 -0.6430
   25MOL    H9217900   5.584   1.417   3.961 -0.7202  1.6188 -1.5545
   25MOL    H9317901   5.678   1.542   3.874  0.2671  0.2008  0.0965
   25MOL    H9417902   5.691   1.540   4.178  2.6062  0.2624  0.1219
   25MOL    H9517903   5.802   1.604   4.062 -0.9125  0.4830 -1.4278
   25MOL    H9617904   5.743   1.317   4.119  0.5268  0.9012  2.7570
   25MOL    H9717905   5.846   1.361   3.991  0.7916  0.3495 -0.0954
   25MOL    H9817906   5.883   1.404   4.307  0.6403  0.9862  0.0135
   25MOL    H9917907   5.977   1.506   4.214  3.4628 -2.1895  1.5938
   25MOL   H10017908   6.081   1.314   4.092 -0.2652 -1.2604  0.4897
   25MOL   H10117909   6.001   1.212   4.208  0.9638 -0.7672 -1.6293
   25MOL   H10217910   6.123   1.306   4.390  1.0939 -1.4409  0.5355
   25MOL   H10317911   6.198   1.426   4.284  0.8854 -0.3977  1.9294
   25MOL   H10417912   6.301   1.227   4.149 -1.8950 -2.7501 -0.8466
   25MOL   H10517913   6.240   1.131   4.279  0.3124  0.2674  0.6828
   25MOL   H10617914   6.379   1.267   4.431 -1.5801  2.9231 -0.9198
   25MOL   H10717915   6.438   1.375   4.316 -0.7713  0.5874  2.0896
   25MOL   H10817916   6.501   1.148   4.181  0.3284  1.9981 -0.9543
   25MOL   H10917917   6.475   1.072   4.333 -0.6177 -0.3110 -0.3309
   25MOL   H11017918   6.672   1.302   4.298  1.8624 -0.4541 -1.6747
   25MOL   H11117919   6.710   1.132   4.285  2.8911  0.7460  1.1702
   25MOL   H11217920   6.599   1.162   4.536 -1.5314 -0.6788 -2.4518
   25MOL   C11317921   6.762   1.279   4.546  0.0953 -0.4950  0.0524
   25MOL   O11417922   6.857   1.334   4.487 -0.6340 -0.5158  0.0841
   25MOL   C11517923   6.761   1.265   4.696 -0.0215  0.5003 -0.6039
   25MOL   C11617924   6.894   1.207   4.748 -0.0691 -0.1495  0.2896
   25MOL   C11717925   6.949   1.075   4.678  0.6018  0.2728 -0.2084
   25MOL   C11817926   6.851   0.959   4.656  0.5339  0.8027  0.4594
   25MOL   C11917927   6.907   0.849   4.571  0.5884  0.4994 -0.4869
   25MOL   C12017928   6.792   0.754   4.525  0.4910  0.0314 -0.1780
   25MOL   C12117929   6.823   0.645   4.421 -0.7765  0.4681  0.4144
   25MOL   C12217930   6.696   0.588   4.356 -0.6694  0.5449 -0.0434
   25MOL   C12317931   6.703   0.472   4.247 -0.3696  0.2402 -0.2236
   25MOL   C12417932   6.570   0.438   4.186  0.4974 -0.5702 -0.8024
   25MOL   C12517933   6.548   0.290   4.131  0.0669 -0.6308 -0.1510
   25MOL   N12617934   6.677   0.233   4.086  0.6511  0.1041  0.3495
   25MOL   H12717935   6.674   1.210   4.732  0.2406  0.0604 -0.6330
   25MOL   H12817936   6.755   1.363   4.742  0.3061  0.7510 -1.0898
   25MOL   H12917937   6.976   1.279   4.752  0.0717 -0.3821  1.9602
   25MOL   H13017938   6.872   1.183   4.852 -0.6897 -0.9843 -0.0286
   25MOL   H13117939   7.027   1.024   4.735  0.6351 -1.0968 -1.4550
   25MOL   H13217940   6.992   1.113   4.585  0.6621  2.3070  0.6193
   25MOL   H13317941   6.817   0.919   4.752  0.6333  1.5771  0.8253
   25MOL   H13417942   6.753   0.989   4.619  0.1674 -0.4720  0.3701
   25MOL   H13517943   6.966   0.784   4.636 -1.4343 -1.2585 -0.3648
   25MOL   H13617944   6.948   0.891   4.480 -1.2378 -1.5651 -2.3047
   25MOL   H13717945   6.715   0.815   4.479 -0.1033 -0.9742 -0.5427
   25MOL   H13817946   6.734   0.707   4.604 -1.7440  2.4838 -0.2830
   25MOL   H13917947   6.891   0.571   4.463 -1.9927 -0.6730  0.4104
   25MOL   H14017948   6.886   0.689   4.343  0.2993 -1.4956  0.1248
   25MOL   H14117949   6.628   0.659   4.308  0.7990  1.6570 -0.5213
   25MOL   H14217950   6.625   0.561   4.434 -0.8305  0.2297 -0.2957
   25MOL   H14317951   6.736   0.386   4.304  2.1191  0.2315 -1.6128
   25MOL   H14417952   6.774   0.500   4.168  0.7456  1.9870  1.3564
   25MOL   H14517953   6.557   0.503   4.099  1.0115  1.2323  0.4242
   25MOL   H14617954   6.488   0.460   4.254 -0.3226 -1.9765 -1.3126
   25MOL   H14717955   6.456   0.291   4.072  0.3262  2.2626 -0.5747
   25MOL   H14817956   6.524   0.231   4.219 -0.1921 -1.3409 -0.6956
   25MOL   H14917957   6.750   0.206   4.150  2.2348 -0.0808 -1.4707
   25MOL   C15017958   6.700   0.192   3.961  0.5812  0.0127  0.6768
   25MOL   O15117959   6.617   0.212   3.875 -0.2616  0.1254 -0.0694
   25MOL   C15217960   6.822   0.113   3.941  0.2322 -0.0308  0.1585
   25MOL   C15317961   6.842   0.039   3.808 -0.2432 -0.3140  0.1111
   25MOL   C15417962   6.763   7.603   3.769  0.4365  0.2217 -0.1273
   25MOL   C15517963   6.849   7.532   3.670 -0.7111  0.2261  0.4536
   25MOL   C15617964   6.756   7.432   3.600  0.6935 -0.8155 -0.6707
   25MOL   C15717965   6.841   7.326   3.527 -0.4271  0.1933  0.0459
   25MOL   C15817966   6.760   7.228   3.443 -0.4754 -0.1014 -0.2036
   25MOL   C15917967   6.858   7.120   3.395  0.9151 -0.2740  0.5550
   25MOL   C16017968   6.800   7.055   3.270 -0.6871  0.8759 -0.1999
   25MOL   C16117969   6.871   6.921   3.234 -0.2520 -0.1496  0.9433
   25MOL   C16217970   6.812   6.806   3.309 -0.0160  0.5805 -0.3867
   25MOL   N16317971   6.668   6.783   3.290  0.0983  0.6733  0.0132
   25MOL   H16417972   6.834   0.047   4.027  0.8154 -0.6980 -0.4272
   25MOL   H16517973   6.898   0.189   3.961 -0.6044  1.1298 -0.9604
   25MOL   H16617974   6.825   0.112   3.729 -0.2588  0.0768  0.4807
   25MOL   H16717975   6.948   0.014   3.818 -0.5579 -2.4307 -1.3539
   25MOL   H16817976   6.668   7.643   3.733 -0.3633 -1.8706 -0.3908
   25MOL   H16917977   6.739   7.536   3.852  1.5665  0.9060  0.7726
   25MOL   H17017978   6.886   7.606   3.599  2.1460 -1.0933  0.5027
   25MOL   H17117979   6.927   7.478   3.723  1.5034  2.5912 -0.3100
   25MOL   H17217980   6.684   7.485   3.539  0.9544 -0.8521 -1.0077
   25MOL   H17317981   6.707   7.382   3.684 -1.9758 -0.8206 -2.1831
   25MOL   H17417982   6.916   7.280   3.591 -0.2019 -0.6795 -0.8463
   25MOL   H17517983   6.898   7.388   3.458 -1.9180  1.9290  0.3233
   25MOL   H17617984   6.717   7.286   3.361  1.9493 -1.0550 -2.2124
   25MOL   H17717985   6.678   7.184   3.499 -0.9093 -0.0516 -0.7961
   25MOL   H17817986   6.862   7.045   3.474 -2.1005 -0.9516  0.1096
   25MOL   H17917987   6.955   7.162   3.367  1.3557 -1.3645  0.4175
   25MOL   H18017988   6.805   7.124   3.186 -0.3257  2.1705  0.8757
   25MOL   H18117989   6.694   7.040   3.291 -0.6203 -0.2591 -0.6456
   25MOL   H18217990   6.979   6.937   3.233 -0.3481  0.5360  0.8723
   25MOL   H18317991   6.870   6.915   3.125  2.0760  0.6039  0.8439
   25MOL   H18417992   6.839   6.826   3.413  1.8048  2.0839 -1.1146
   25MOL   H18517993   6.874   6.724   3.274 -1.4232 -1.3753  1.5078
   25MOL   H18617994   6.608   6.796   3.370  1.3251  0.8333  0.9204
   25MOL   C18717995   6.619   6.743   3.178 -0.1303 -0.3235 -0.4665
   25MOL   O18817996   6.691   6.709   3.080  0.5384  0.2336  0.5101
   25MOL   C18917997   6.461   6.744   3.161  0.0174  0.3124  0.2489
   25MOL   C19017998   6.410   6.858   3.075  0.4266 -0.6128  0.7568
   25MOL   C19117999   6.454   7.004   3.106 -0.6498  0.2678 -0.0385
   25MOL   C19218000   6.375   7.091   3.012  0.2574  0.4360  0.3643
   25MOL   C19318001   6.371   7.244   3.051 -0.0306  0.1225 -0.3170
   25MOL   C19418002   6.310   7.284   3.183 -0.4363 -0.5592 -0.4787
   25MOL   C19518003   6.199   7.381   3.186  0.9676  0.2966 -0.0997
   25MOL   C19618004   6.155   7.402   3.336  0.3803  0.7797  0.5489
   25MOL   C19718005   6.044   7.514   3.349 -0.4571 -0.3274  0.1247
   25MOL   C19818006   5.908   7.450   3.329 -0.3570 -0.2403 -0.6871
   25MOL   C19918007   5.802   7.555   3.301  0.4222  0.5330  0.4676
   25MOL   N20018008   5.698   7.487   3.238  1.1052  0.2237 -0.1179
   25MOL   H20118009   6.423   6.762   3.262  0.6091  1.2387  0.3137
   25MOL   H20218010   6.412   6.648   3.145 -0.8635  0.2888  2.8006
   25MOL   H20318011   6.441   6.836   2.973 -0.8615  0.6035  0.0787
   25MOL   H20418012   6.302   6.849   3.069  0.3713 -0.1823  1.0236
   25MOL   H20518013   6.562   7.024   3.112 -0.0402 -2.8769  0.1938
   25MOL   H20618014   6.409   7.028   3.202 -1.7284 -0.7130 -0.2908
   25MOL   H20718015   6.403   7.077   2.908 -0.0698  0.9422  0.2071
   25MOL   H20818016   6.268   7.067   3.010 -0.3260  2.9728 -0.5401
   25MOL   H20918017   6.323   7.296   2.968  1.6622  0.2821 -1.2085
   25MOL   H21018018   6.465   7.300   3.045 -0.2356  0.5723  0.4800
   25MOL   H21118019   6.390   7.316   3.250 -0.7845 -1.5102  0.4039
   25MOL   H21218020   6.272   7.197   3.237 -1.9467  1.1374  1.2716
   25MOL   H21318021   6.114   7.343   3.128 -0.3181 -0.3901  2.1789
   25MOL   H21418022   6.244   7.470   3.143  0.5467  0.1491 -0.8560
   25MOL   H21518023   6.239   7.417   3.404  0.9430 -2.6155  0.6516
   25MOL   H21618024   6.106   7.314   3.376  1.3759  0.2888  0.7099
   25MOL   H21718025   6.058   7.595   3.277 -2.3962 -1.1496 -1.2170
   25MOL   H21818026   6.056   7.555   3.449  1.2979 -0.1472 -0.1552
   25MOL   H21918027   5.878   7.382   3.409 -1.2085  1.3706  0.3777
   25MOL   H22018028   5.907   7.385   3.241  0.7184  1.0599 -1.6854
   25MOL   H22118029   5.843   7.636   3.240  0.7902 -0.6860 -0.9402
   25MOL   H22218030   5.767   7.604   3.391 -1.9217  0.3126 -0.2856
   25MOL   H22318031   5.671   7.519   3.147  1.2569 -0.2429 -0.3317
   25MOL   C22418032   5.607   7.404   3.292 -0.5095  0.0514 -0.4650
   25MOL   O22518033   5.605   7.376   3.415  0.3630 -0.3603 -0.1739
   25MOL   C22618034   5.493   7.367   3.197 -0.9024  0.2331 -0.0575
   25MOL   C22718035   5.362   7.434   3.247 -0.2705 -0.2076  0.3362
   25MOL   C22818036   5.356   7.591   3.261  0.4791  0.0501 -0.1472
   25MOL   C22918037   5.385   7.639   3.405 -0.2790  0.7633 -0.0730
   25MOL   C23018038   5.354   0.090   3.440  0.4385  0.3793  0.3274
   25MOL   C23118039   5.365   0.122   3.592 -0.2142  0.1096 -0.2212
   25MOL   C23218040   5.262   0.051   3.686  0.0550 -0.3379  0.4273
   25MOL   C23318041   5.248   0.114   3.824  0.3324 -0.6722  0.0121
   25MOL   C23418042   5.140   0.043   3.915  0.5365  0.1917 -0.2654
   25MOL   C23518043   5.119   0.122   4.041  0.7384  0.2171 -0.3642
   25MOL   C23618044   5.045   0.049   4.154 -0.2781  0.4345  0.7079
   25MOL   N23718045   4.904   0.032   4.129  0.8582  0.0682  0.3220
   25MOL   H23818046   5.479   7.259   3.184 -2.1020  0.2334  1.0492
   25MOL   H23918047   5.506   7.419   3.103  0.4969  1.2567  0.6847
   25MOL   H24018048   5.284   7.412   3.174  2.6575  0.3249 -3.0798
   25MOL   H24118049   5.340   7.382   3.340  1.3279 -1.8898 -0.2055
   25MOL   H24218050   5.253   7.624   3.245  0.6828  0.3782 -0.7808
   25MOL   H24318051   5.419   7.647   3.192 -0.8386  1.5057 -0.2269
   25MOL   H24418052   5.325   7.567   3.461  0.6257 -1.1576 -1.5155
   25MOL   H24518053   5.490   7.634   3.432 -0.4474  1.2540  0.7119
   25MOL   H24618054   5.257   0.115   3.396 -0.3770 -0.7310  1.4753
   25MOL   H24718055   5.420   0.157   3.384 -0.4475 -0.1259 -1.3563
   25MOL   H24818056   5.367   0.230   3.606  0.1415  0.1588 -0.6184
   25MOL   H24918057   5.466   0.093   3.622  0.9443  4.5441  0.4847
   25MOL   H25018058   5.291   7.640   3.699 -1.1691 -0.8007 -0.3968
   25MOL   H25118059   5.166   0.051   3.632  2.0599 -0.8674 -3.3310
   25MOL   H25218060   5.236   0.222   3.825  0.2804 -0.6741 -0.2543
   25MOL   H25318061   5.346   0.112   3.872  1.1362  2.9015 -1.3200
   25MOL   H25418062   5.183   7.640   3.942 -0.5678 -0.4638 -0.8205
   25MOL   H25518063   5.049   0.045   3.856 -0.0052  0.3952  0.5676
   25MOL   H25618064   5.063   0.213   4.017  2.1740  0.7053 -1.9874
   25MOL   H25718065   5.216   0.141   4.085  0.7802 -1.8765  0.5129
   25MOL   H25818066   5.059   0.110   4.243  0.5936 -1.3541  1.8447
   25MOL   H25918067   5.089   7.643   4.167 -1.3588 -0.3521 -1.4629
   25MOL   H26018068   4.877   7.685   4.041  0.4937  3.4018 -1.2058
   25MOL   C26118069   4.812   0.095   4.200  0.1530  0.4504  0.1782
   25MOL   O26218070   4.843   0.171   4.293  0.0630 -0.1361 -0.4900
   25MOL   C26318071   4.672   0.110   4.147 -0.6667 -1.0708  0.2606
   25MOL   C26418072   4.566   0.101   4.260  0.5280  0.2471  0.0751
   25MOL   C26518073   4.529   7.651   4.294 -0.3040 -0.0165 -0.4155
   25MOL   C26618074   4.431   7.634   4.410  0.0630 -0.4085 -0.0362
   25MOL   C26718075   4.304   0.019   4.396 -0.7375  1.5981 -0.1563
   25MOL   C26818076   4.187   7.658   4.485  0.1752 -0.4606  0.4000
   25MOL   C26918077   4.076   0.068   4.484  0.3245 -0.2975  0.5412
   25MOL   C27018078   3.961   0.041   4.580 -1.0215 -0.1127  0.5398
   25MOL   C27118079   3.862   0.158   4.579 -0.1384  0.1773  1.1945
   25MOL   C27218080   3.758   0.149   4.690  0.4124 -0.1670 -0.4142
   25MOL   C27318081   3.623   0.223   4.677  0.6353 -0.2661  0.3411
   25MOL   N27418082   3.573   0.229   4.535 -0.2346  0.4050 -0.0917
   25MOL   H27518083   4.653   0.030   4.076  0.1142  0.1847 -1.4148
   25MOL   H27618084   4.659   0.201   4.088  1.9254 -1.8023 -1.4683
   25MOL   H27718085   4.589   0.161   4.348  1.7025  0.4315 -0.3521
   25MOL   H27818086   4.480   0.157   4.222  0.1118 -0.4453 -0.0076
   25MOL   H27918087   4.615   7.588   4.312 -0.9559 -0.2098  2.3383
   25MOL   H28018088   4.470   7.618   4.209 -0.3544 -0.7642 -0.0894
   25MOL   H28118089   4.399   7.532   4.426 -0.2143 -0.1638  0.9867
   25MOL   H28218090   4.468   7.662   4.509 -1.7931 -2.9497  1.4203
   25MOL   H28318091   4.282   0.025   4.289 -1.4098  2.1085  0.0058
   25MOL   H28418092   4.316   0.123   4.426  0.0242  1.9524 -1.6409
   25MOL   H28518093   4.216   7.650   4.590  0.6659  1.8420  0.4710
   25MOL   H28618094   4.142   7.560   4.470 -0.5566 -0.3553  1.8348
   25MOL   H28718095   4.031   0.084   4.387  0.2171  1.6994  0.9120
   25MOL   H28818096   4.118   0.166   4.507  0.6493  0.3137 -2.5177
   25MOL   H28918097   4.005   0.036   4.680 -1.6214 -2.0730  0.7271
   25MOL   H29018098   3.914   7.640   4.552  0.4083 -0.9911  1.0232
   25MOL   H29118099   3.817   0.155   4.480  2.5552  0.8436 -0.0932
   25MOL   H29218100   3.924   0.247   4.589 -1.1330  1.1370 -0.9433
   25MOL   H29318101   3.813   0.169   4.781  0.3660  1.3151 -0.7032
   25MOL   H29418102   3.727   0.044   4.697 -0.2837  0.1157  0.7918
   25MOL   H29518103   3.635   0.321   4.723  0.6353 -0.4557  0.7466
   25MOL   H29618104   3.540   0.188   4.738 -0.8510  1.2656 -0.7259
   25MOL   H29718105   3.603   0.309   4.481 -0.6481 -1.0808 -2.6316
   25MOL   C29818106   3.514   0.136   4.466 -0.4912  0.7475  0.8126
   25MOL   O29918107   3.481   0.030   4.519  0.0635  0.3056 -0.1099
   25MOL   C30018108   3.512   0.155   4.310 -0.2749  0.1394 -0.1010
   25MOL   C30118109   3.452   0.286   4.265  0.1462 -0.0260 -0.3698
   25MOL   C30218110   3.384   0.287   4.124  0.1106  0.1042 -0.1806
   25MOL   C30318111   3.313   0.417   4.079 -0.1080 -0.1663 -0.1529
   25MOL   C30418112   3.203   0.395   3.974 -0.3233  0.0307 -0.2708
   25MOL   C30518113   3.131   0.526   3.931 -0.0860  0.0218  0.7223
   25MOL   C30618114   3.031   0.503   3.815 -0.0941 -0.3511 -0.2936
   25MOL   C30718115   2.959   0.631   3.763 -0.0331  0.5614  0.0330
   25MOL   C30818116   3.055   0.728   3.691 -0.4483 -0.1618 -0.2622
   25MOL   C30918117   2.984   0.850   3.625 -0.3286  0.9208  0.0774
   25MOL   C31018118   2.900   0.928   3.735  0.5258  0.5673 -0.5196
   25MOL   N31118119   2.846   1.058   3.692  0.1371  0.3464 -0.3346
   25MOL   H31218120   3.443   0.078   4.277 -0.4535  0.4570 -0.4625
   25MOL   H31318121   3.612   0.135   4.272  0.5877  0.3255  1.9591
   25MOL   H31418122   3.366   0.310   4.328 -0.2599  1.1455 -1.3402
   25MOL   H31518123   3.513   0.376   4.277 -3.2183  2.3143  0.1939
   25MOL   H31618124   3.310   0.208   4.136  0.6614 -0.1954  1.4415
   25MOL   H31718125   3.456   0.248   4.053 -1.0766  0.0787 -1.3826
   25MOL   H31818126   3.269   0.477   4.159  1.4724 -0.8672  1.2668
   25MOL   H31918127   3.394   0.467   4.025  0.6552 -1.7319 -0.4856
   25MOL   H32018128   3.148   0.310   4.013  0.2724 -0.3253 -0.1931
   25MOL   H32118129   3.253   0.351   3.888 -1.1042 -0.4221 -0.4946
   25MOL   H32218130   3.211   0.594   3.903  0.3054 -0.4211  0.7685
   25MOL   H32318131   3.080   0.579   4.012 -0.5805  1.1159 -0.2849
   25MOL   H32418132   2.954   0.427   3.830 -0.5076 -0.2437 -1.8194
   25MOL   H32518133   3.089   0.458   3.734  1.2189  0.6922  0.0647
   25MOL   H32618134   2.910   0.678   3.848 -3.1741 -1.9892 -0.2790
   25MOL   H32718135   2.889   0.613   3.682 -0.1895 -0.4938  0.3909
   25MOL   H32818136   3.111   0.669   3.618  0.3230  1.1772 -0.7657
   25MOL   H32918137   3.130   0.765   3.762 -1.3959 -1.3688  1.4138
   25MOL   H33018138   2.913   0.814   3.551  0.5241 -2.9429  1.0205
   25MOL   H33118139   3.062   0.909   3.576 -0.1020  1.3469  0.9358
   25MOL   H33218140   2.960   0.955   3.821  1.1586  2.0265 -1.3978
   25MOL   H33318141   2.818   0.862   3.765 -0.2494  1.7510 -0.0213
   25MOL   H33418142   2.887   1.105   3.613  1.7768 -0.6227 -0.0836
   25MOL   C33518143   2.746   1.125   3.762  0.0463  1.0369 -0.0792
   25MOL   O33618144   2.676   1.065   3.844 -0.5445 -0.4989 -0.0766
   25MOL   C33718145   2.729   1.273   3.736 -0.2190  0.4042 -1.1911
   25MOL   C33818146   2.768   1.361   3.853 -0.8862 -0.0168 -0.2161
   25MOL   C33918147   2.733   1.513   3.823  0.1759  0.8539 -0.0226
   25MOL   C34018148   2.717   1.589   3.952 -0.5748 -0.0413  0.1970
   25MOL   C34118149   2.708   1.738   3.926  0.5344  0.2726  0.6530
   25MOL   C34218150   2.670   1.818   4.056 -0.0572  0.3330  0.1954
   25MOL   C34318151   2.673   1.974   4.050  0.2731  0.1459 -0.0725
   25MOL   C34418152   2.589   2.036   3.941 -0.0684 -0.2173 -0.1260
   25MOL   C34518153   2.439   1.990   3.949  0.2093 -0.7712 -0.1562
   25MOL   C34618154   2.354   2.019   3.824 -0.1039  0.3265 -0.4019
   25MOL   C34718155   2.210   1.961   3.840 -0.5098 -0.1715  0.4751
   25MOL   N34818156   2.195   1.834   3.913  0.0813  0.3596 -0.1563
   25MOL   H34918157   2.627   1.295   3.705 -0.7292 -1.0087 -0.6052
   25MOL   H35018158   2.777   1.305   3.644 -0.2421  1.6451 -0.7731
   25MOL   H35118159   2.719   1.326   3.943  0.3521 -1.5017 -0.1177
   25MOL   H35218160   2.874   1.347   3.874 -1.0847 -0.7779  0.2739
   25MOL   H35318161   2.645   1.527   3.760 -1.0586 -1.1513  1.2351
   25MOL   H35418162   2.815   1.562   3.770 -1.2180  3.1067 -0.1871
   25MOL   H35518163   2.626   1.559   4.004  0.5198 -0.3120  1.9671
   25MOL   H35618164   2.794   1.567   4.025 -0.9449 -2.3012 -0.0246
   25MOL   H35718165   2.633   1.764   3.851 -1.2926  1.7752  2.9229
   25MOL   H35818166   2.803   1.778   3.890  0.4067  0.6731  0.7515
   25MOL   H35918167   2.730   1.784   4.140 -0.5110  0.9702  0.7813
   25MOL   H36018168   2.570   1.783   4.081 -0.0589  0.9179  1.0498
   25MOL   H36118169   2.772   2.016   4.033 -0.7931  2.7451 -0.1763
   25MOL   H36218170   2.632   1.997   4.148 -1.4094 -2.8919  0.0041
   25MOL   H36318171   2.626   2.018   3.840  0.4129  0.6942 -0.1113
   25MOL   H36418172   2.603   2.143   3.956  2.6417 -0.6316  0.5274
   25MOL   H36518173   2.385   2.036   4.031 -0.4224  0.4496 -1.2587
   25MOL   H36618174   2.431   1.881   3.961 -0.6149 -0.8129 -1.0962
   25MOL   H36718175   2.398   1.965   3.741 -0.5019  1.8934 -1.6444
   25MOL   H36818176   2.349   2.124   3.793 -0.6887 -0.3518 -2.6937
   25MOL   H36918177   2.175   1.926   3.743  1.7947 -0.0022 -0.4511
   25MOL   H37018178   2.149   2.048   3.868  1.6227  1.6146 -0.2667
   25MOL   H37118179   2.191   1.838   4.014  0.9897 -0.9389 -0.0586
   25MOL   C37218180   2.201   1.711   3.864 -0.6863  0.2589  0.2513
   25MOL   O37318181   2.212   1.691   3.743  0.4214  0.0200 -0.0540
   25MOL   C37418182   2.199   1.591   3.959  0.3472  0.4531  0.2626
   25MOL   C37518183   2.298   1.483   3.915  0.1704 -0.4483 -0.1711
   25MOL   C37618184   2.238   1.374   3.828  0.0823  0.4539  0.8147
   25MOL   C37718185   2.346   1.272   3.784  0.5965 -0.0854  0.3770
   25MOL   C37818186   2.287   1.151   3.704  0.3930 -0.3612 -0.2982
   25MOL   C37918187   2.372   1.035   3.667 -0.0527 -0.0624 -0.4842
   25MOL   C38018188   2.308   0.896   3.643 -0.2363 -0.1471 -0.9165
   25MOL   C38118189   2.405   0.788   3.604 -0.0114 -0.7871  0.0597
   25MOL   C38218190   2.415   0.782   3.454  0.8831 -0.0201 -0.8962
   25MOL   C38318191   2.527   0.683   3.416  0.5704 -0.6831 -0.9657
   25MOL   C38418192   2.659   0.749   3.442  0.0995  0.0179 -0.7496
   25MOL   N38518193   2.766   0.679   3.372 -0.0499  0.2387 -0.0412
   25MOL   H38618194   2.097   1.554   3.961  0.5791 -0.2498 -0.7419
   25MOL   H38718195   2.224   1.633   4.057 -0.9256  1.6074  0.1102
   25MOL   H38818196   2.379   1.536   3.865 -0.2313  0.9176  0.6196
   25MOL   H38918197   2.339   1.435   4.004  0.9788  2.0404  0.8245
   25MOL   H39018198   2.188   1.419   3.742 -0.0738  1.5721  1.4772
   25MOL   H39118199   2.162   1.316   3.881  0.2497 -0.3745  0.1525
   25MOL   H39218200   2.408   1.320   3.707  0.5901  2.0590  1.6648
   25MOL   H39318201   2.410   1.243   3.868  1.0822 -1.3797 -0.4178
   25MOL   H39418202   2.233   1.188   3.617  0.9966 -3.7976 -2.1797
   25MOL   H39518203   2.199   1.118   3.760 -0.6509 -0.7772 -2.1564
   25MOL   H39618204   2.443   1.026   3.749  0.4358 -1.3391 -1.0488
   25MOL   H39718205   2.443   1.052   3.586  0.1509 -0.2734 -0.3504
   25MOL   H39818206   2.224   0.898   3.574  0.7781 -1.8832 -2.2433
   25MOL   H39918207   2.272   0.860   3.739 -2.6524  2.5309 -0.7582
   25MOL   H40018208   2.370   0.695   3.649  1.4029 -1.0773  0.5898
   25MOL   H40118209   2.497   0.816   3.656 -0.8458  0.3504  0.9381
   25MOL   H40218210   2.423   0.878   3.402 -0.7934  0.1925 -0.7804
   25MOL   H40318211   2.325   0.739   3.410  0.2083  0.8669 -0.3915
   25MOL   H40418212   2.513   0.666   3.309 -1.4502 -1.8363 -0.5349
   25MOL   H40518213   2.517   0.590   3.470  0.9287 -1.6275 -2.4945
   25MOL   H40618214   2.681   0.748   3.549  1.8414  2.5305 -1.0317
   25MOL   H40718215   2.670   0.856   3.424  1.1555  0.1605  0.6532
   25MOL   H40818216   2.823   0.611   3.419  1.0551  0.9516 -0.3384
   25MOL   C40918217   2.787   0.688   3.237  0.4096 -0.6502 -0.4868
   25MOL   O41018218   2.710   0.753   3.168 -0.2390 -0.0126 -0.3503
   25MOL   C41118219   2.909   0.616   3.182  0.0899  0.4442 -0.2111
   25MOL   C41218220   2.889   0.466   3.146 -0.0235  0.3280 -0.2688
   25MOL   C41318221   2.788   0.434   3.034  0.1700  0.1118  0.2260
   25MOL   C41418222   2.767   0.282   3.025  0.9289  0.2669 -0.4954
   25MOL   C41518223   2.892   0.205   2.975 -0.0537 -1.2554 -0.9832
   25MOL   C41618224   2.862   0.061   2.930  1.1257  0.0234 -0.6312
   25MOL   C41718225   2.858   7.643   3.035  0.0363  0.2317  0.5656
   25MOL   C41818226   2.744   7.650   3.137  0.3919  0.0945 -0.2777
   25MOL   C41918227   2.760   7.547   3.246 -0.4593 -0.0492 -0.8891
   25MOL   C42018228   2.657   7.567   3.354 -0.1353 -0.0755 -0.1969
   25MOL   C42118229   2.671   7.473   3.470  0.2718  0.9056 -0.1268
   25MOL   N42218230   2.578   7.504   3.580 -0.1744 -0.3827 -0.3789
   25MOL   H42318231   2.990   0.632   3.253 -0.8553  2.5076  0.4336
   25MOL   H42418232   2.942   0.655   3.086  0.2435  1.3510  0.2070
   25MOL   H42518233   2.985   0.426   3.115 -1.3301 -1.3859 -2.1569
   25MOL   H42618234   2.877   0.403   3.234 -2.2115  0.1002 -0.7133
   25MOL   H42718235   2.810   0.494   2.946  1.8221 -0.9268 -0.0909
   25MOL   H42818236   2.689   0.469   3.064 -0.4964  0.9985 -2.8531
   25MOL   H42918237   2.724   0.231   3.111  0.5898 -3.1258 -2.5861
   25MOL   H43018238   2.701   0.280   2.938  0.0252  0.0930  0.1761
   25MOL   H43118239   2.962   0.192   3.058 -0.7431 -0.0781 -0.2105
   25MOL   H43218240   2.942   0.257   2.894  1.8432  0.3460  1.1190
   25MOL   H43318241   2.934   0.030   2.854  0.1317 -0.8868 -1.2146
   25MOL   H43418242   2.776   0.063   2.863  1.3030 -1.6499 -0.9098
   25MOL   H43518243   2.951   7.643   3.093  1.6741  1.1590 -1.9727
   25MOL   H43618244   2.846   7.548   2.982  1.2382  0.0590  0.5763
   25MOL   H43718245   2.646   7.662   3.089  0.7284  0.1985 -0.9435
   25MOL   H43818246   2.742   0.055   3.182 -2.0883  0.9388 -2.0991
   25MOL   H43918247   2.855   7.563   3.298 -1.5069  2.0385  0.4544
   25MOL   H44018248   2.755   7.444   3.211 -1.3918  0.0123 -0.9355
   25MOL   H44118249   2.554   7.562   3.319 -0.3486 -0.4036  0.4698
   25MOL   H44218250   2.679   7.671   3.380  0.2950  0.4968 -2.7785
   25MOL   H44318251   2.778   7.469   3.492  0.2076  0.9502  0.1827
   25MOL   H44418252   2.664   7.368   3.441 -2.5169  1.2375 -0.7387
   25MOL   H44518253   2.496   7.555   3.552 -1.6270 -2.9016 -0.8854
   25MOL   C44618254   2.557   7.440   3.701 -0.9159  0.1934  0.6112
   25MOL   O44718255   2.639   7.344   3.721 -0.2822 -0.2112  0.2202
   25MOL   C44818256   2.445   7.474   3.796  0.0553  0.6722 -0.0128
   25MOL   C44918257   2.491   7.588   3.894  0.7223 -0.4880  0.4124
   25MOL   C45018258   2.375   7.646   3.972 -0.5589  0.1070  0.4921
   25MOL   C45118259   2.290   7.545   4.056  0.0409 -0.7255 -0.2991
   25MOL   C45218260   2.202   7.617   4.156 -0.3413  0.2655  1.1754
   25MOL   C45318261   2.110   7.529   4.242 -1.1379 -0.5106  0.1872
   25MOL   C45418262   2.197   7.467   4.360 -0.6106  0.0778  0.0399
   25MOL   C45518263   2.127   7.368   4.454 -0.2985  0.5252  0.2400
   25MOL   C45618264   2.207   7.293   4.559 -0.0971 -0.0611 -0.5335
   25MOL   C45718265   2.137   7.194   4.654 -0.1581  0.0386  1.0884
   25MOL   C45818266   2.222   7.162   4.784  0.4070  0.2510  0.4635
   25MOL   N45918267   2.346   7.087   4.764  0.0853 -0.4715 -0.1050
   25MOL   H46018268   2.433   7.375   3.841  3.2472  0.7433  1.1436
   25MOL   H46118269   2.354   7.493   3.740 -2.2102 -0.2913  3.1656
   25MOL   H46218270   2.562   7.545   3.966  0.5852  1.4322  1.7327
   25MOL   H46318271   2.542   7.658   3.828 -1.8636  1.6858  0.6798
   25MOL   H46418272   2.316   0.022   3.913 -2.2481 -1.2350  0.5598
   25MOL   H46518273   2.423   0.028   4.035 -1.2117 -0.0953  1.2303
   25MOL   H46618274   2.238   7.482   3.983 -0.6929  1.8437 -2.0800
   25MOL   H46718275   2.355   7.478   4.111  1.6026  1.2840  0.3834
   25MOL   H46818276   2.135   7.689   4.109  0.3133 -0.2242 -0.5398
   25MOL   H46918277   2.260   7.682   4.222  0.4222  1.5961 -0.7667
   25MOL   H47018278   2.072   7.443   4.187  0.9539 -2.4740  1.6779
   25MOL   H47118279   2.025   7.587   4.277  1.1331  0.9744  3.5156
   25MOL   H47218280   2.249   7.540   4.421  0.1919 -2.1423  2.0516
   25MOL   H47318281   2.276   7.402   4.322 -0.6479  0.3102 -0.4372
   25MOL   H47418282   2.072   7.286   4.408 -2.8615  1.3482  1.7441
   25MOL   H47518283   2.048   7.424   4.505 -1.0461 -2.2579  2.2177
   25MOL   H47618284   2.258   7.374   4.612 -0.7156  1.8709 -2.7738
   25MOL   H47718285   2.290   7.240   4.513 -0.2205  0.3802 -1.2750
   25MOL   H47818286   2.105   7.105   4.600 -2.2356  1.0333  0.6520
   25MOL   H47918287   2.044   7.238   4.688  1.0534  2.3696  1.4367
   25MOL   H48018288   2.157   7.103   4.848 -1.5230  1.7891 -0.0539
   25MOL   H48118289   2.241   7.259   4.829 -0.6819 -0.2940  2.1318
   25MOL   H48218290   2.336   6.993   4.727  1.2812 -0.2214 -1.1148
   25MOL   C48318291   2.472   7.124   4.797  0.5876 -0.1163  0.2754
   25MOL   O48418292   2.497   7.228   4.858 -0.1810  0.4629  0.3539
   25MOL   C48518293   2.578   7.018   4.766 -0.2200 -0.1407 -0.0266
   25MOL   C48618294   2.722   7.053   4.770  0.2323 -0.3002  0.0614
   25MOL   C48718295   2.807   6.935   4.795  0.4102  0.3470  0.9992
   25MOL   C48818296   2.956   6.970   4.804  0.2154 -0.1398  0.1832
   25MOL   C48918297   3.012   7.040   4.682 -0.0563 -0.6420 -1.0083
   25MOL   C49018298   3.023   6.951   4.564 -1.1056  0.0632  0.2831
   25MOL   C49118299   3.124   7.004   4.464 -0.6741 -0.1658  0.2951
   25MOL   C49218300   3.145   6.916   4.338  0.7834 -0.0463 -0.6033
   25MOL   C49318301   3.230   6.791   4.363  0.2555  0.3756  0.3627
   25MOL   C49418302   3.272   6.715   4.235  0.1244 -0.3916 -0.6145
   25MOL   C49518303   3.150   6.651   4.160 -0.1151  0.8392  0.1331
   25MOL   N49618304   3.190   6.574   4.037 -0.0530 -0.4437 -0.7875
   25MOL   H49718305   2.556   6.972   4.670 -0.1271  0.3472 -0.2845
   25MOL   H49818306   2.562   6.935   4.835 -1.7313  0.6599  0.6194
   25MOL   H49918307   2.747   7.105   4.678  1.1522  0.6735  0.8531
   25MOL   H50018308   2.750   7.130   4.842  2.8426  0.0280 -1.2874
   25MOL   H50118309   2.795   6.870   4.708 -2.1802  1.9462  0.1109
   25MOL   H50218310   2.784   6.874   4.882 -2.9831 -1.3921 -1.0299
   25MOL   H50318311   2.962   7.043   4.884 -2.9478  0.4687 -0.0529
   25MOL   H50418312   3.024   6.893   4.840  0.5245  1.0727  2.2485
   25MOL   H50518313   3.116   7.067   4.702 -0.1720 -0.6087 -0.4463
   25MOL   H50618314   2.960   7.133   4.658  0.5839 -0.2633 -0.9304
   25MOL   H50718315   2.926   6.942   4.517  0.4357  0.8720 -3.1863
   25MOL   H50818316   3.051   6.849   4.588  1.8008  0.5110 -0.9836
   25MOL   H50918317   3.221   7.034   4.502 -0.0345  1.7512 -2.6663
   25MOL   H51018318   3.079   7.099   4.435 -3.6519 -1.7767 -0.6870
   25MOL   H51118319   3.187   6.966   4.250  1.3052  0.5052 -0.0490
   25MOL   H51218320   3.048   6.889   4.297  0.3929  0.4082  0.0063
   25MOL   H51318321   3.185   6.721   4.433  2.3034 -2.2846 -0.8813
   25MOL   H51418322   3.321   6.821   4.416 -0.5336  0.1743  1.8513
   25MOL   H51518323   3.350   6.646   4.266 -0.1135 -0.3316  0.1257
   25MOL   H51618324   3.324   6.790   4.174 -0.7275 -1.2177 -2.4088
   25MOL   H51718325   3.075   6.724   4.129  0.0634  0.6821 -0.6766
   25MOL   H51818326   3.098   6.598   4.240  0.8631 -1.1654 -0.5274
   25MOL   H51918327   3.264   6.616   3.983  0.0955  1.2598  0.6755
   25MOL   C52018328   3.127   6.467   3.998  0.3247  0.3134  0.0299
   25MOL   O52118329   3.044   6.407   4.065 -0.7106 -0.4897  0.4338
   25MOL   C52218330   3.188   6.405   3.873  0.5454  0.7580  0.1225
   25MOL   C52318331   3.102   6.341   3.772  0.0454 -0.1229  0.0877
   25MOL   C52418332   3.038   6.447   3.683  0.1261 -0.2675  0.2104
   25MOL   C52518333   2.969   6.390   3.562  0.0359  0.4757 -0.6386
   25MOL   C52618334   2.891   6.490   3.486  1.0039 -0.7076  0.1833
   25MOL   C52718335   2.767   6.548   3.556 -0.1293  0.1277 -0.2234
   25MOL   C52818336   2.699   6.645   3.460  0.0245  0.1799 -0.0183
   25MOL   C52918337   2.584   6.716   3.538 -0.1544  0.4946 -0.7303
   25MOL   C53018338   2.540   6.842   3.475  0.0356  0.2975 -0.6495
   25MOL   C53118339   2.638   6.959   3.483 -0.6396  0.1532  0.1000
   25MOL   C53218340   2.704   6.994   3.621  0.0080 -0.0481  0.3167
   25MOL   N53318341   2.781   7.120   3.617 -0.0995 -0.3946 -0.5006
   25MOL   H53418342   3.249   6.326   3.916  0.2795 -0.9969 -2.6077
   25MOL   H53518343   3.249   6.475   3.814  1.3916  0.7634  0.9822
   25MOL   H53618344   3.169   6.287   3.704 -0.4549  0.4494 -0.8738
   25MOL   H53718345   3.028   6.271   3.810  1.2742 -2.2963 -1.3591
   25MOL   H53818346   3.106   6.526   3.652 -0.3396  0.5681  1.2913
   25MOL   H53918347   2.972   6.498   3.753  0.8711 -0.9721  1.4425
   25MOL   H54018348   3.040   6.349   3.490 -0.0110  0.5223 -0.7117
   25MOL   H54118349   2.902   6.307   3.585  0.7360  0.1959  0.4304
   25MOL   H54218350   2.860   6.444   3.393  1.4382 -1.9431  0.6379
   25MOL   H54318351   2.953   6.578   3.467  0.5999 -0.9384 -2.4097
   25MOL   H54418352   2.795   6.597   3.649 -0.2090 -0.3889  0.0793
   25MOL   H54518353   2.692   6.472   3.581 -0.1345  0.0706 -0.4069
   25MOL   H54618354   2.675   6.601   3.364  2.6315  2.2965 -1.7332
   25MOL   H54718355   2.780   6.715   3.436  0.6700 -0.6843 -0.3558
   25MOL   H54818356   2.611   6.746   3.639  2.9186  0.4399 -1.5122
   25MOL   H54918357   2.497   6.650   3.545  2.6496 -3.4266 -1.6733
   25MOL   H55018358   2.462   6.892   3.533  1.0409 -1.4035  2.2665
   25MOL   H55118359   2.491   6.839   3.378 -2.8607 -1.0855  0.7866
   25MOL   H55218360   2.596   7.053   3.449 -0.2985  0.2285 -0.1228
   25MOL   H55318361   2.720   6.950   3.412 -1.0077 -3.0705  0.0426
   25MOL   H55418362   2.767   6.912   3.656  1.0898  0.9754  0.7965
   25MOL   H55518363   2.617   7.016   3.683  0.2799 -0.4704  0.8579
   25MOL   H55618364   2.741   7.207   3.649 -0.1367 -1.2073  1.7206
   25MOL   C55718365   2.910   7.137   3.590 -0.6140  0.7378 -0.1728
   25MOL   O55818366   2.977   7.040   3.567  0.3710  0.0110  0.6944
   25MOL   C55918367   2.966   7.274   3.590 -0.2408 -0.5618  0.8647
   25MOL   C56018368   3.114   7.283   3.633  0.4097  0.5832 -0.1246
   25MOL   C56118369   3.151   7.257   3.784 -0.0442  0.0251  0.0969
   25MOL   C56218370   3.078   7.350   3.874 -0.3961  0.0448 -0.2414
   25MOL   C56318371   3.134   7.335   4.020 -0.3855  0.4641  0.5296
   25MOL   C56418372   3.082   7.446   4.113 -0.8897  0.2972  0.5177
   25MOL   C56518373   3.136   7.428   4.261  0.4792 -0.3417  0.3387
   25MOL   C56618374   3.094   7.542   4.354 -0.2235 -0.0245 -0.0048
   25MOL   C56718375   3.139   7.535   4.500 -0.8294 -0.4412 -0.2683
   25MOL   C56818376   3.064   7.639   4.590  0.3634  0.7245 -0.2925
   25MOL   C56918377   3.075   0.092   4.552  0.3940 -0.8903  0.8830
   25MOL   N57018378   3.028   0.171   4.662  0.1470  0.0716 -0.3549
   25MOL   H57118379   2.914   7.320   3.674 -2.7472  0.4474 -1.1630
   25MOL   H57218380   2.938   7.326   3.498  0.5175  1.0330  1.5201
   25MOL   H57318381   3.176   7.214   3.576 -0.8685 -0.7020  0.0374
   25MOL   H57418382   3.151   7.385   3.618  0.3794  0.5005 -0.7412
   25MOL   H57518383   3.257   7.250   3.810 -0.2703 -0.9101  0.7845
   25MOL   H57618384   3.111   7.159   3.811  1.3433 -0.3856  0.7040
   25MOL   H57718385   3.110   7.452   3.851  0.0159 -0.2065 -0.7899
   25MOL   H57818386   2.969   7.354   3.867 -0.3393  2.4129 -0.3922
   25MOL   H57918387   3.241   7.354   4.020 -0.1486 -0.8170 -0.7938
   25MOL   H58018388   3.113   7.237   4.064  0.0826 -0.3626 -1.0613
   25MOL   H58118389   2.974   7.435   4.103 -1.1237  0.7147  2.3961
   25MOL   H58218390   3.120   7.538   4.069 -0.2188 -0.2659 -0.0978
   25MOL   H58318391   3.245   7.423   4.258  0.5962  1.8330  0.6027
   25MOL   H58418392   3.102   7.330   4.297 -0.8276 -0.2387 -0.6194
   25MOL   H58518393   2.985   7.547   4.344 -0.2649 -1.1678 -0.2116
   25MOL   H58618394   3.123   7.638   4.310  0.2925  0.4446  1.3460
   25MOL   H58718395   3.247   7.541   4.512 -1.0229  1.3292  0.9155
   25MOL   H58818396   3.108   7.435   4.531 -3.7431  0.5965  0.3693
   25MOL   H58918397   3.095   7.620   4.693 -0.0854  2.4472  0.1799
   25MOL   H59018398   2.960   7.609   4.583  0.2670  1.5571 -2.9348
   25MOL   H59118399   3.007   0.105   4.469  1.9433  0.9512 -0.1367
   25MOL   H59218400   3.176   0.123   4.525  0.2492 -0.2057  1.1139
   25MOL   H59318401   2.943   0.222   4.642  1.0208  1.0575 -1.6345
   25MOL   C59418402   3.097   0.212   4.765 -0.7266 -0.7236 -0.7337
   25MOL   O59518403   3.221   0.197   4.774 -0.4357  0.1517  0.1642
   25MOL   C59618404   3.018   0.289   4.876 -0.2432  0.8794 -0.2240
   25MOL   C59718405   3.092   0.291   5.011 -0.0734  0.3546  1.0078
   25MOL   C59818406   3.074   0.157   5.094 -0.1442  0.6865 -0.4210
   25MOL   C59918407   2.926   0.100   5.109  0.5284  0.1343  0.8570
   25MOL   C60018408   2.924   7.658   5.181  0.5827  0.6238  0.7054
   25MOL   C60118409   2.928   7.670   5.329 -0.8627  0.4208  0.5850
   25MOL   C60218410   2.910   7.536   5.402 -0.9300 -0.2715 -0.3732
   25MOL   C60318411   2.901   7.539   5.551  0.3951 -0.1688  0.5369
   25MOL   C60418412   2.846   7.409   5.617  0.8746  0.1591 -0.1103
   25MOL   C60518413   2.852   7.408   5.772  0.0101 -0.1632  0.8283
   25MOL   C60618414   2.719   7.464   5.824  0.2419 -1.0209  0.1442
   25MOL   N60718415   2.701   7.473   5.974 -0.7404  0.6070  0.1310
   25MOL   H60818416   2.918   0.246   4.879  0.0567  0.0922 -1.2290
   25MOL   H60918417   3.011   0.391   4.839  0.7971  1.2986  0.7011
   25MOL   H61018418   3.199   0.312   5.010  0.3305 -1.6387  0.3206
   25MOL   H61118419   3.045   0.358   5.082  0.2206 -0.5810  2.1090
   25MOL   H61218420   3.136   0.156   5.183  0.3167  0.9651 -0.7408
   25MOL   H61318421   3.124   0.089   5.025  2.1684  0.2212  1.6395
   25MOL   H61418422   2.862   0.172   5.162 -2.3915 -1.2108 -0.7239
   25MOL   H61518423   2.893   0.097   5.005 -1.4608 -0.9989  1.4792
   25MOL   H61618424   3.008   7.594   5.156  0.6016  0.9700 -0.1398
   25MOL   H61718425   2.830   7.611   5.151  1.1556 -0.0739 -0.0213
   25MOL   H61818426   2.859   0.054   5.363 -0.0468  0.2020  2.8187
   25MOL   H61918427   3.027   0.011   5.358 -2.0635  2.5104  2.4149
   25MOL   H62018428   2.997   7.476   5.373  0.0499  1.4420 -1.0398
   25MOL   H62118429   2.827   7.488   5.351  0.9538 -2.5788 -1.3845
   25MOL   H62218430   2.845   7.623   5.590  2.3970  1.3434  0.2122
   25MOL   H62318431   3.003   7.537   5.588  0.4122 -0.5848  0.4768
   25MOL   H62418432   2.892   7.323   5.569  0.6282  0.3046 -0.6180
   25MOL   H62518433   2.743   7.417   5.580  1.2141  2.8176 -0.5981
   25MOL   H62618434   2.931   7.474   5.806  0.7032 -1.5975  2.0566
   25MOL   H62718435   2.863   7.304   5.802 -1.5451 -0.2364  1.1974
   25MOL   H62818436   2.632   7.414   5.783 -0.1027 -1.7600  1.7376
   25MOL   H62918437   2.703   7.562   5.780  2.1065 -0.8158 -0.1299
   25MOL   H63018438   2.745   7.401   6.030 -0.3243 -0.0627 -1.0319
   25MOL   C63118439   2.669   7.588   6.041  0.1447  0.1530  0.7324
   25MOL   O63218440   2.625   7.690   5.985  0.1886 -0.2729 -0.0154
   25MOL   C63318441   2.696   7.586   6.192 -0.4294  0.1453 -0.6629
   25MOL   C63418442   2.742   0.020   6.271 -0.1809 -0.1384 -0.9657
   25MOL   C63518443   2.631   0.123   6.304  0.6987  0.0414 -0.1862
   25MOL   C63618444   2.689   0.251   6.370  0.3497  0.7138  0.6491
   25MOL   C63718445   2.570   0.343   6.412 -0.0643  0.7329  0.2607
   25MOL   C63818446   2.626   0.476   6.474  0.0617 -0.0886  0.1998
   25MOL   C63918447   2.517   0.581   6.511 -0.1248 -0.5094  0.2992
   25MOL   C64018448   2.571   0.726   6.533  0.9855 -0.0922  0.0960
   25MOL   C64118449   2.454   0.829   6.572 -0.5136 -0.2143  0.0351
   25MOL   C64218450   2.485   0.977   6.543  0.2275 -0.1055 -0.0388
   25MOL   C64318451   2.357   1.061   6.545  0.0372 -0.1602 -0.3651
   25MOL   N64418452   2.386   1.191   6.495 -0.2584  0.2967  0.1890
   25MOL   H64518453   2.774   7.513   6.208  2.1101  2.1737 -3.2767
   25MOL   H64618454   2.603   7.546   6.232 -0.0424  1.0063  1.1614
   25MOL   H64718455   2.797   7.687   6.361 -0.5303  1.1827 -0.3382
   25MOL   H64818456   2.821   0.064   6.210  0.7732 -0.2805  0.1544
   25MOL   H64918457   2.562   0.076   6.373 -0.3205  0.8470 -0.6440
   25MOL   H65018458   2.585   0.159   6.212  0.4105 -0.1358 -0.1102
   25MOL   H65118459   2.748   0.216   6.455  1.7119  1.3379 -0.0291
   25MOL   H65218460   2.759   0.306   6.308  2.3386 -2.9682 -0.4842
   25MOL   H65318461   2.510   0.291   6.487  0.0355  0.8985  0.4541
   25MOL   H65418462   2.509   0.358   6.323 -1.2764 -1.6706  0.6402
   25MOL   H65518463   2.696   0.520   6.403  0.6518 -0.5049  0.5236
   25MOL   H65618464   2.700   0.457   6.552 -0.6452  1.7599  1.3461
   25MOL   H65718465   2.456   0.531   6.586 -1.2944  0.0461 -0.2701
   25MOL   H65818466   2.445   0.583   6.429  1.1492 -3.1605 -0.9582
   25MOL   H65918467   2.613   0.748   6.435 -0.5491 -1.0693 -0.8037
   25MOL   H66018468   2.654   0.723   6.604 -0.0990 -2.1713  1.3497
   25MOL   H66118469   2.432   0.802   6.675  1.1383  0.2514  0.5247
   25MOL   H66218470   2.368   0.796   6.514 -0.8904  0.6746  0.0741
   25MOL   H66318471   2.529   0.976   6.444  0.5834  1.5263  0.0864
   25MOL   H66418472   2.559   1.023   6.608  0.2128 -0.9985  0.6202
   25MOL   H66518473   2.316   1.076   6.645  1.0584  2.2903 -0.2703
   25MOL   H66618474   2.277   1.013   6.488 -0.0211 -0.1251 -0.3139
   25MOL   H66718475   2.484   1.202   6.472  0.0228 -0.6305  0.9029
   25MOL   C66818476   2.305   1.292   6.467  0.3116  0.6607 -0.1869
   25MOL   O66918477   2.185   1.278   6.495  0.8571 -0.5634  0.1129
   25MOL   C67018478   2.361   1.420   6.404 -0.4702 -0.3473  0.3269
   25MOL   C67118479   2.262   1.468   6.296 -0.0252  0.2816 -0.4619
   25MOL   C67218480   2.287   1.395   6.165  0.5972 -0.2906 -0.3076
   25MOL   C67318481   2.195   1.449   6.051  0.1691 -0.3963  0.7678
   25MOL   C67418482   2.219   1.378   5.916 -0.3960  0.7157  0.1153
   25MOL   C67518483   2.098   1.394   5.827  0.3270 -0.5832 -0.9385
   25MOL   C67618484   2.070   1.542   5.788  0.3737 -1.1052  0.4109
   25MOL   C67718485   1.952   1.564   5.697 -0.2737  0.0064 -0.6733
   25MOL   C67818486   1.953   1.699   5.625  0.0801  0.7733  0.4529
   25MOL   C67918487   1.938   1.818   5.719  0.0468 -0.5225 -0.2140
   25MOL   C68018488   1.809   1.828   5.813 -0.2979  0.0749 -0.1726
   25MOL   N68118489   1.800   1.958   5.875  0.1494 -0.2719 -0.6744
   25MOL   H68218490   2.466   1.411   6.379 -0.1504  1.2468  1.0495
   25MOL   H68318491   2.375   1.495   6.481  2.4491  1.5317 -1.9249
   25MOL   H68418492   2.158   1.446   6.321 -0.4852  2.1619 -0.6608
   25MOL   H68518493   2.273   1.574   6.274 -0.9300  0.7888  1.3984
   25MOL   H68618494   2.266   1.288   6.175 -0.3935 -0.0696  0.0119
   25MOL   H68718495   2.389   1.412   6.129  1.7067 -2.5044  1.6626
   25MOL   H68818496   2.089   1.441   6.077 -0.7848  0.5367 -2.5888
   25MOL   H68918497   2.221   1.554   6.040 -4.0693  0.5892 -0.7357
   25MOL   H69018498   2.223   1.270   5.935  1.4700  0.4353 -1.7384
   25MOL   H69118499   2.315   1.399   5.870  1.1726 -1.6706  2.1660
   25MOL   H69218500   2.013   1.371   5.891  1.4585  2.9774  2.0345
   25MOL   H69318501   2.110   1.331   5.740 -0.0220 -1.0846 -0.6244
   25MOL   H69418502   2.153   1.565   5.721 -0.0977  2.0761  0.8389
   25MOL   H69518503   2.073   1.614   5.870  1.7860  1.0158 -1.4287
   25MOL   H69618504   1.864   1.547   5.759  0.2656 -1.4340 -0.2709
   25MOL   H69718505   1.943   1.486   5.621  0.2974  2.4899 -3.3643
   25MOL   H69818506   1.868   1.712   5.560  2.3093 -0.7036 -2.8861
   25MOL   H69918507   2.042   1.702   5.563  0.1519 -1.0062  0.4479
   25MOL   H70018508   1.938   1.904   5.652  0.9971 -0.2468  0.1290
   25MOL   H70118509   2.033   1.826   5.773 -0.4337 -2.1606  0.9201
   25MOL   H70218510   1.803   1.743   5.881  0.3295 -0.2636 -0.5287
   25MOL   H70318511   1.722   1.825   5.749 -0.4654  0.8910  0.0133
   25MOL   H70418512   1.729   2.026   5.855  1.4391  1.8119  1.5043
   25MOL   C70518513   1.869   1.996   5.989  0.7126 -0.1044  0.3208
   25MOL   O70618514   1.950   1.917   6.041 -0.0489  0.2330  0.3350
   25MOL   C70718515   1.855   2.139   6.032 -0.3740 -0.0958 -0.5541
   25MOL   C70818516   1.931   2.229   5.928 -0.3305  0.4060 -0.5571
   25MOL   C70918517   2.078   2.240   5.961  0.3967 -0.1018 -0.1578
   25MOL   C71018518   2.144   2.340   5.864 -0.1459 -0.1477 -0.5506
   25MOL   C71118519   2.292   2.361   5.913 -0.7972 -0.7500  0.4410
   25MOL   C71218520   2.349   2.486   5.840 -0.8423 -0.3485  0.0707
   25MOL   C71318521   2.404   2.454   5.711  0.0184 -0.2375 -0.4256
   25MOL   C71418522   2.425   2.581   5.631 -0.2188 -0.6553 -0.2805
   25MOL   C71518523   2.566   2.631   5.642 -0.1189 -0.2400 -0.7642
   25MOL   C71618524   2.582   2.756   5.554 -0.9153  0.5481  0.5257
   25MOL   C71718525   2.717   2.832   5.569 -0.0025 -0.2953 -0.8453
   25MOL   N71818526   2.727   2.937   5.473 -0.5213 -0.3851 -0.4027
   25MOL   H71918527   1.900   2.155   6.130  0.0000  0.4916 -0.8192
   25MOL   H72018528   1.746   2.146   6.034 -0.3006  0.6585  2.1939
   25MOL   H72118529   1.926   2.177   5.832  1.1191 -2.0417  0.6390
   25MOL   H72218530   1.887   2.329   5.932 -0.6681  0.2441 -0.1699
   25MOL   H72318531   2.123   2.143   5.941 -1.5102 -1.6603  2.7427
   25MOL   H72418532   2.091   2.270   6.065  1.3720  0.8447 -0.5491
   25MOL   H72518533   2.140   2.307   5.760 -0.5771 -0.1934 -0.5210
   25MOL   H72618534   2.087   2.432   5.882 -1.2276 -1.1089  1.0996
   25MOL   H72718535   2.367   2.285   5.892  2.7098  2.5805  0.3782
   25MOL   H72818536   2.301   2.381   6.020 -2.3706 -2.8836  1.0156
   25MOL   H72918537   2.432   2.522   5.900 -1.4379 -1.7006  1.7587
   25MOL   H73018538   2.278   2.570   5.842 -3.6551 -2.6006 -1.0246
   25MOL   H73118539   2.340   2.384   5.657 -0.6369 -0.1443  0.2360
   25MOL   H73218540   2.491   2.391   5.728 -0.1158 -0.3440 -0.1414
   25MOL   H73318541   2.364   2.666   5.660 -0.2470 -1.3466  1.8220
   25MOL   H73418542   2.394   2.557   5.530  0.5753 -0.9305 -0.4622
   25MOL   H73518543   2.642   2.558   5.613  1.1209  0.0993  1.4713
   25MOL   H73618544   2.592   2.652   5.746  0.2726 -1.9300 -0.5115
   25MOL   H73718545   2.501   2.817   5.594  0.0123  2.9334 -1.1104
   25MOL   H73818546   2.563   2.723   5.452 -0.1374  1.3328  0.1240
   25MOL   H73918547   2.802   2.765   5.558  2.8106  2.7259  1.6140
   25MOL   H74018548   2.737   2.861   5.672 -0.2430  1.9452 -1.4065
   25MOL   H74118549   2.824   2.959   5.458 -0.6567  0.4368 -0.0695
   25MOL   H74218550   2.694   3.023   5.515  0.9882  0.4224 -0.8085
   26MOL     C118551   0.162   5.965   1.404 -0.0628  0.7145  0.0297
   26MOL     O218552   0.042   5.942   1.406  0.4304 -0.7790  0.1955
   26MOL     C318553   0.245   5.950   1.530  0.3314  0.0469 -0.3419
   26MOL     C418554   0.243   5.803   1.589  0.6441  0.7332 -0.0797
   26MOL     C518555   0.102   5.749   1.638 -0.5461 -0.0620 -0.3761
   26MOL     C618556   0.126   5.624   1.715  0.3020  0.4603  0.0764
   26MOL     C718557   7.685   5.578   1.776 -0.4810 -0.1799  0.1092
   26MOL     C818558   0.001   5.425   1.793  0.3700 -0.3206 -0.7413
   26MOL     C918559   7.573   5.368   1.865  0.3420 -0.0616  0.3845
   26MOL    C1018560   7.573   5.213   1.901  0.4703 -0.2891 -0.1631
   26MOL    C1118561   7.434   5.154   1.936 -0.0308  0.4307  0.2366
   26MOL    C1218562   7.443   5.003   1.967  0.5733 -0.0419  0.1332
   26MOL    C1318563   7.322   4.915   1.980 -0.4506  0.4243 -0.9831
   26MOL    N1418564   7.353   4.771   2.008 -0.4449  0.2668  0.7245
   26MOL    H1518565   0.232   6.026   1.607 -0.6512  0.1262 -0.5754
   26MOL    H1618566   0.344   5.964   1.488  0.7971 -0.3360  0.6106
   26MOL    H1718567   0.294   5.731   1.526  0.6595  1.2155 -0.6249
   26MOL    H1818568   0.304   5.810   1.679 -1.3224  1.6207  1.2342
   26MOL    H1918569   0.028   5.725   1.562 -1.1651 -0.5252  0.3678
   26MOL    H2018570   0.056   5.825   1.701 -1.5164 -0.4714 -0.5742
   26MOL    H2118571   0.182   5.551   1.657 -0.5769  0.4708 -0.8045
   26MOL    H2218572   0.182   5.646   1.806 -0.0537  0.5453  0.2769
   26MOL    H2318573   7.605   5.597   1.704 -0.1322 -2.7992 -1.0281
   26MOL    H2418574   7.655   5.631   1.866  2.6908  0.2896  0.9600
   26MOL    H2518575   0.088   5.401   1.854 -0.3292 -1.9772 -0.3546
   26MOL    H2618576   0.016   5.368   1.701  0.3652 -3.6922  1.2320
   26MOL    H2718577   7.495   5.395   1.795 -2.0087  1.1819  3.3795
   26MOL    H2818578   7.558   5.424   1.958 -1.6592 -1.5485  1.0014
   26MOL    H2918579   7.650   5.195   1.977  0.6344  1.6889  0.1468
   26MOL    H3018580   7.608   5.154   1.816 -1.8840  0.2027 -1.5157
   26MOL    H3118581   7.367   5.174   1.853  1.2844 -0.2528 -1.0179
   26MOL    H3218582   7.394   5.209   2.021 -3.2562 -0.4293 -0.6766
   26MOL    H3318583   7.485   5.001   2.068 -0.3832 -0.3919  0.5293
   26MOL    H3418584   7.504   4.950   1.894 -0.9624  0.3674 -1.4740
   26MOL    H3518585   7.269   4.923   1.885  1.3335  1.7241 -1.9046
   26MOL    H3618586   7.264   4.951   2.065 -0.2938 -0.0247 -0.6852
   26MOL    H3718587   7.345   4.701   1.936  1.7023  0.3636  0.3518
   26MOL    H3818588   0.218   6.000   1.318 -0.6529 -1.6625 -1.3775
   26MOL    C3918589   7.369   4.722   2.129 -0.1860  0.9188 -0.7785
   26MOL    O4018590   7.365   4.792   2.234 -0.0530 -0.2354 -0.1123
   26MOL    C4118591   7.374   4.568   2.140  0.1125  0.2069  0.0644
   26MOL    C4218592   7.423   4.503   2.269  0.5058  0.4405  0.0412
   26MOL    C4318593   7.575   4.475   2.279 -0.4341  0.9714 -0.5771
   26MOL    C4418594   7.621   4.402   2.398 -0.6212  0.3431 -0.2223
   26MOL    C4518595   7.594   4.250   2.405 -0.0715 -0.4664 -0.4999
   26MOL    C4618596   7.662   4.177   2.522  0.1773  0.0879 -0.3624
   26MOL    C4718597   7.610   4.046   2.559  0.6205 -0.1234  0.2090
   26MOL    C4818598   7.482   4.035   2.640 -0.2114 -0.0648 -0.0137
   26MOL    C4918599   7.457   3.886   2.680  0.2218  0.5822 -0.4457
   26MOL    C5018600   7.346   3.867   2.784 -0.0333 -0.1340  0.4673
   26MOL    C5118601   7.409   3.867   2.928 -0.3933  0.0351 -0.6597
   26MOL    N5218602   7.303   3.846   3.022  0.2535 -0.4150  0.1207
   26MOL    H5318603   7.426   4.523   2.055 -2.8236  0.9786 -2.2107
   26MOL    H5418604   7.273   4.536   2.114  0.0803  0.7978 -0.5781
   26MOL    H5518605   7.383   4.561   2.353 -1.8594  1.7182 -1.9125
   26MOL    H5618606   7.372   4.409   2.291 -0.5465  1.1446  0.6654
   26MOL    H5718607   7.638   4.563   2.288 -1.2742  1.3753  1.4570
   26MOL    H5818608   7.616   4.416   2.196 -1.8747 -1.9507  0.7164
   26MOL    H5918609   0.036   4.407   2.411 -0.6107  1.7784 -0.7899
   26MOL    H6018610   7.574   4.460   2.477 -1.3629 -1.0937  0.4202
   26MOL    H6118611   7.617   4.207   2.308  1.4227  0.4523 -0.5535
   26MOL    H6218612   7.487   4.241   2.428 -0.0779 -0.5260 -0.5527
   26MOL    H6318613   7.646   4.240   2.609  0.8652  0.7265 -0.6992
   26MOL    H6418614   0.074   4.161   2.501 -0.3532 -2.3449 -1.3786
   26MOL    H6518615   7.689   4.000   2.618  0.3462 -0.3620  0.3876
   26MOL    H6618616   7.590   3.995   2.465  0.3613 -1.1293  0.8059
   26MOL    H6718617   7.396   4.081   2.592 -1.5929 -0.3428  2.1210
   26MOL    H6818618   7.500   4.095   2.730  1.6082 -1.2176  0.4265
   26MOL    H6918619   7.551   3.844   2.716 -1.2815 -1.7606  0.8998
   26MOL    H7018620   7.442   3.832   2.587  3.9633  0.2196 -0.9333
   26MOL    H7118621   7.309   3.766   2.768  0.9932 -0.3673 -0.5388
   26MOL    H7218622   7.266   3.941   2.778 -0.9559 -0.8918  2.8633
   26MOL    H7318623   7.450   3.965   2.952  1.5512 -0.7752 -0.6103
   26MOL    H7418624   7.485   3.793   2.952 -0.7658  0.0186  0.4985
   26MOL    H7518625   7.260   3.935   3.042  2.0214  0.7327 -1.0407
   26MOL    C7618626   7.252   3.725   3.060 -0.3726  0.3886  0.0942
   26MOL    O7718627   7.146   3.726   3.123 -0.5453 -0.4588  0.6108
   26MOL    C7818628   7.333   3.587   3.050 -0.1167  0.2964  0.1502
   26MOL    C7918629   7.248   3.470   2.997  0.3439  0.4294 -0.2477
   26MOL    C8018630   7.227   3.469   2.841  0.1994 -0.3175  0.2672
   26MOL    C8118631   7.347   3.426   2.748 -0.2285  0.1007  0.9273
   26MOL    C8218632   7.314   3.426   2.601 -0.1441 -0.5266 -0.7131
   26MOL    C8318633   7.416   3.351   2.508  0.4521 -0.6064  0.6768
   26MOL    C8418634   7.371   3.361   2.363 -0.1937 -0.3643  0.0266
   26MOL    C8518635   7.374   3.494   2.290 -0.5774  0.7433 -0.0423
   26MOL    C8618636   7.341   3.485   2.145 -0.3786  0.1259 -0.5280
   26MOL    C8718637   7.351   3.612   2.063 -0.0211  0.4600  1.0147
   26MOL    C8818638   7.329   3.583   1.908 -0.5517 -0.7040  0.6021
   26MOL    N8918639   7.342   3.702   1.829  0.0474 -0.4182  0.1006
   26MOL    H9018640   7.383   3.567   3.145  1.6645  1.1101 -0.5890
   26MOL    H9118641   7.419   3.596   2.984  0.8260 -0.8590  1.1889
   26MOL    H9218642   7.288   3.372   3.021  2.4030  1.5057  0.8021
   26MOL    H9318643   7.150   3.483   3.043  0.1404 -1.3643 -0.1252
   26MOL    H9418644   7.210   3.575   2.820 -2.9624 -0.7158  0.6071
   26MOL    H9518645   7.136   3.417   2.813  0.5064 -0.5996 -0.2153
   26MOL    H9618646   7.436   3.489   2.755 -0.1197 -0.1333  1.7033
   26MOL    H9718647   7.380   3.327   2.781  0.8217 -0.1061 -0.6518
   26MOL    H9818648   7.316   3.527   2.560  0.1254 -0.9749 -1.8020
   26MOL    H9918649   7.213   3.398   2.569 -0.8936  0.4066  0.7627
   26MOL   H10018650   7.406   3.246   2.537 -0.6367 -0.7932 -0.3284
   26MOL   H10118651   7.519   3.386   2.513  0.2405 -0.1005  1.6699
   26MOL   H10218652   7.266   3.332   2.362 -0.4376  0.5167 -0.8661
   26MOL   H10318653   7.427   3.285   2.308 -1.2492 -1.5934  0.6126
   26MOL   H10418654   7.474   3.537   2.287  0.2631 -1.2187 -1.5782
   26MOL   H10518655   7.317   3.574   2.336 -2.6593 -1.0277  0.5426
   26MOL   H10618656   7.241   3.441   2.140 -0.8715  1.0709  0.7408
   26MOL   H10718657   7.394   3.396   2.110 -0.5622  0.7338 -2.4156
   26MOL   H10818658   7.446   3.656   2.090  0.1198 -2.1360  5.0915
   26MOL   H10918659   7.279   3.687   2.093 -1.7087 -0.2263 -1.1608
   26MOL   H11018660   7.229   3.549   1.879 -0.8441  1.2999 -0.8719
   26MOL   H11118661   7.400   3.507   1.877 -2.8750 -2.3529 -0.9038
   26MOL   H11218662   7.421   3.704   1.766 -0.3563  0.5420 -0.3877
   26MOL   C11318663   7.250   3.798   1.810 -0.4072 -0.2638 -0.1061
   26MOL   O11418664   7.146   3.801   1.875 -0.0050 -0.0394  0.2652
   26MOL   C11518665   7.278   3.906   1.705  1.1097  1.0656 -0.1422
   26MOL   C11618666   7.195   3.901   1.581 -0.0084 -0.4182  0.4672
   26MOL   C11718667   7.229   3.778   1.489  0.0508 -0.3816  0.2872
   26MOL   C11818668   7.347   3.799   1.392 -0.2569 -0.2572  0.0533
   26MOL   C11918669   7.378   3.665   1.313 -0.8816 -0.3213  0.3289
   26MOL   C12018670   7.494   3.663   1.215 -0.0789  0.1814  1.3078
   26MOL   C12118671   7.469   3.767   1.104  0.2778  1.2362 -0.7871
   26MOL   C12218672   7.592   3.792   1.013  0.0214  0.2740 -0.1257
   26MOL   C12318673   7.652   3.928   1.032 -1.0813 -0.0365  0.6801
   26MOL   C12418674   0.077   3.947   0.934 -0.1331  0.6548 -0.7487
   26MOL   C12518675   0.109   4.095   0.921 -0.4314  0.0292 -0.0938
   26MOL   N12618676   0.233   4.117   0.845 -0.1779 -0.5068  0.3668
   26MOL   H12718677   7.384   3.898   1.681  1.0248  1.5612 -0.7106
   26MOL   H12818678   7.265   4.002   1.755  0.7367  1.9743 -1.9531
   26MOL   H12918679   7.091   3.905   1.610  0.2739  0.6448  1.3610
   26MOL   H13018680   7.201   3.988   1.516  0.6649 -1.0887 -0.3864
   26MOL   H13118681   7.147   3.750   1.423  1.1212  0.3379 -1.4060
   26MOL   H13218682   7.251   3.689   1.548  1.7477  0.0873  0.4081
   26MOL   H13318683   7.311   3.877   1.326  1.8479  0.4602 -0.2787
   26MOL   H13418684   7.437   3.839   1.439 -0.4908 -0.7660  0.9639
   26MOL   H13518685   7.284   3.639   1.265 -3.2117  0.1504  4.4254
   26MOL   H13618686   7.396   3.584   1.384  0.7426 -0.2933 -0.0256
   26MOL   H13718687   7.496   3.566   1.166  2.6946  0.7080  0.2904
   26MOL   H13818688   7.594   3.670   1.259  0.6399 -1.4708 -0.0446
   26MOL   H13918689   7.413   3.857   1.130 -0.2818  1.2457 -2.0022
   26MOL   H14018690   7.385   3.718   1.055  0.7079 -0.3173 -0.0052
   26MOL   H14118691   7.566   3.777   0.908 -1.1782  0.5866  0.1097
   26MOL   H14218692   7.673   3.722   1.028  2.4079  2.4465 -2.3770
   26MOL   H14318693   7.685   3.938   1.135  2.2409 -3.7106  0.0742
   26MOL   H14418694   7.575   4.005   1.025 -0.0606  1.1475  2.2293
   26MOL   H14518695   0.047   3.902   0.839 -2.3099  0.0363  0.1986
   26MOL   H14618696   0.165   3.895   0.970 -1.7047 -1.6225 -0.1034
   26MOL   H14718697   0.128   4.109   1.028  2.6602 -0.2797 -0.5547
   26MOL   H14818698   0.022   4.154   0.893 -1.7686 -2.3747 -1.0611
   26MOL   H14918699   0.321   4.102   0.893  1.0934  0.4106 -1.6225
   26MOL   C15018700   0.235   4.165   0.725 -0.0522  0.7795 -0.1205
   26MOL   O15118701   0.135   4.165   0.652 -0.0733 -0.5707  0.3284
   26MOL   C15218702   0.376   4.205   0.677 -0.0669  0.2967  0.4846
   26MOL   C15318703   0.372   4.184   0.520 -0.9572  0.3058  1.2257
   26MOL   C15418704   0.509   4.218   0.449 -0.0825  0.6417 -0.6057
   26MOL   C15518705   0.505   4.212   0.292  0.5671 -0.1085  0.1582
   26MOL   C15618706   0.640   4.232   0.230 -0.7137 -0.5772  0.7039
   26MOL   C15718707   0.618   4.231   0.077 -0.5137 -0.1725 -0.2594
   26MOL   C15818708   0.732   4.291   7.679  1.1836  0.4284 -0.0583
   26MOL   C15918709   0.704   4.263   7.523 -0.5362  0.8238 -0.2917
   26MOL   C16018710   0.587   4.339   7.457  0.8707  0.4515  0.0429
   26MOL   C16118711   0.599   4.491   7.450  0.3864 -0.6239  0.8349
   26MOL   C16218712   0.730   4.541   7.382 -0.5891  0.1599 -0.3029
   26MOL   N16318713   0.737   4.681   7.413  0.3489 -0.3550  0.2870
   26MOL   H16418714   0.449   4.148   0.732 -1.2069  0.7828  2.5552
   26MOL   H16518715   0.387   4.311   0.699  0.6328  0.6324 -1.4096
   26MOL   H16618716   0.342   4.083   0.493  0.4514  0.3036 -0.4343
   26MOL   H16718717   0.307   4.259   0.474  0.6600  0.7039 -0.4529
   26MOL   H16818718   0.595   4.168   0.493 -0.7216  0.9350  1.0385
   26MOL   H16918719   0.533   4.322   0.471  2.1843  1.1396 -4.8399
   26MOL   H17018720   0.459   4.114   0.275  0.1573 -0.0446  0.8931
   26MOL   H17118721   0.431   4.278   0.248  1.1839  0.4305 -0.0795
   26MOL   H17218722   0.709   4.152   0.256  0.3271  0.5491  1.4358
   26MOL   H17318723   0.672   4.328   0.269  0.0785 -0.0004 -1.3329
   26MOL   H17418724   0.523   4.279   0.055  0.2308  0.8331 -1.3990
   26MOL   H17518725   0.613   4.127   0.044 -1.3416  0.4013 -1.9931
   26MOL   H17618726   0.831   4.251   0.005  0.6203 -0.9450  0.0492
   26MOL   H17718727   0.748   4.398   7.689 -0.8918  0.6361  1.3985
   26MOL   H17818728   0.698   4.156   7.502  0.7718  0.9178 -1.2399
   26MOL   H17918729   0.798   4.290   7.474 -0.7465 -0.8758 -1.6712
   26MOL   H18018730   0.504   4.318   7.524  2.0653  0.1287  1.4395
   26MOL   H18118731   0.564   4.297   7.359  1.2111  1.0637 -0.3003
   26MOL   H18218732   0.589   4.517   7.556 -0.8431  3.2073 -0.1425
   26MOL   H18318733   0.517   4.542   7.399  1.2604 -0.4118 -0.3687
   26MOL   H18418734   0.716   4.538   7.274 -0.3222 -1.9624 -0.2915
   26MOL   H18518735   0.820   4.490   7.417 -0.5018  1.9151  2.1110
   26MOL   H18618736   0.759   4.704   7.509  2.4942  0.8768 -0.4772
   26MOL   C18718737   0.718   4.790   7.339  0.7084 -0.6028  0.2709
   26MOL   O18818738   0.681   4.792   7.218  0.5270  0.3359  0.7054
   26MOL   C18918739   0.752   4.920   7.413  1.2228 -0.1220 -0.0609
   26MOL   C19018740   0.632   4.997   7.470  0.1388 -0.3324 -0.8969
   26MOL   C19118741   0.561   4.940   7.592  0.6848 -0.4781 -0.7717
   26MOL   C19218742   0.448   5.031   7.628 -0.0249  0.0096  0.5697
   26MOL   C19318743   0.331   5.011   7.535  0.3368  0.4110 -0.0097
   26MOL   C19418744   0.222   5.115   7.580  0.4746 -0.5158  0.4987
   26MOL   C19518745   0.086   5.065   7.537 -0.2140  0.6995 -0.0469
   26MOL   C19618746   7.654   5.164   7.540  0.4537  0.2187  0.3734
   26MOL   C19718747   7.522   5.100   7.496  0.0631  0.2734 -0.3727
   26MOL   C19818748   7.400   5.183   7.535  0.5243  0.1042  0.5319
   26MOL   C19918749   7.274   5.107   7.490  0.3649 -0.6202  0.2362
   26MOL   N20018750   7.247   4.991   7.572 -0.0206  0.2863 -0.3578
   26MOL   H20118751   0.793   4.977   7.330 -2.9489 -0.1838 -2.3271
   26MOL   H20218752   0.835   4.913   7.483 -1.4349 -1.4165  3.0755
   26MOL   H20318753   0.671   5.097   7.486 -1.6665  0.3829 -0.8337
   26MOL   H20418754   0.566   5.008   7.384 -0.3893  1.5353 -0.2645
   26MOL   H20518755   0.630   4.951   7.676 -0.7113 -0.2194  0.3604
   26MOL   H20618756   0.547   4.833   7.578  0.0117 -0.4144 -0.5920
   26MOL   H20718757   0.411   5.017   0.036 -0.3660  2.3401  0.7910
   26MOL   H20818758   0.487   5.133   7.623 -1.8912  0.7396  0.6614
   26MOL   H20918759   0.301   4.906   7.544 -1.5637  0.9817  0.5547
   26MOL   H21018760   0.359   5.019   7.430 -2.7820 -0.0907 -0.9444
   26MOL   H21118761   0.228   5.212   7.531  0.7140 -1.2140 -0.8815
   26MOL   H21218762   0.217   5.135   7.687 -1.2230 -1.7969  0.6977
   26MOL   H21318763   0.064   4.968   7.581  1.5842 -0.7506 -2.2106
   26MOL   H21418764   0.098   5.043   7.431  1.5093  1.0341  0.0757
   26MOL   H21518765   7.684   5.258   7.494  0.2347  1.4720  2.6838
   26MOL   H21618766   7.634   5.197   7.642 -2.0893  1.5569 -0.5001
   26MOL   H21718767   7.525   5.005   7.548  3.3014  0.7913  0.5186
   26MOL   H21818768   7.523   5.078   7.389 -0.1446 -0.7102 -0.1745
   26MOL   H21918769   7.409   5.271   7.470 -1.5920 -0.1232 -0.0954
   26MOL   H22018770   7.391   5.206   7.641  0.8135 -2.2282  1.0724
   26MOL   H22118771   7.283   5.078   7.385  0.6527  0.4102 -0.0321
   26MOL   H22218772   7.187   5.171   7.504  0.6258 -0.0279 -0.8234
   26MOL   H22318773   7.308   4.975   7.651  0.0143 -1.9633 -0.8164
   26MOL   C22418774   7.145   4.906   7.554  0.5380  0.5007  0.0531
   26MOL   O22518775   7.092   4.899   7.441  0.0827 -0.4867  0.0964
   26MOL   C22618776   7.104   4.805   7.656 -0.1290 -0.4113 -0.4124
   26MOL   C22718777   6.967   4.737   7.624  0.7081 -0.0957 -0.2555
   26MOL   C22818778   6.843   4.814   7.663  0.4607 -0.5263 -0.8747
   26MOL   C22918779   6.716   4.735   7.651  0.5738 -0.1591  0.0145
   26MOL   C23018780   6.589   4.797   0.026 -0.3026 -0.6359  0.1809
   26MOL   C23118781   6.467   4.699   0.034  0.0992  0.2385 -0.0684
   26MOL   C23218782   6.343   4.787   0.077  0.1422  0.3500 -0.0639
   26MOL   C23318783   6.228   4.696   0.124  0.3645  0.6075  0.3799
   26MOL   C23418784   6.124   4.769   0.208  0.4976 -0.7558  0.5262
   26MOL   C23518785   6.039   4.674   0.292  0.2358 -0.1436 -0.6199
   26MOL   C23618786   5.948   4.730   0.399  0.1772 -0.0244 -0.6335
   26MOL   N23718787   5.879   4.636   0.483 -0.1009 -0.2131 -1.5469
   26MOL   H23818788   7.103   4.838   0.066 -0.3482  1.5563 -1.0113
   26MOL   H23918789   7.183   4.730   7.646  1.2751  1.2956 -2.5878
   26MOL   H24018790   6.961   4.714   7.518 -2.3020  0.3298 -0.2064
   26MOL   H24118791   6.978   4.637   7.668  0.6682 -0.1023 -0.2605
   26MOL   H24218792   6.841   4.901   7.599  0.0429 -1.0660 -1.6099
   26MOL   H24318793   6.850   4.868   0.063 -0.9087 -3.0560  0.7651
   26MOL   H24418794   6.683   4.727   7.547 -3.3019  0.2381  1.1376
   26MOL   H24518795   6.726   4.634   7.690 -0.5887 -0.8141 -1.3473
   26MOL   H24618796   6.558   4.883   7.659  1.4097 -0.3777 -0.3559
   26MOL   H24718797   6.603   4.839   0.126 -0.8788  0.0994 -0.0360
   26MOL   H24818798   6.480   4.621   0.109  1.3975 -0.2604 -0.7988
   26MOL   H24918799   6.426   4.655   7.636 -1.6924  2.1688 -0.2289
   26MOL   H25018800   6.294   4.837   7.687  3.1058  2.0999 -0.8207
   26MOL   H25118801   6.368   4.868   0.147 -0.4800  0.0692  0.4913
   26MOL   H25218802   6.266   4.618   0.190 -0.8059  0.2465  0.6390
   26MOL   H25318803   6.193   4.636   0.040 -0.5993 -0.5097  1.5427
   26MOL   H25418804   6.059   4.836   0.151  0.5836  0.9485  2.3701
   26MOL   H25518805   6.173   4.835   0.280  1.2636 -1.8459  1.0159
   26MOL   H25618806   6.105   4.609   0.350  1.1311 -1.5523 -3.1697
   26MOL   H25718807   5.979   4.607   0.230  2.8505 -2.3002 -0.9064
   26MOL   H25818808   5.869   4.787   0.352 -2.5471 -1.4611  2.0100
   26MOL   H25918809   5.985   4.806   0.468 -1.7283  0.2953  0.0572
   26MOL   H26018810   5.790   4.601   0.452 -0.2994 -1.4278  0.3227
   26MOL   C26118811   5.920   4.578   0.600 -0.5368  0.4434  0.4221
   26MOL   O26218812   6.035   4.598   0.638 -0.1677 -0.4982 -0.4384
   26MOL   C26318813   5.824   4.489   0.675  0.0206 -0.3268 -0.2460
   26MOL   C26418814   5.864   4.340   0.663 -0.3499  0.4431  0.2108
   26MOL   C26518815   5.851   4.273   0.525 -0.1895 -0.3344 -0.3351
   26MOL   C26618816   5.910   4.136   0.548 -0.0561 -0.1413 -0.0132
   26MOL   C26718817   5.900   4.047   0.414  0.7661 -0.2530  0.0933
   26MOL   C26818818   5.754   4.011   0.363  0.1263  0.4620 -0.1224
   26MOL   C26918819   5.761   3.958   0.220  0.0265  0.0294 -0.1214
   26MOL   C27018820   5.648   3.864   0.190  0.1910  0.1076  0.0860
   26MOL   C27118821   5.620   3.827   0.038 -0.0037  0.5083 -0.6646
   26MOL   C27218822   5.484   3.751   0.013  0.1690 -0.8933  0.1086
   26MOL   C27318823   5.485   3.605   0.049  0.3309 -0.0788  0.0397
   26MOL   N27418824   5.358   3.549   0.013  0.1866  0.0066  1.0248
   26MOL   H27518825   5.720   4.506   0.647 -0.3830 -1.0198  0.8082
   26MOL   H27618826   5.829   4.509   0.782  0.3440  0.2848 -0.3695
   26MOL   H27718827   5.971   4.341   0.684 -0.6017  1.6376  1.5858
   26MOL   H27818828   5.826   4.277   0.744  0.2728 -2.7677 -1.9280
   26MOL   H27918829   5.889   4.332   0.442  0.7677 -0.5264 -0.0458
   26MOL   H28018830   5.750   4.258   0.486 -1.1874  2.3955  1.1018
   26MOL   H28118831   6.014   4.145   0.580  0.2110  1.0415 -1.1801
   26MOL   H28218832   5.871   4.077   0.631 -1.1067  0.1710 -0.2833
   26MOL   H28318833   5.966   3.961   0.416 -0.3512 -1.1455 -1.0123
   26MOL   H28418834   5.941   4.100   0.328 -0.9172 -0.1378 -0.6485
   26MOL   H28518835   5.682   4.092   0.363 -1.2001 -0.6047 -3.8669
   26MOL   H28618836   5.708   3.930   0.420 -0.6979  1.1121  0.1463
   26MOL   H28718837   5.854   3.902   0.211 -1.3337 -2.1841 -0.7442
   26MOL   H28818838   5.780   4.037   0.146  0.7906 -0.5210 -0.5243
   26MOL   H28918839   5.558   3.909   0.231  0.1911 -0.0471  0.2585
   26MOL   H29018840   5.658   3.773   0.250 -0.5930 -2.0909 -2.9544
   26MOL   H29118841   5.703   3.763   0.009  0.1789  0.0442  0.8410
   26MOL   H29218842   5.626   3.927   7.689 -0.8855  1.4523  1.3269
   26MOL   H29318843   5.463   3.760   7.600  0.0390  1.1921  0.2903
   26MOL   H29418844   5.407   3.803   0.069 -0.1213  1.1272 -2.0819
   26MOL   H29518845   5.505   3.592   0.156 -2.0750 -0.7872  0.4314
   26MOL   H29618846   5.569   3.559   7.691  0.6144 -0.5554  0.9113
   26MOL   H29718847   5.281   3.610   7.686  2.1918  3.2132  2.6782
   26MOL   C29818848   5.329   3.419   0.012  0.0298  0.2358 -0.4387
   26MOL   O29918849   5.213   3.377   7.671  0.2542  0.9226 -0.5396
   26MOL   C30018850   5.441   3.325   0.063 -0.0034  0.4371  0.3225
   26MOL   C30118851   5.405   3.174   0.068  0.1359  0.3763 -0.2049
   26MOL   C30218852   5.516   3.090   0.135 -0.0039  0.1779  0.2100
   26MOL   C30318853   5.628   3.054   0.035 -0.0956 -0.0346 -0.4930
   26MOL   C30418854   5.767   2.989   0.085 -0.3532  0.7627  0.4766
   26MOL   C30518855   5.748   2.838   0.116 -0.0666  0.3572 -0.1792
   26MOL   C30618856   5.865   2.790   0.189 -0.2716 -0.3365 -0.1660
   26MOL   C30718857   5.929   2.864   0.310  0.5165  0.1689  0.0433
   26MOL   C30818858   5.841   2.874   0.435  0.0270  0.0292 -0.1365
   26MOL   C30918859   5.717   2.964   0.418  0.7635 -0.0741  1.0562
   26MOL   C31018860   5.641   2.963   0.549  0.4544  0.1142 -0.5468
   26MOL   N31118861   5.496   2.985   0.519 -0.2663 -0.1135 -0.1417
   26MOL   H31218862   5.460   3.355   0.166  3.2645 -1.3847  0.3226
   26MOL   H31318863   5.530   3.342   0.003 -1.2034  1.3199 -1.2753
   26MOL   H31418864   5.323   3.149   0.135  0.2790  2.7638  0.9242
   26MOL   H31518865   5.381   3.139   7.662 -3.3201 -0.7000  0.9522
   26MOL   H31618866   5.478   2.992   0.165 -1.1719  0.4707 -0.2923
   26MOL   H31718867   5.547   3.137   0.229 -1.3682  1.6144 -0.0477
   26MOL   H31818868   5.575   2.984   7.665 -0.4356 -1.0801  0.9166
   26MOL   H31918869   5.647   3.142   7.667 -1.4871  1.7281  1.5235
   26MOL   H32018870   5.787   3.048   0.174 -0.4730  1.8900 -0.2313
   26MOL   H32118871   5.851   2.990   0.016 -1.7168 -1.6445 -1.3149
   26MOL   H32218872   5.734   2.787   0.020 -0.8618  0.5323 -0.1617
   26MOL   H32318873   5.656   2.810   0.167  1.4269 -0.3884  2.1609
   26MOL   H32418874   5.947   2.781   0.117  0.0740 -2.0239  0.4082
   26MOL   H32518875   5.839   2.690   0.224  1.5138 -1.4862 -1.9476
   26MOL   H32618876   5.977   2.960   0.288 -0.0107  0.5798  0.6419
   26MOL   H32718877   6.014   2.805   0.343  0.5466 -0.1936 -0.6774
   26MOL   H32818878   5.909   2.913   0.511 -0.2749 -0.3016  0.3005
   26MOL   H32918879   5.811   2.775   0.470  1.5038 -0.9980 -1.6846
   26MOL   H33018880   5.651   2.924   0.340  2.1706  0.9892 -0.7282
   26MOL   H33118881   5.747   3.066   0.393 -4.0564  1.1914 -0.1694
   26MOL   H33218882   5.681   3.033   0.622  0.4648 -0.5458  0.0878
   26MOL   H33318883   5.644   2.868   0.603  1.1324 -0.4089 -1.4847
   26MOL   H33418884   5.448   2.901   0.489 -2.4984  0.3790  1.9156
   26MOL   C33518885   5.432   3.098   0.527 -0.3252  0.2513  0.2635
   26MOL   O33618886   5.484   3.201   0.573  0.2756  0.2612 -0.1095
   26MOL   C33718887   5.290   3.096   0.465  0.0931 -0.0793  0.6421
   26MOL   C33818888   5.236   3.235   0.430 -0.6753  0.3464 -0.0744
   26MOL   C33918889   5.175   3.322   0.542 -0.9020 -0.1827 -0.4191
   26MOL   C34018890   5.085   3.430   0.485 -0.6176  0.4117  0.1236
   26MOL   C34118891   5.151   3.542   0.400 -0.2773  1.1231  0.1131
   26MOL   C34218892   5.080   3.677   0.412  0.6799  0.0907 -0.3145
   26MOL   C34318893   5.175   3.790   0.358 -0.4276  0.1718  0.2542
   26MOL   C34418894   5.119   3.934   0.342 -0.7403 -0.8640 -0.2516
   26MOL   C34518895   5.180   4.033   0.246  0.3611 -0.0847 -0.4983
   26MOL   C34618896   5.160   3.998   0.098 -0.9550  0.5425 -0.5009
   26MOL   C34718897   5.280   4.071   0.025  0.2543  0.2042  0.2877
   26MOL   N34818898   5.295   4.011   7.585 -0.4715 -0.1761  0.0248
   26MOL   H34918899   5.223   3.052   0.539  0.9540  1.7398  2.5509
   26MOL   H35018900   5.294   3.033   0.376 -1.1034 -1.0870  1.2782
   26MOL   H35118901   5.314   3.291   0.380 -0.5560  0.9596  0.7845
   26MOL   H35218902   5.169   3.216   0.346  0.6179 -0.0010 -1.0432
   26MOL   H35318903   5.251   3.359   0.609 -1.6694 -0.3525  0.5557
   26MOL   H35418904   5.116   3.260   0.609  0.7725 -0.6471  0.6288
   26MOL   H35518905   4.997   3.386   0.440 -0.8394  0.6034  0.3653
   26MOL   H35618906   5.043   3.476   0.575 -0.5661  1.0818 -0.1943
   26MOL   H35718907   5.174   3.504   0.300 -0.0110 -3.2518  1.6984
   26MOL   H35818908   5.251   3.555   0.441 -0.6204 -0.3503  1.4848
   26MOL   H35918909   5.062   3.698   0.518 -0.0429  1.2040 -0.6539
   26MOL   H36018910   4.983   3.673   0.363  0.4400  1.0449  0.0588
   26MOL   H36118911   5.223   3.757   0.266  0.1691  1.1244  0.2132
   26MOL   H36218912   5.259   3.798   0.427  0.6073  0.0870 -0.9736
   26MOL   H36318913   5.120   3.978   0.441  0.2600 -1.1985 -0.1051
   26MOL   H36418914   5.015   3.925   0.309 -1.3420 -0.6493  1.5315
   26MOL   H36518915   5.284   4.033   0.278 -0.4569 -0.0341  2.2479
   26MOL   H36618916   5.149   4.136   0.262 -0.4790 -0.2876 -0.7520
   26MOL   H36718917   5.064   4.019   0.051 -0.5181  2.7853 -0.4136
   26MOL   H36818918   5.179   3.891   0.084  2.0077  0.7052  1.7226
   26MOL   H36918919   5.374   4.050   0.076 -0.3477  0.6195  1.5990
   26MOL   H37018920   5.255   4.177   0.028  0.2895  0.2108  0.3474
   26MOL   H37118921   5.243   3.927   7.566  0.2734 -0.7133  0.3266
   26MOL   C37218922   5.373   4.070   7.487  0.6239 -0.4785  0.0221
   26MOL   O37318923   5.438   4.171   7.499 -0.5265  0.6652 -0.3299
   26MOL   C37418924   5.369   4.000   7.353  0.8507 -0.1050 -0.3485
   26MOL   C37518925   5.321   4.094   7.241  0.2558  0.1895  0.3478
   26MOL   C37618926   5.193   4.167   7.275  0.8342  0.2945  0.2694
   26MOL   C37718927   5.075   4.065   7.296  1.0022 -0.8201 -0.1237
   26MOL   C37818928   4.933   4.129   7.291  0.2550 -0.1600 -0.3602
   26MOL   C37918929   4.847   4.073   7.407 -0.3395 -0.2813  0.7664
   26MOL   C38018930   4.885   4.121   7.549 -0.1706  0.5063 -0.0815
   26MOL   C38118931   4.839   4.262   7.596 -0.1235 -0.5498  1.0914
   26MOL   C38218932   4.872   4.293   0.048  0.4460 -0.3107 -0.2262
   26MOL   C38318933   4.812   4.195   0.152 -0.3191  0.3371 -0.1328
   26MOL   C38418934   4.843   4.228   0.298  0.0372  0.9409  0.1988
   26MOL   N38518935   4.782   4.135   0.387  0.0669 -0.2090 -0.4220
   26MOL   H38618936   5.310   3.908   7.362  2.7994 -1.3442  0.0339
   26MOL   H38718937   5.470   3.968   7.331  0.9548  0.5628 -0.8507
   26MOL   H38818938   5.397   4.168   7.219 -0.7158  0.9778 -0.4369
   26MOL   H38918939   5.314   4.039   7.146  0.2546  1.5209 -0.4291
   26MOL   H39018940   5.166   4.235   7.195 -0.2250  0.5746  0.8592
   26MOL   H39118941   5.197   4.225   7.368  0.5687 -0.7787  0.9599
   26MOL   H39218942   5.082   3.991   7.217  0.2896 -0.8993 -0.1191
   26MOL   H39318943   5.091   4.013   7.390  2.4377 -1.0046 -0.4696
   26MOL   H39418944   4.880   4.094   7.203  1.9450 -0.9539 -1.0766
   26MOL   H39518945   4.931   4.238   7.297  0.1733 -0.2695  2.1348
   26MOL   H39618946   4.838   3.965   7.415 -2.8952 -0.3184 -1.8667
   26MOL   H39718947   4.747   4.109   7.385  0.7043  2.0795 -0.3424
   26MOL   H39818948   4.993   4.114   7.567 -0.5151 -1.3282  1.3953
   26MOL   H39918949   4.843   4.042   7.610  2.2578  0.4661  1.6374
   26MOL   H40018950   4.730   4.268   7.584 -0.0948  1.6372  1.6491
   26MOL   H40118951   4.886   4.341   7.537  0.0939 -1.3804  0.1549
   26MOL   H40218952   4.839   4.395   0.069  2.1995  0.6205 -1.8093
   26MOL   H40318953   4.981   4.291   0.060  0.4374  0.1837 -0.0572
   26MOL   H40418954   4.857   4.097   0.138  1.9673  1.3608 -0.3303
   26MOL   H40518955   4.710   4.184   0.115  0.2642  0.4636 -1.8224
   26MOL   H40618956   4.801   4.327   0.318 -4.6098 -0.8150 -0.1464
   26MOL   H40718957   4.950   4.241   0.312  0.1171 -0.5287  1.0657
   26MOL   H40818958   4.758   4.044   0.350 -1.9522  0.7930 -1.6047
   26MOL   C40918959   4.729   4.163   0.508 -0.5938 -0.4859 -0.1428
   26MOL   O41018960   4.731   4.275   0.562 -0.3571 -0.1693  0.2451
   26MOL   C41118961   4.680   4.044   0.582  0.6767 -0.1487  0.1526
   26MOL   C41218962   4.797   3.948   0.624 -0.7248  0.1162 -0.1788
   26MOL   C41318963   4.900   4.019   0.713  0.1646  0.1438  0.5619
   26MOL   C41418964   5.022   3.927   0.730 -0.3770  0.4511 -0.6743
   26MOL   C41518965   5.126   3.990   0.823  0.5534 -0.4093  0.4204
   26MOL   C41618966   5.098   3.968   0.975  0.3315 -0.4529 -0.4573
   26MOL   C41718967   5.204   4.030   1.066 -0.3295  0.0657 -0.5668
   26MOL   C41818968   5.172   4.021   1.217  0.6158 -0.3664  0.2897
   26MOL   C41918969   5.146   3.881   1.271  0.3456  0.3857  0.5055
   26MOL   C42018970   5.260   3.785   1.267  0.2116  0.6044  0.1136
   26MOL   C42118971   5.215   3.648   1.332  0.7934  0.2306  0.0805
   26MOL   N42218972   5.305   3.544   1.300 -0.5629  0.3910 -0.4230
   26MOL   H42318973   4.613   3.991   0.514 -0.5243  1.7707 -0.2139
   26MOL   H42418974   4.621   4.075   0.669  0.4405 -0.5746  0.1425
   26MOL   H42518975   4.752   3.866   0.679 -0.2596 -0.3052 -0.4184
   26MOL   H42618976   4.834   3.901   0.533  0.6533 -0.4342  0.6553
   26MOL   H42718977   4.864   4.060   0.807 -0.3851  1.9756 -0.4086
   26MOL   H42818978   4.944   4.109   0.669  2.4059 -1.1647  0.0149
   26MOL   H42918979   4.987   3.829   0.764  2.4267 -0.5197 -0.4449
   26MOL   H43018980   5.060   3.905   0.630 -0.6640  0.6003 -0.8162
   26MOL   H43118981   5.156   4.091   0.798  1.5626 -0.9557 -0.6309
   26MOL   H43218982   5.228   3.958   0.805  0.2154  0.6538 -3.9876
   26MOL   H43318983   5.094   3.863   1.004  2.1083 -0.0297  1.4527
   26MOL   H43418984   5.004   4.023   0.975 -0.2957 -1.5052 -2.0917
   26MOL   H43518985   5.229   4.133   1.042  2.6315 -0.9102 -1.9638
   26MOL   H43618986   5.300   3.983   1.046  1.2451  2.3527  1.3931
   26MOL   H43718987   5.093   4.087   1.251  1.2105  1.6937 -2.2086
   26MOL   H43818988   5.261   4.057   1.268  0.7603  0.1421 -0.3175
   26MOL   H43918989   5.062   3.847   1.210  0.1972  1.2199  0.2480
   26MOL   H44018990   5.113   3.899   1.373  0.5861 -0.4004  0.7271
   26MOL   H44118991   5.353   3.812   1.317  1.2089 -1.1412 -0.7358
   26MOL   H44218992   5.288   3.759   1.165 -0.1679 -0.3741  0.2547
   26MOL   H44318993   5.116   3.619   1.298  0.3437 -0.7029  2.1244
   26MOL   H44418994   5.217   3.668   1.439 -0.8578  1.2903 -0.0668
   26MOL   H44518995   5.401   3.574   1.294 -0.4711  0.3351  0.7177
   26MOL   C44618996   5.277   3.412   1.305 -0.5490  0.2443 -0.7369
   26MOL   O44718997   5.169   3.362   1.333 -0.2520  0.1897  0.1485
   26MOL   C44818998   5.387   3.321   1.250 -0.0078 -0.1312  0.6282
   26MOL   C44918999   5.363   3.272   1.102  0.2472  0.4976  0.7969
   26MOL   C45019000   5.237   3.179   1.092  0.1066 -0.7424  0.0033
   26MOL   C45119001   5.231   3.105   0.963  0.6510  0.3041 -0.5201
   26MOL   C45219002   5.125   2.991   0.985 -0.2401  0.9642  0.5197
   26MOL   C45319003   5.099   2.912   0.857  0.3807  0.2549 -0.6783
   26MOL   C45419004   5.087   2.759   0.880  0.0336 -0.4299 -0.3993
   26MOL   C45519005   5.023   2.692   0.760  0.4073 -0.1214 -0.4619
   26MOL   C45619006   5.091   2.721   0.625 -0.1721 -0.1031  0.0870
   26MOL   C45719007   5.020   2.647   0.503  0.0345 -0.2603  0.2842
   26MOL   C45819008   5.080   2.660   0.367 -0.3229 -0.5181  0.1909
   26MOL   N45919009   5.212   2.589   0.359 -0.3802  0.1893  0.0638
   26MOL   H46019010   5.397   3.252   1.334  1.1637  1.1122  1.5406
   26MOL   H46119011   5.478   3.378   1.268  0.5047  0.0122 -2.2178
   26MOL   H46219012   5.347   3.347   1.025 -1.7942 -0.0481  0.6483
   26MOL   H46319013   5.451   3.210   1.087 -0.2645  0.0068 -0.2748
   26MOL   H46419014   5.153   3.247   1.105 -0.3081 -1.6058  1.9531
   26MOL   H46519015   5.237   3.107   1.173  0.6242 -1.9730 -1.0711
   26MOL   H46619016   5.203   3.174   0.883  3.5468  1.1930 -0.7966
   26MOL   H46719017   5.328   3.063   0.936  1.3378  0.8571  1.0467
   26MOL   H46819018   5.030   3.032   1.018 -0.5735 -0.3415  1.2260
   26MOL   H46919019   5.167   2.927   1.063  1.0099 -1.1868 -1.8152
   26MOL   H47019020   5.181   2.930   0.788  1.9817  0.5000  1.2455
   26MOL   H47119021   5.011   2.950   0.805  0.6542 -0.4323 -1.6503
   26MOL   H47219022   5.018   2.728   0.958  0.5511 -3.0829 -0.9593
   26MOL   H47319023   5.185   2.721   0.907  0.6399  1.3027 -0.0805
   26MOL   H47419024   4.916   2.712   0.751  0.8531  2.3032 -0.6878
   26MOL   H47519025   5.027   2.584   0.774  0.6379  0.2575  2.8628
   26MOL   H47619026   5.195   2.688   0.635 -0.3347 -0.7890 -0.4384
   26MOL   H47719027   5.100   2.824   0.592  0.1469 -0.1399  0.0588
   26MOL   H47819028   4.915   2.678   0.505  0.3658  0.8211  1.6556
   26MOL   H47919029   5.007   2.543   0.532  2.4035 -0.8101 -0.5769
   26MOL   H48019030   5.089   2.766   0.343  1.7521 -0.6995  0.0370
   26MOL   H48119031   5.021   2.608   0.292  0.6922 -1.3320 -0.0575
   26MOL   H48219032   5.218   2.494   0.325  1.3832  1.0083 -2.0607
   26MOL   C48319033   5.332   2.645   0.391  0.4985 -0.6241  0.1439
   26MOL   O48419034   5.349   2.764   0.419  0.2727 -0.0310  0.0213
   26MOL   C48519035   5.450   2.552   0.383  0.0823  0.1304  0.4141
   26MOL   C48619036   5.551   2.583   0.274  0.3308 -0.4209 -0.2385
   26MOL   C48719037   5.497   2.593   0.136 -0.3520  0.3660  0.5307
   26MOL   C48819038   5.419   2.474   0.081  0.1507  0.3821 -0.1145
   26MOL   C48919039   5.376   2.491   7.626  0.1499  0.5964  0.2702
   26MOL   C49019040   5.484   2.511   7.522  0.0202  0.5106 -0.1941
   26MOL   C49119041   5.553   2.382   7.484  0.3532  0.6889  0.6989
   26MOL   C49219042   5.649   2.383   7.359  0.2275  0.0958  0.0163
   26MOL   C49319043   5.726   2.254   7.350 -0.3198 -0.3322 -0.3326
   26MOL   C49419044   5.796   2.228   7.217 -0.1111  0.6936 -0.2667
   26MOL   C49519045   5.831   2.081   7.191  0.2015 -0.2447 -0.8077
   26MOL   N49619046   5.968   2.049   7.232 -0.5504 -0.6893  0.0340
   26MOL   H49719047   5.423   2.447   0.375  0.7492  0.1867 -3.4670
   26MOL   H49819048   5.513   2.562   0.472  1.3903  1.7278 -0.6455
   26MOL   H49919049   5.614   2.662   0.314 -1.6248  0.6838  0.7330
   26MOL   H50019050   5.630   2.508   0.280  1.8610  1.2638  1.0839
   26MOL   H50119051   5.580   2.624   0.073 -1.2984  3.9959  0.9907
   26MOL   H50219052   5.437   2.683   0.132  0.9871  1.2352 -0.4820
   26MOL   H50319053   5.484   2.386   0.080 -1.5032 -0.8603 -0.9742
   26MOL   H50419054   5.328   2.446   0.133 -0.2540  0.5932 -0.7075
   26MOL   H50519055   5.312   2.580   7.624 -1.8202 -0.7745  0.9619
   26MOL   H50619056   5.314   2.406   7.600  1.9329  0.4490 -3.8189
   26MOL   H50719057   5.561   2.586   7.540  0.4049  0.3199 -0.9987
   26MOL   H50819058   5.429   2.548   7.435  1.0610  2.6611  0.0301
   26MOL   H50919059   5.489   2.295   7.465  1.0222  0.2792  0.3160
   26MOL   H51019060   5.615   2.353   7.569 -0.2901  0.2158  1.0110
   26MOL   H51119061   5.710   2.473   7.367 -1.9382  1.6255 -0.2763
   26MOL   H51219062   5.596   2.386   7.264 -3.3318  1.4842  1.9356
   26MOL   H51319063   5.661   2.172   7.382 -0.0584 -0.4152 -0.0187
   26MOL   H51419064   5.799   2.246   7.431  1.6047 -1.1263 -2.0862
   26MOL   H51519065   5.867   2.304   7.185 -0.3919  1.2963  0.5325
   26MOL   H51619066   5.711   2.242   7.150 -0.7615 -1.6361  0.0125
   26MOL   H51719067   5.822   2.058   7.085  1.1876 -0.7023 -0.7955
   26MOL   H51819068   5.766   2.010   7.243  0.0838  0.3421 -0.1585
   26MOL   H51919069   6.033   2.126   7.230 -0.6231 -0.5705  1.6022
   26MOL   C52019070   6.022   1.929   7.232  0.8033  0.2750 -0.5227
   26MOL   O52119071   5.961   1.828   7.214  0.3549 -0.1019 -0.2041
   26MOL   C52219072   6.172   1.920   7.254 -0.4836  0.5624 -0.5056
   26MOL   C52319073   6.225   1.775   7.248  0.0151  0.0982 -0.0488
   26MOL   C52419074   6.379   1.770   7.264  1.1288 -0.3875 -0.7518
   26MOL   C52519075   6.435   1.630   7.257 -0.3738 -0.6072 -0.0371
   26MOL   C52619076   6.578   1.629   7.309  0.1743 -0.2443  0.4845
   26MOL   C52719077   6.653   1.491   7.318  0.6794  0.5263 -0.4109
   26MOL   C52819078   6.596   1.396   7.423 -0.4573 -0.4425 -0.0343
   26MOL   C52919079   6.686   1.274   7.456 -0.6400  0.2758  0.9690
   26MOL   C53019080   6.617   1.177   7.555  0.6128 -0.6315 -0.4325
   26MOL   C53119081   6.505   1.084   7.497 -0.8568  0.2389 -0.6142
   26MOL   C53219082   6.369   1.096   7.557  0.1109 -0.2448  0.4422
   26MOL   N53319083   6.306   1.222   7.514 -0.2681 -0.4390 -0.4797
   26MOL   H53419084   6.201   1.972   7.345  0.2578  0.5966 -0.7655
   26MOL   H53519085   6.219   1.976   7.173  0.3052 -0.9742 -1.1351
   26MOL   H53619086   6.187   1.710   7.327  0.6822  0.3095  0.4526
   26MOL   H53719087   6.200   1.726   7.154  2.0235  0.8869 -1.0139
   26MOL   H53819088   6.404   1.817   7.359  2.6853 -1.3463 -0.6763
   26MOL   H53919089   6.434   1.828   7.190 -1.8097  1.8067 -1.2933
   26MOL   H54019090   6.371   1.566   7.317  1.0938 -0.8353  1.3290
   26MOL   H54119091   6.448   1.598   7.153  1.4730 -1.6591  0.4998
   26MOL   H54219092   6.580   1.667   7.411  0.3168  0.9799  0.0254
   26MOL   H54319093   6.637   1.691   7.241 -0.4007  0.4603  0.6298
   26MOL   H54419094   6.760   1.505   7.333  0.6974  2.3395 -2.0151
   26MOL   H54519095   6.660   1.444   7.220  0.1412 -0.9973  0.2512
   26MOL   H54619096   6.500   1.362   7.383 -0.2767 -0.6825 -0.2656
   26MOL   H54719097   6.563   1.454   7.510 -0.0066 -1.9524  1.1667
   26MOL   H54819098   6.782   1.309   7.495  0.7277 -1.5104 -0.6706
   26MOL   H54919099   6.714   1.224   7.364  0.7210  0.7587  1.1044
   26MOL   H55019100   6.579   1.218   7.648  1.3482 -2.3581  0.6669
   26MOL   H55119101   6.687   1.108   7.602 -0.7165 -2.5361 -1.1766
   26MOL   H55219102   6.543   0.982   7.488 -1.2878  0.1185 -1.1317
   26MOL   H55319103   6.494   1.119   7.394 -0.6463  0.0664 -0.6947
   26MOL   H55419104   6.386   1.091   7.664 -0.2253 -0.2400  0.4972
   26MOL   H55519105   6.306   1.012   7.528 -1.0008  0.1360  1.7048
   26MOL   H55619106   6.278   1.226   7.417 -0.0102  0.3656 -0.5281
   26MOL   C55719107   6.279   1.321   7.594  0.1305 -0.3733 -0.0210
   26MOL   O55819108   6.319   1.333   0.014  0.2242 -0.2036  0.0564
   26MOL   C55919109   6.181   1.425   7.532  0.5016 -0.6717 -0.0837
   26MOL   C56019110   6.169   1.555   7.615 -0.1623  0.1385 -0.3736
   26MOL   C56119111   6.040   1.627   7.581  0.3592  0.1965 -0.0113
   26MOL   C56219112   6.011   1.757   7.665  0.2890 -0.5096 -0.6500
   26MOL   C56319113   5.879   1.828   7.617 -0.8385 -0.0907 -0.0244
   26MOL   C56419114   5.865   1.975   7.662 -0.2985  0.1803  0.4245
   26MOL   C56519115   5.735   2.036   7.617  0.1583 -0.1028 -1.1305
   26MOL   C56619116   5.625   1.997   0.024 -0.0225 -0.4427  0.5670
   26MOL   C56719117   5.496   2.079   0.028 -0.1804 -0.1180 -0.0589
   26MOL   C56819118   5.404   2.028   0.152  0.5066 -0.2428 -0.2752
   26MOL   C56919119   5.261   2.096   0.161 -0.4269 -0.2751  0.3288
   26MOL   N57019120   5.210   2.074   0.296  0.7658 -0.1057  0.1387
   26MOL   H57119121   6.088   1.370   7.525  1.5805 -2.1287 -4.4930
   26MOL   H57219122   6.194   1.440   7.424 -1.7010 -0.5323 -0.3591
   26MOL   H57319123   6.169   1.532   0.028  1.2039 -0.3504 -0.4774
   26MOL   H57419124   6.257   1.615   7.598  0.2219  0.6660  3.0748
   26MOL   H57519125   5.965   1.553   7.609 -0.6601  1.9871  2.1563
   26MOL   H57619126   6.041   1.651   7.475  4.2928  1.3883  0.1958
   26MOL   H57719127   6.004   1.743   0.079  0.1451  0.7390 -0.4899
   26MOL   H57819128   6.089   1.831   7.642 -2.8395  3.0732 -0.2618
   26MOL   H57919129   5.795   1.773   7.658 -2.1396  1.3558 -0.7051
   26MOL   H58019130   5.871   1.830   7.508  3.2463  2.3706 -0.3821
   26MOL   H58119131   5.949   2.026   7.615 -0.8526 -1.2469 -2.2172
   26MOL   H58219132   5.884   1.996   0.073 -1.8638  1.7467  0.4155
   26MOL   H58319133   5.702   2.002   7.519 -1.4623  0.7607 -0.8971
   26MOL   H58419134   5.739   2.144   7.607 -0.5277  0.1174  0.6923
   26MOL   H58519135   5.662   1.997   0.127  0.9562 -1.2741  0.2233
   26MOL   H58619136   5.604   1.892   0.006  0.3142 -0.3128 -0.5936
   26MOL   H58719137   5.440   2.063   7.629  0.8114  1.5680 -0.9744
   26MOL   H58819138   5.505   2.187   0.031 -1.1236  0.0073 -1.2171
   26MOL   H58919139   5.461   2.026   0.245 -0.1523  0.9591  0.1631
   26MOL   H59019140   5.386   1.921   0.144 -0.6877 -0.1102  0.6736
   26MOL   H59119141   5.192   2.050   0.090  0.5912  1.2943 -1.7165
   26MOL   H59219142   5.255   2.202   0.135 -0.8051 -0.6590 -1.1751
   26MOL   H59319143   5.174   1.983   0.319 -0.8629  0.7730  1.2075
   26MOL   C59419144   5.201   2.162   0.392  0.2358 -0.4978 -0.3495
   26MOL   O59519145   5.252   2.274   0.384 -0.5025  0.5120 -0.4668
   26MOL   C59619146   5.128   2.126   0.522  0.2220 -0.1156  0.8549
   26MOL   C59719147   5.101   2.245   0.611  0.3887 -0.0801 -0.3931
   26MOL   C59819148   5.022   2.199   0.730  0.7253  0.4312 -0.8720
   26MOL   C59919149   4.939   2.307   0.806  1.2579  0.3044  0.3791
   26MOL   C60019150   4.865   2.259   0.927 -0.4805  0.4608 -0.2513
   26MOL   C60119151   4.811   2.380   1.010 -0.6542  0.8987  0.3191
   26MOL   C60219152   4.886   2.392   1.149  0.0982 -0.4351  0.2728
   26MOL   C60319153   5.025   2.453   1.133  0.1605  0.0513 -0.1384
   26MOL   C60419154   5.102   2.460   1.262 -0.0467  0.4180  0.1746
   26MOL   C60519155   5.224   2.551   1.257 -0.1581  0.4183 -0.1221
   26MOL   C60619156   5.185   2.701   1.242 -0.3823  0.1298 -0.2096
   26MOL   N60719157   5.303   2.787   1.224 -0.1671 -0.2110  0.4788
   26MOL   H60819158   5.186   2.052   0.577 -0.6288 -1.1532  0.3675
   26MOL   H60919159   5.033   2.077   0.502  0.4772 -0.6476  0.9290
   26MOL   H61019160   5.187   2.302   0.645 -1.3121  1.5725  1.2433
   26MOL   H61119161   5.046   2.320   0.555 -1.2327 -0.4359  0.7094
   26MOL   H61219162   5.089   2.149   0.801 -0.3862  2.0776  1.4113
   26MOL   H61319163   4.947   2.122   0.707  0.9894 -1.3466  3.6550
   26MOL   H61419164   5.010   2.380   0.845  0.6171  0.6504  0.9345
   26MOL   H61519165   4.879   2.371   0.740 -0.6958 -0.4300  1.3950
   26MOL   H61619166   4.936   2.205   0.990  0.1263  0.5552 -0.8444
   26MOL   H61719167   4.787   2.192   0.889 -1.5554  1.6516 -0.1819
   26MOL   H61819168   4.709   2.342   1.017 -0.2915 -0.7868 -2.6766
   26MOL   H61919169   4.809   2.473   0.954  1.1566 -0.4617 -2.1156
   26MOL   H62019170   4.884   2.304   1.212  0.4980  0.0364  0.9475
   26MOL   H62119171   4.826   2.469   1.199  1.6676  2.3289 -1.9327
   26MOL   H62219172   5.016   2.552   1.088 -0.5657  1.0069  2.0595
   26MOL   H62319173   5.094   2.391   1.076 -3.1680 -1.5376 -2.6962
   26MOL   H62419174   5.138   2.363   1.296  1.9927  0.8690 -0.6156
   26MOL   H62519175   5.024   2.499   1.327  0.4179  0.6241  0.6224
   26MOL   H62619176   5.285   2.529   1.169  0.8435  1.0095  0.4173
   26MOL   H62719177   5.292   2.542   1.341 -1.2160  0.7442  0.7812
   26MOL   H62819178   5.138   2.740   1.333  0.0314 -2.3744  1.1255
   26MOL   H62919179   5.113   2.723   1.163 -1.2642  3.1325  1.3162
   26MOL   H63019180   5.334   2.787   1.128  0.2036  2.6171  0.5705
   26MOL   C63119181   5.361   2.872   1.302 -0.8096  0.2154 -0.1575
   26MOL   O63219182   5.320   2.877   1.417  0.1083  0.6560  0.8660
   26MOL   C63319183   5.484   2.945   1.264  0.1398 -0.5005  0.4720
   26MOL   C63419184   5.567   3.009   1.379 -0.1880  0.0244  0.8338
   26MOL   C63519185   5.717   3.047   1.342  0.1666  0.8216 -0.5302
   26MOL   C63619186   5.793   3.088   1.475 -0.1205 -0.0118 -0.2089
   26MOL   C63719187   5.931   3.152   1.450  0.8603  0.3164 -0.4274
   26MOL   C63819188   6.034   3.066   1.369 -0.4085  0.0423  0.0234
   26MOL   C63919189   6.165   3.137   1.340  0.1617 -0.5831  0.6483
   26MOL   C64019190   6.267   3.054   1.264  0.7188 -0.3090  0.0918
   26MOL   C64119191   6.396   3.123   1.265 -0.9154  0.8650  0.3539
   26MOL   C64219192   6.493   3.058   1.169 -0.2032 -0.8403 -0.2460
   26MOL   C64319193   6.635   3.111   1.177  0.0116 -0.2599  0.0708
   26MOL   N64419194   6.649   3.249   1.122 -0.6531 -0.0955 -0.2367
   26MOL   H64519195   5.455   3.018   1.188 -0.2931 -1.5979 -0.4439
   26MOL   H64619196   5.555   2.878   1.215  2.3193  2.6912 -0.9315
   26MOL   H64719197   5.507   3.077   1.440 -1.6513  0.8869 -1.4658
   26MOL   H64819198   5.576   2.940   1.463 -0.5981 -0.6604  0.3178
   26MOL   H64919199   5.717   3.130   1.271  2.3818 -0.1432 -1.7074
   26MOL   H65019200   5.772   2.967   1.293  0.8745  0.4584  0.8187
   26MOL   H65119201   5.727   3.152   1.534 -0.5168  0.2511 -0.9255
   26MOL   H65219202   5.794   3.001   1.540  0.4714  0.3674  0.2956
   26MOL   H65319203   5.975   3.180   1.546  1.0096  1.0889 -0.7194
   26MOL   H65419204   5.921   3.247   1.398  0.8162 -0.0835 -1.1565
   26MOL   H65519205   5.992   3.034   1.274  0.4441  3.2208 -1.4586
   26MOL   H65619206   6.058   2.975   1.425 -1.4779  1.2211  2.4838
   26MOL   H65719207   6.204   3.174   1.435  0.4696 -2.9364  1.4847
   26MOL   H65819208   6.140   3.223   1.279  0.6817 -1.3082 -0.5932
   26MOL   H65919209   6.233   3.027   1.164 -2.6537  0.6422  0.9180
   26MOL   H66019210   6.278   2.957   1.312 -0.1174 -0.9022 -0.9024
   26MOL   H66119211   6.441   3.122   1.364  0.7963 -0.3205 -0.3926
   26MOL   H66219212   6.379   3.229   1.251  1.8268  1.3292  0.2449
   26MOL   H66319213   6.464   3.062   1.064 -3.6300 -1.6745  0.6192
   26MOL   H66419214   6.484   2.954   1.202  0.6042 -1.3592 -1.6287
   26MOL   H66519215   6.688   3.043   1.110 -0.7455 -1.0605  0.2730
   26MOL   H66619216   6.682   3.093   1.273 -1.3483  0.2413  0.8542
   26MOL   H66719217   6.597   3.271   1.038 -0.2633  1.3582 -0.1232
   26MOL   C66819218   6.744   3.335   1.158 -0.2630  0.2450 -0.3385
   26MOL   O66919219   6.818   3.321   1.258 -0.3996 -0.0239  0.4305
   26MOL   C67019220   6.745   3.475   1.097 -0.4584 -0.8205 -0.6414
   26MOL   C67119221   6.638   3.559   1.170  0.3070  0.5401 -0.2584
   26MOL   C67219222   6.628   3.705   1.103 -0.1080 -0.2084 -0.4066
   26MOL   C67319223   6.498   3.779   1.122 -0.8268 -0.5308 -0.1891
   26MOL   C67419224   6.454   3.789   1.263  0.3876 -0.7369  0.4884
   26MOL   C67519225   6.337   3.888   1.299 -0.3626 -0.8968  1.3106
   26MOL   C67619226   6.314   3.922   1.445 -0.6015  0.8552 -0.0570
   26MOL   C67719227   6.180   4.003   1.459 -0.6446  0.1385  0.3045
   26MOL   C67819228   6.132   4.046   1.603  0.1720  0.5809 -0.1818
   26MOL   C67919229   6.020   4.151   1.615  0.0891 -0.3191  0.1972
   26MOL   C68019230   5.928   4.132   1.737  0.1379 -0.2663 -0.2424
   26MOL   N68119231   6.001   4.133   1.863 -0.5350 -0.4450  0.3000
   26MOL   H68219232   6.712   3.474   0.993 -0.9936 -3.6471 -0.4738
   26MOL   H68319233   6.846   3.515   1.099 -0.8892  0.3119 -0.9687
   26MOL   H68419234   6.541   3.514   1.151  1.3065 -0.8656 -2.2355
   26MOL   H68519235   6.659   3.563   1.277  0.5872 -1.3521 -0.2264
   26MOL   H68619236   6.653   3.697   0.998  0.6163 -0.1113 -0.2466
   26MOL   H68719237   6.712   3.766   1.138 -0.6170  0.5675 -0.5367
   26MOL   H68819238   6.519   3.876   1.078 -1.1846 -1.0100 -1.4247
   26MOL   H68919239   6.423   3.734   1.057  0.3193 -1.2264 -1.0593
   26MOL   H69019240   6.540   3.806   1.327  0.0989 -0.4154  0.7966
   26MOL   H69119241   6.415   3.688   1.276 -0.1630 -0.7591 -1.1731
   26MOL   H69219242   6.246   3.842   1.261  1.3590 -2.4566 -1.0569
   26MOL   H69319243   6.357   3.981   1.244  1.5588 -1.2256  1.4075
   26MOL   H69419244   6.392   3.981   1.493 -2.1500  2.6228  0.3594
   26MOL   H69519245   6.311   3.829   1.501 -1.2174  0.2374 -1.1245
   26MOL   H69619246   6.098   3.953   1.407 -0.7169  0.2773  0.2831
   26MOL   H69719247   6.205   4.094   1.405 -1.2656  0.7951  1.1211
   26MOL   H69819248   6.215   4.095   1.656  0.8934  0.9957 -1.6673
   26MOL   H69919249   6.100   3.957   1.657  0.2385  0.9729  0.5091
   26MOL   H70019250   5.958   4.139   1.526  1.2522  0.8407 -0.7975
   26MOL   H70119251   6.066   4.250   1.612  1.2140 -0.8266  0.4672
   26MOL   H70219252   5.873   4.038   1.737  1.2121 -0.9225  0.6022
   26MOL   H70319253   5.850   4.208   1.737  1.3981  1.0501  0.0271
   26MOL   H70419254   6.012   4.046   1.914  1.2097 -0.8070 -0.6481
   26MOL   C70519255   6.026   4.247   1.928  0.0346 -0.3000 -0.0910
   26MOL   O70619256   6.014   4.359   1.881 -0.6012 -0.0790  0.2278
   26MOL   C70719257   6.061   4.228   2.075 -0.5233  0.5045 -0.4492
   26MOL   C70819258   6.206   4.235   2.117 -0.0803 -1.1104  0.3249
   26MOL   C70919259   6.218   4.209   2.268 -0.1233  0.3910  0.0557
   26MOL   C71019260   6.353   4.248   2.317  0.1391 -0.2994 -0.0693
   26MOL   C71119261   6.391   4.209   2.461 -0.1661  1.4774  0.1881
   26MOL   C71219262   6.311   4.297   2.564  0.0484 -0.1733 -0.6557
   26MOL   C71319263   6.335   4.284   2.716 -0.2673 -0.0659  0.0499
   26MOL   C71419264   6.265   4.163   2.780  0.4843  0.4119 -0.2899
   26MOL   C71519265   6.304   4.134   2.923 -0.0077  0.1410  0.0205
   26MOL   C71619266   6.290   3.991   2.976  0.1091  0.6376  0.3603
   26MOL   C71719267   6.374   3.890   2.894 -0.4863  0.8457  0.3423
   26MOL   N71819268   6.392   3.773   2.981 -0.3406  0.0724  0.0785
   26MOL   H71919269   6.012   4.135   2.106  1.6421 -0.1517  1.1098
   26MOL   H72019270   6.005   4.312   2.116 -0.1865  0.8599 -0.7074
   26MOL   H72119271   6.270   4.163   2.066 -1.0495 -1.6997 -0.0688
   26MOL   H72219272   6.245   4.333   2.089 -1.4668 -0.8057 -0.6020
   26MOL   H72319273   6.200   4.105   2.294 -0.1321  0.7783  1.6275
   26MOL   H72419274   6.137   4.254   2.324 -0.9948  1.9988 -2.4062
   26MOL   H72519275   6.429   4.218   2.245 -0.1997 -1.4849  0.0475
   26MOL   H72619276   6.343   4.356   2.312 -5.1456 -0.7125 -1.1456
   26MOL   H72719277   6.496   4.227   2.483  0.2309 -0.8320  0.2844
   26MOL   H72819278   6.377   4.102   2.472 -3.1557  1.7043 -0.8853
   26MOL   H72919279   6.206   4.283   2.539  0.0022  0.7120 -0.9687
   26MOL   H73019280   6.348   4.399   2.551  3.0590 -0.7998  2.2371
   26MOL   H73119281   6.294   4.369   2.771 -0.1890 -0.2575  0.4103
   26MOL   H73219282   6.438   4.291   2.752  0.5225 -1.8947 -1.7484
   26MOL   H73319283   6.289   4.069   2.731  2.4250  0.5706  0.3365
   26MOL   H73419284   6.156   4.167   2.791  0.6547  3.0731  0.8466
   26MOL   H73519285   6.264   4.211   2.989 -0.3173  0.8005 -0.9283
   26MOL   H73619286   6.412   4.149   2.919 -0.0777  0.3819 -1.2376
   26MOL   H73719287   6.186   3.959   2.979  0.8854 -2.1539 -1.0628
   26MOL   H73819288   6.321   3.991   3.080  1.5977  2.1547 -0.0548
   26MOL   H73919289   6.471   3.929   2.861  0.1605 -0.3488  0.8117
   26MOL   H74019290   6.332   3.858   2.799  1.5492  0.4572 -0.4495
   26MOL   H74119291   6.413   3.804   3.075 -1.6503  0.0372  0.3959
   26MOL   H74219292   6.301   3.731   2.999 -0.7893  1.1433  0.3309
   27MOL     C119293   6.286   6.737   0.837 -0.1126 -0.2876 -0.5713
   27MOL     O219294   6.376   6.748   0.756  0.1214  1.1735 -0.1614
   27MOL     C319295   6.157   6.816   0.826  0.5517 -0.3889 -0.0499
   27MOL     C419296   6.107   6.804   0.685  0.6322 -0.2383  0.9810
   27MOL     C519297   5.968   6.863   0.669 -0.1565  0.1617  0.3164
   27MOL     C619298   5.918   6.882   0.527 -0.1550  0.1754 -0.1058
   27MOL     C719299   5.832   6.757   0.483  0.1752  0.0486  0.2069
   27MOL     C819300   5.809   6.759   0.330  0.4705  0.4871 -0.0188
   27MOL     C919301   5.765   6.615   0.285 -0.2848 -0.2367  0.0015
   27MOL    C1019302   5.717   6.607   0.146  0.7738  0.7664 -0.5475
   27MOL    C1119303   5.636   6.482   0.130  0.0472  0.5427  1.1004
   27MOL    C1219304   5.699   6.344   0.166 -0.3837 -0.4762 -0.5555
   27MOL    C1319305   5.600   6.223   0.172  0.0556 -0.7927  0.1195
   27MOL    N1419306   5.514   6.239   0.284 -0.0219 -0.3364  0.8032
   27MOL    H1519307   6.193   6.917   0.844  0.8695 -0.8279  1.8720
   27MOL    H1619308   6.094   6.788   0.911 -0.3697 -0.2269 -0.6690
   27MOL    H1719309   6.179   6.857   0.622 -1.7564  1.2811 -0.5732
   27MOL    H1819310   6.109   6.697   0.666 -2.4246 -0.2171  0.2332
   27MOL    H1919311   5.989   6.959   0.715  1.4767  0.9660 -2.0019
   27MOL    H2019312   5.900   6.808   0.734  0.5522 -0.9079  0.1764
   27MOL    H2119313   5.850   6.965   0.539 -0.9149 -0.2696 -1.2213
   27MOL    H2219314   6.000   6.912   0.461 -1.0231 -0.1807 -1.3572
   27MOL    H2319315   5.736   6.742   0.534  0.6581  1.1446  1.4592
   27MOL    H2419316   5.882   6.667   0.517 -2.3756 -1.3939  0.3148
   27MOL    H2519317   5.899   6.796   0.281 -0.7557  1.9210 -1.2175
   27MOL    H2619318   5.731   6.833   0.316 -0.1150 -0.2073 -0.5262
   27MOL    H2719319   5.681   6.588   0.350  0.8940 -2.3749  0.6695
   27MOL    H2819320   5.845   6.542   0.290 -0.2306 -0.2222 -0.6025
   27MOL    H2919321   5.796   6.607   0.071 -0.5292  0.1754 -1.9416
   27MOL    H3019322   5.677   6.706   0.126  0.6451  0.5794 -1.2352
   27MOL    H3119323   5.600   6.474   0.027  0.6271  2.1481  0.7632
   27MOL    H3219324   5.549   6.479   0.196 -0.4076 -1.2481  0.4583
   27MOL    H3319325   5.747   6.356   0.263  0.0261  0.3673 -0.8633
   27MOL    H3419326   5.773   6.337   0.086  0.1178 -1.1296 -0.0417
   27MOL    H3519327   5.641   6.124   0.186 -0.4110 -1.1053 -0.6927
   27MOL    H3619328   5.544   6.206   0.080 -0.1527 -3.4558  0.7074
   27MOL    H3719329   5.564   6.254   0.370 -0.6788  2.6427  0.7151
   27MOL    H3819330   6.289   6.671   0.924  1.8630 -0.6866 -0.9070
   27MOL    C3919331   5.381   6.254   0.278 -0.1770 -0.6609 -0.0115
   27MOL    O4019332   5.321   6.256   0.167 -0.4027 -0.4253  0.1174
   27MOL    C4119333   5.313   6.271   0.407  0.5742  0.1255  0.2860
   27MOL    C4219334   5.175   6.345   0.396  0.0757  1.0816  0.1222
   27MOL    C4319335   5.095   6.344   0.529  0.1816 -0.2644 -0.5810
   27MOL    C4419336   4.947   6.393   0.514 -0.0029 -0.3172 -0.4123
   27MOL    C4519337   4.864   6.438   0.637 -0.5228  0.3273 -0.7341
   27MOL    C4619338   4.858   6.339   0.752 -0.0311  0.0199  0.0137
   27MOL    C4719339   4.751   6.394   0.851  0.1011  0.1116 -0.2025
   27MOL    C4819340   4.798   6.509   0.940  0.2575  0.2685  0.1116
   27MOL    C4919341   4.691   6.563   1.041  0.1259  0.0767  0.1291
   27MOL    C5019342   4.561   6.628   0.993 -0.3897  1.0209 -0.5306
   27MOL    C5119343   4.468   6.654   1.110 -1.2102  0.8495  0.8701
   27MOL    N5219344   4.445   6.532   1.179  0.0074  0.3225 -0.3111
   27MOL    H5319345   5.383   6.327   0.469 -1.2639  1.2300  1.4112
   27MOL    H5419346   5.313   6.172   0.454  1.0705  0.0015  0.0354
   27MOL    H5519347   5.191   6.439   0.342  0.5956  1.5423  1.0655
   27MOL    H5619348   5.110   6.290   0.327  1.3792  0.8414 -0.9463
   27MOL    H5719349   5.137   6.420   0.595 -0.2685  0.2172 -0.8564
   27MOL    H5819350   5.101   6.249   0.584  0.2843  0.3527  0.4956
   27MOL    H5919351   4.949   6.481   0.449  1.2505  1.3907  1.8328
   27MOL    H6019352   4.895   6.312   0.464  0.1427 -1.7696  1.7274
   27MOL    H6119353   4.766   6.448   0.590 -0.8017 -0.4037 -0.3168
   27MOL    H6219354   4.902   6.534   0.673  0.6558 -0.1365 -0.7109
   27MOL    H6319355   4.960   6.322   0.787 -0.0833  0.8667  0.5767
   27MOL    H6419356   4.818   6.245   0.714 -1.5514  0.9078 -0.5976
   27MOL    H6519357   4.736   6.310   0.919  2.4128 -0.8303 -0.7841
   27MOL    H6619358   4.661   6.431   0.803  0.1739  0.9602  0.3181
   27MOL    H6719359   4.825   6.593   0.875  2.7341 -0.3595  0.2882
   27MOL    H6819360   4.884   6.474   0.996  1.9442  0.9904 -1.9600
   27MOL    H6919361   4.742   6.649   1.084  2.0418  1.2572 -4.2152
   27MOL    H7019362   4.680   6.487   1.118  0.1076 -0.7633 -0.6991
   27MOL    H7119363   4.498   6.571   0.924  0.7936 -0.6779 -0.2572
   27MOL    H7219364   4.594   6.716   0.938  0.7045 -0.0051 -1.5566
   27MOL    H7319365   4.379   6.698   1.065 -0.1002  2.8848  0.5570
   27MOL    H7419366   4.508   6.719   1.188  6.2525 -1.1930 -0.8398
   27MOL    H7519367   4.514   6.460   1.194 -0.3256 -0.6375 -3.1213
   27MOL    C7619368   4.329   6.503   1.238 -0.5179 -0.3602 -0.2920
   27MOL    O7719369   4.253   6.591   1.266  0.3611 -0.1512 -0.3900
   27MOL    C7819370   4.314   6.361   1.294 -0.6119 -0.2327 -0.0677
   27MOL    C7919371   4.312   6.353   1.455 -0.0107  0.0729  0.4130
   27MOL    C8019372   4.181   6.410   1.512  0.5935  0.0045  0.5551
   27MOL    C8119373   4.160   6.358   1.660 -0.1459  0.3537 -0.0327
   27MOL    C8219374   4.090   6.223   1.683  0.0808  0.5163  0.1046
   27MOL    C8319375   4.106   6.167   1.828  0.0570 -0.2666  0.8048
   27MOL    C8419376   4.020   6.246   1.931 -0.1337 -0.4741  0.3124
   27MOL    C8519377   4.066   6.214   2.071  0.3943  0.2796  0.0388
   27MOL    C8619378   4.052   6.060   2.115 -0.2375 -0.7241 -0.2401
   27MOL    C8719379   4.112   6.037   2.258 -0.4325 -0.9259  0.2103
   27MOL    C8819380   4.207   5.913   2.260  0.6236  0.2058 -0.0895
   27MOL    N8919381   4.273   5.900   2.389 -0.1996 -0.6589  0.2590
   27MOL    H9019382   4.388   6.293   1.253  2.2535  2.5746  0.2416
   27MOL    H9119383   4.221   6.318   1.257 -1.6130  1.5268  0.3266
   27MOL    H9219384   4.323   6.247   1.477 -0.7093 -0.2293 -0.6749
   27MOL    H9319385   4.397   6.408   1.498  0.6902 -1.9938  1.7079
   27MOL    H9419386   4.088   6.384   1.462 -0.6348  1.0688  2.2689
   27MOL    H9519387   4.189   6.518   1.503  0.3440 -0.1198 -1.5476
   27MOL    H9619388   4.256   6.359   1.713 -0.8485  0.2416  1.2594
   27MOL    H9719389   4.118   6.439   1.719  0.9612 -0.7052  2.2856
   27MOL    H9819390   4.138   6.162   1.607  0.0137  0.5474  0.0362
   27MOL    H9919391   3.984   6.228   1.658 -0.2290  0.7158  1.4425
   27MOL   H10019392   4.214   6.174   1.841 -0.0012  3.3877  0.0472
   27MOL   H10119393   4.089   6.060   1.836 -0.4950 -0.1690  0.9254
   27MOL   H10219394   3.919   6.218   1.900  0.6548 -1.5959 -1.3420
   27MOL   H10319395   4.030   6.352   1.911  1.6689 -1.0915 -2.3920
   27MOL   H10419396   4.005   6.279   2.134 -1.7170 -1.7779  0.1789
   27MOL   H10519397   4.169   6.250   2.078  0.5616 -0.1133 -0.3406
   27MOL   H10619398   4.094   6.001   2.033 -1.9065 -0.8382 -1.0367
   27MOL   H10719399   3.948   6.027   2.107 -0.4315 -0.3465  0.6665
   27MOL   H10819400   4.028   6.026   2.328 -1.5540  0.6300 -0.8714
   27MOL   H10919401   4.165   6.124   2.296 -2.4830 -0.7918  2.9366
   27MOL   H11019402   4.283   5.914   2.182  1.7788 -0.9975  0.9867
   27MOL   H11119403   4.145   5.824   2.245  0.6000  0.3304 -0.7302
   27MOL   H11219404   4.208   5.882   2.464 -0.5348  1.0165  0.3775
   27MOL   C11319405   4.397   5.939   2.422 -0.6634  0.2733 -0.3557
   27MOL   O11419406   4.475   5.989   2.342  0.1293 -0.3753  0.4336
   27MOL   C11519407   4.431   5.916   2.572  0.9863  0.5010 -0.0670
   27MOL   C11619408   4.456   5.773   2.624  1.0482 -0.0505  0.1697
   27MOL   C11719409   4.576   5.695   2.555 -0.4904  0.0413  0.2922
   27MOL   C11819410   4.541   5.547   2.564 -0.2512 -0.2156  0.9067
   27MOL   C11919411   4.661   5.458   2.520 -0.3130  0.7035 -0.2813
   27MOL   C12019412   4.654   5.309   2.549  0.2411 -0.2345  0.4642
   27MOL   C12119413   4.735   5.216   2.452  0.3322 -0.6665 -0.8944
   27MOL   C12219414   4.884   5.213   2.471  0.1760 -0.1691 -0.5878
   27MOL   C12319415   4.941   5.133   2.361 -0.9975  0.0202 -0.7027
   27MOL   C12419416   5.089   5.129   2.370 -1.0745 -0.6137  0.3004
   27MOL   C12519417   5.166   5.259   2.328  0.0868 -0.1314 -0.5806
   27MOL   N12619418   5.299   5.231   2.288 -0.1390 -0.3242  0.0139
   27MOL   H12719419   4.343   5.952   2.625  0.1144 -0.5322 -0.7867
   27MOL   H12819420   4.515   5.981   2.596 -0.0029  1.5994  0.4786
   27MOL   H12919421   4.459   5.770   2.733  0.3734 -1.4367  0.1620
   27MOL   H13019422   4.360   5.729   2.597  0.9949 -0.3037  0.7693
   27MOL   H13119423   4.668   5.707   2.611 -1.1752  0.8020  1.2597
   27MOL   H13219424   4.590   5.727   2.452  3.7368  0.3226  0.8746
   27MOL   H13319425   4.517   5.511   2.664 -1.0602 -1.7687  0.1812
   27MOL   H13419426   4.463   5.526   2.491 -0.1457 -1.2913  1.0992
   27MOL   H13519427   4.750   5.488   2.575  0.3227 -1.4734 -0.0788
   27MOL   H13619428   4.673   5.478   2.414  0.9012  0.2399 -0.2380
   27MOL   H13719429   4.548   5.284   2.539  0.4518 -1.0114  0.1567
   27MOL   H13819430   4.687   5.300   2.653  1.5259 -2.8580 -0.1356
   27MOL   H13919431   4.707   5.255   2.354 -1.6022  0.9292  0.2604
   27MOL   H14019432   4.705   5.112   2.466 -1.8846 -0.0692 -1.0497
   27MOL   H14119433   4.920   5.184   2.570  2.8127  1.9065 -0.8936
   27MOL   H14219434   4.935   5.308   2.457  0.2263 -0.1289 -0.1457
   27MOL   H14319435   4.909   5.166   2.262 -0.8340 -0.6939 -0.9981
   27MOL   H14419436   4.893   5.035   2.369 -0.6337 -0.0868  0.2362
   27MOL   H14519437   5.121   5.051   2.300  1.8872  0.5957  0.2042
   27MOL   H14619438   5.131   5.100   2.466  0.7831 -1.5205 -0.7366
   27MOL   H14719439   5.169   5.330   2.411  3.3413 -2.8581  1.7864
   27MOL   H14819440   5.110   5.305   2.247 -1.7631  0.9303  1.2193
   27MOL   H14919441   5.343   5.154   2.334 -0.2534 -0.9798 -0.9550
   27MOL   C15019442   5.368   5.311   2.198  0.1149 -0.2672 -0.4256
   27MOL   O15119443   5.319   5.382   2.113 -0.4325 -0.1958 -0.1060
   27MOL   C15219444   5.519   5.294   2.207  0.2457  0.0019  0.2178
   27MOL   C15319445   5.597   5.421   2.159 -0.3037 -0.1298 -0.3690
   27MOL   C15419446   5.621   5.418   2.006 -0.1820  0.4301  0.0867
   27MOL   C15519447   5.681   5.544   1.933 -0.2048  0.2347  0.2240
   27MOL   C15619448   5.601   5.677   1.944  0.4399 -0.3819 -0.4122
   27MOL   C15719449   5.684   5.792   1.880 -0.4156 -0.2723  0.4488
   27MOL   C15819450   5.620   5.933   1.911 -0.4828 -0.3415  0.2850
   27MOL   C15919451   5.714   6.050   1.876  0.8015 -0.7410 -0.1749
   27MOL   C16019452   5.788   6.058   1.741 -0.3268 -0.5734 -0.1043
   27MOL   C16119453   5.691   6.046   1.624 -0.1485 -0.6867 -0.5567
   27MOL   C16219454   5.754   6.061   1.482 -0.2633  0.2353 -0.4350
   27MOL   N16319455   5.655   6.036   1.381  0.9100 -0.3335  0.0663
   27MOL   H16419456   5.542   5.208   2.144 -2.6989 -2.1978  2.0049
   27MOL   H16519457   5.545   5.264   2.309 -0.8989 -0.6999  0.3125
   27MOL   H16619458   5.557   5.519   2.183  0.6994  1.2486 -4.0054
   27MOL   H16719459   5.699   5.423   2.198 -1.3166  0.7958  2.3175
   27MOL   H16819460   5.525   5.398   1.958  0.2672 -1.1939 -0.1805
   27MOL   H16919461   5.698   5.343   1.985  1.4480  2.2920 -0.7426
   27MOL   H17019462   5.785   5.554   1.966 -0.0652 -1.3477  0.2780
   27MOL   H17119463   5.680   5.526   1.826  1.1065  1.2713  0.0182
   27MOL   H17219464   5.576   5.716   2.042  1.0944 -1.2840  0.1265
   27MOL   H17319465   5.506   5.661   1.892 -0.2463 -2.8757  1.4989
   27MOL   H17419466   5.679   5.777   1.772  1.3739  0.0990  0.3005
   27MOL   H17519467   5.790   5.788   1.907 -0.4134 -0.0513  0.4788
   27MOL   H17619468   5.593   5.953   2.015  0.7230  1.0048  0.3672
   27MOL   H17719469   5.526   5.932   1.856  0.2929 -1.2363 -1.0646
   27MOL   H17819470   5.789   6.062   1.954  1.7810 -0.1643 -1.1918
   27MOL   H17919471   5.650   6.136   1.895  3.5358  1.6059 -1.2651
   27MOL   H18019472   5.857   5.974   1.732 -2.1169 -2.2463  1.3923
   27MOL   H18119473   5.849   6.148   1.740 -2.7331  1.1024 -2.0506
   27MOL   H18219474   5.607   6.111   1.647 -0.1622 -0.9933  0.3086
   27MOL   H18319475   5.655   5.943   1.630  1.0128 -1.2469 -2.7404
   27MOL   H18419476   5.829   5.984   1.465 -0.0236  0.2783  0.4412
   27MOL   H18519477   5.794   6.161   1.467  0.5832  0.0531  0.5706
   27MOL   H18619478   5.571   5.987   1.408  0.1035  0.0980 -1.5619
   27MOL   C18719479   5.677   6.069   1.253  0.4001 -1.2279  0.7800
   27MOL   O18819480   5.769   6.141   1.208  0.6740  0.2349 -0.0489
   27MOL   C18919481   5.570   6.016   1.155  0.0067  0.3456  0.0989
   27MOL   C19019482   5.618   5.927   1.045 -0.0801 -0.4838  0.3970
   27MOL   C19119483   5.671   5.789   1.087  0.0360  0.3578 -0.2998
   27MOL   C19219484   5.683   5.700   0.964  0.2576  0.8726 -0.1319
   27MOL   C19319485   5.814   5.707   0.884 -0.1444  0.1076  0.5597
   27MOL   C19419486   5.817   5.601   0.778  0.3814  0.1520  0.0955
   27MOL   C19519487   5.924   5.636   0.678 -0.3015 -1.0093  0.2710
   27MOL   C19619488   5.941   5.536   0.562 -0.5366  0.4058  0.3949
   27MOL   C19719489   6.044   5.592   0.462 -0.0770 -0.1900  0.1274
   27MOL   C19819490   6.052   5.505   0.328  0.0990 -0.3307  0.3823
   27MOL   C19919491   6.155   5.554   0.229  0.4142 -0.3305 -0.8977
   27MOL   N20019492   6.292   5.547   0.270  0.9417  0.0184 -0.3183
   27MOL   H20119493   5.522   6.105   1.115 -0.1625  1.0760  1.8898
   27MOL   H20219494   5.488   5.976   1.216 -0.0550  1.7119  0.9311
   27MOL   H20319495   5.530   5.912   0.983 -0.0545  0.6583  0.0712
   27MOL   H20419496   5.687   5.988   0.987 -0.6737 -0.3752 -0.1871
   27MOL   H20519497   5.592   5.744   1.147 -2.3151  2.5303 -1.6706
   27MOL   H20619498   5.760   5.787   1.150 -1.2674 -0.7511  1.5265
   27MOL   H20719499   5.671   5.597   0.997 -0.7920  1.5624  1.7057
   27MOL   H20819500   5.596   5.714   0.899 -0.2371  0.7606  0.4957
   27MOL   H20919501   5.896   5.702   0.955 -0.3355 -0.5207  0.7459
   27MOL   H21019502   5.805   5.804   0.835 -0.1649 -1.4057 -2.5479
   27MOL   H21119503   5.718   5.586   0.734 -2.0216 -0.0685  5.1428
   27MOL   H21219504   5.828   5.498   0.814 -0.3882 -0.3060 -0.9507
   27MOL   H21319505   6.020   5.651   0.729  1.4970 -2.8598 -2.4227
   27MOL   H21419506   5.904   5.733   0.632  1.4036 -1.6184 -1.8337
   27MOL   H21519507   5.843   5.517   0.518  0.2490  0.1462 -1.2757
   27MOL   H21619508   5.971   5.438   0.600  0.5752  0.2727 -0.8096
   27MOL   H21719509   6.137   5.587   0.519  1.0567 -0.4183 -1.6840
   27MOL   H21819510   6.022   5.697   0.443  0.4528 -0.1110 -0.0487
   27MOL   H21919511   5.966   5.517   0.264 -0.3019  0.9915  1.1414
   27MOL   H22019512   6.067   5.399   0.348 -1.7013 -0.2680  2.2749
   27MOL   H22119513   6.141   5.660   0.205  0.4045 -0.4065 -1.2326
   27MOL   H22219514   6.145   5.493   0.139 -0.8115 -0.2275 -0.8410
   27MOL   H22319515   6.305   5.527   0.368  1.0341 -0.1012 -0.3548
   27MOL   C22419516   6.396   5.569   0.189  0.2271  0.3325  0.8788
   27MOL   O22519517   6.383   5.595   0.066  0.1540  0.0805 -0.2142
   27MOL   C22619518   6.532   5.554   0.255 -0.2869 -0.0375  0.0293
   27MOL   C22719519   6.652   5.587   0.162 -0.9875 -0.4457 -0.0608
   27MOL   C22819520   6.792   5.593   0.241  0.0540  0.3067 -0.1563
   27MOL   C22919521   6.909   5.599   0.142 -0.4687  0.0009  0.6378
   27MOL   C23019522   7.042   5.608   0.216  0.1698  0.5827  0.4656
   27MOL   C23119523   7.074   5.738   0.293  0.0340  0.0043  0.1411
   27MOL   C23219524   7.101   5.864   0.209 -0.2024 -0.0104  0.2102
   27MOL   C23319525   7.125   5.992   0.296  0.0684 -0.5090  0.5452
   27MOL   C23419526   7.182   6.107   0.214 -0.1471 -0.1993 -0.2777
   27MOL   C23519527   7.124   6.243   0.251 -0.0802 -0.9004  0.0058
   27MOL   C23619528   7.181   6.362   0.170  0.0600 -0.5232 -0.1322
   27MOL   N23719529   7.112   6.485   0.203  0.0841 -0.2476  0.3633
   27MOL   H23819530   6.525   5.457   0.305 -3.4125 -0.3907 -0.9779
   27MOL   H23919531   6.535   5.626   0.337 -3.1713 -0.5409  0.6333
   27MOL   H24019532   6.653   5.512   0.083 -0.1275 -0.9851  0.4613
   27MOL   H24119533   6.646   5.680   0.105  1.1119  0.4337  1.0931
   27MOL   H24219534   6.816   5.503   0.298 -1.4944 -0.0328 -0.0139
   27MOL   H24319535   6.796   5.683   0.302  0.4628  1.4697 -1.8402
   27MOL   H24419536   6.914   5.510   0.080  0.6962 -0.6879  1.7074
   27MOL   H24519537   6.882   5.679   0.072 -4.4788 -0.6154  1.3604
   27MOL   H24619538   7.123   5.586   0.146 -0.9103 -1.8926 -0.0607
   27MOL   H24719539   7.054   5.519   0.277 -0.0481 -0.6655 -1.2794
   27MOL   H24819540   7.165   5.717   0.349 -1.1727 -0.7226  1.8887
   27MOL   H24919541   6.997   5.757   0.368  0.6104 -0.8517  0.9522
   27MOL   H25019542   7.018   5.875   0.139 -1.5841 -0.6790  1.6807
   27MOL   H25119543   7.185   5.855   0.142 -1.2787 -1.8902 -0.9165
   27MOL   H25219544   7.188   5.973   0.382 -0.3945 -0.6086  0.8649
   27MOL   H25319545   7.027   6.022   0.332  0.0264 -2.2460  1.9722
   27MOL   H25419546   7.152   6.093   0.110 -0.9800  1.3408 -0.2561
   27MOL   H25519547   7.291   6.105   0.216 -0.1168  0.0579 -1.5325
   27MOL   H25619548   7.130   6.271   0.356 -1.3909  3.8175 -1.0755
   27MOL   H25719549   7.018   6.243   0.226  0.2668  1.4797 -1.6314
   27MOL   H25819550   7.159   6.344   0.065 -2.9684 -2.0347  0.6933
   27MOL   H25919551   7.288   6.374   0.184 -0.5359  1.6951  3.1502
   27MOL   H26019552   7.042   6.521   0.140  1.1850  0.3516 -0.5343
   27MOL   C26119553   7.144   6.560   0.309  0.4170  0.8351  0.2277
   27MOL   O26219554   7.238   6.528   0.386 -0.5742  0.4115 -0.1312
   27MOL   C26319555   7.064   6.685   0.334 -0.1333  0.0380  0.2122
   27MOL   C26419556   6.966   6.652   0.455  0.3785 -0.9360 -0.2011
   27MOL   C26519557   6.840   6.571   0.423 -0.0835 -0.1406  0.5848
   27MOL   C26619558   6.758   6.538   0.543 -0.2786  0.0965 -0.0434
   27MOL   C26719559   6.642   6.436   0.512 -0.0592 -0.1325 -0.6540
   27MOL   C26819560   6.512   6.448   0.597 -0.3416  0.1803 -0.5990
   27MOL   C26919561   6.430   6.315   0.608  0.0460 -0.1444 -0.0205
   27MOL   C27019562   6.308   6.348   0.699  0.3243  0.3474  0.4048
   27MOL   C27119563   6.186   6.404   0.623  0.4985 -0.4482 -0.5555
   27MOL   C27219564   6.107   6.298   0.542  0.1248  0.7384 -0.2773
   27MOL   C27319565   5.969   6.337   0.492  0.3302  0.3416  0.8766
   27MOL   N27419566   5.879   6.326   0.603  0.6357  0.0244 -0.2328
   27MOL   H27519567   7.009   6.722   0.247  0.5116 -0.3397 -0.3525
   27MOL   H27619568   7.139   6.761   0.357  0.3984 -0.3991 -0.0736
   27MOL   H27719569   7.023   6.616   0.541  0.9254 -0.3601 -0.3187
   27MOL   H27819570   6.925   6.746   0.491  0.8827 -0.3328 -1.1899
   27MOL   H27919571   6.874   6.476   0.381  0.6405 -0.0066  0.8580
   27MOL   H28019572   6.772   6.621   0.355  2.0960  0.0642 -1.5148
   27MOL   H28119573   6.813   6.488   0.623  0.5141  1.4512  0.2795
   27MOL   H28219574   6.715   6.629   0.586 -2.4597 -1.4881  1.2332
   27MOL   H28319575   6.680   6.335   0.521  0.5686  0.3131  2.2142
   27MOL   H28419576   6.602   6.441   0.410  0.9489 -0.4295 -1.0618
   27MOL   H28519577   6.442   6.525   0.566 -1.5215 -0.4493  0.4420
   27MOL   H28619578   6.545   6.482   0.695 -0.6308 -2.2432  0.3680
   27MOL   H28719579   6.493   6.256   0.675  0.9181 -0.6187 -1.2508
   27MOL   H28819580   6.403   6.252   0.524 -0.6609  1.4093 -0.9737
   27MOL   H28919581   6.336   6.418   0.777  0.1017  1.3827 -0.4309
   27MOL   H29019582   6.275   6.263   0.759 -0.5409  1.4026  1.4160
   27MOL   H29119583   6.215   6.486   0.557  2.0080  0.2940  1.0034
   27MOL   H29219584   6.126   6.447   0.702  0.0259  0.2533 -1.2873
   27MOL   H29319585   6.096   6.205   0.598  0.0198  1.3803  0.7746
   27MOL   H29419586   6.172   6.270   0.459 -0.8521  0.7560 -1.0627
   27MOL   H29519587   5.940   6.258   0.422  1.4864  0.6857 -0.0105
   27MOL   H29619588   5.957   6.436   0.448 -0.1588 -1.8254 -4.2512
   27MOL   H29719589   5.911   6.348   0.696  0.4509  0.7693 -0.3357
   27MOL   C29819590   5.750   6.320   0.592  0.3341  0.5524 -0.3593
   27MOL   O29919591   5.693   6.290   0.488 -0.3979 -0.2684  0.5535
   27MOL   C30019592   5.681   6.357   0.725  0.0509  0.3676 -0.5692
   27MOL   C30119593   5.541   6.293   0.739  0.9079  0.2222 -0.7195
   27MOL   C30219594   5.472   6.334   0.867 -0.3211 -1.0868  0.6801
   27MOL   C30319595   5.329   6.295   0.879  0.0222  0.5118 -1.4861
   27MOL   C30419596   5.269   6.329   1.019  0.3518 -0.3853 -0.1562
   27MOL   C30519597   5.247   6.482   1.040 -0.4117  0.4427  0.2691
   27MOL   C30619598   5.188   6.502   1.179 -0.9406  0.5569 -0.3941
   27MOL   C30719599   5.288   6.535   1.294 -0.9224  0.3829  0.1729
   27MOL   C30819600   5.374   6.412   1.338  0.3051  0.2194  0.0627
   27MOL   C30919601   5.280   6.293   1.378  0.3793  0.8287 -0.7518
   27MOL   C31019602   5.352   6.178   1.449 -0.0994 -0.1929 -0.1871
   27MOL   N31119603   5.264   6.064   1.479  0.0799  0.3886  0.2484
   27MOL   H31219604   5.671   6.465   0.726  1.0059  0.4828  2.0644
   27MOL   H31319605   5.747   6.322   0.805  1.0854  1.4786 -0.9390
   27MOL   H31419606   5.479   6.318   0.652 -3.0409 -2.6878  1.1143
   27MOL   H31519607   5.547   6.185   0.725  0.6839  0.2264 -0.8637
   27MOL   H31619608   5.466   6.442   0.880 -0.0941 -1.1703  1.5662
   27MOL   H31719609   5.537   6.316   0.953 -1.6319 -0.8854  1.7309
   27MOL   H31819610   5.269   6.337   0.798 -0.5376 -0.3452 -1.5313
   27MOL   H31919611   5.322   6.187   0.874  1.1480  0.1493  2.8412
   27MOL   H32019612   5.331   6.291   1.100  0.6318 -1.5822 -0.9206
   27MOL   H32119613   5.169   6.286   1.026 -0.3275  0.5259 -3.4639
   27MOL   H32219614   5.178   6.529   0.970  0.7929 -1.8683 -2.5709
   27MOL   H32319615   5.343   6.533   1.032 -0.0017 -0.1894  1.0510
   27MOL   H32419616   5.125   6.420   1.212  1.6628 -0.9908  0.8793
   27MOL   H32519617   5.119   6.586   1.169 -2.1441 -0.3718 -0.0224
   27MOL   H32619618   5.231   6.564   1.382 -1.4289 -1.1931  0.3707
   27MOL   H32719619   5.354   6.622   1.285 -3.3801  2.4194  1.1526
   27MOL   H32819620   5.439   6.447   1.418  3.1230 -2.5010 -0.9421
   27MOL   H32919621   5.438   6.386   1.253  0.4825  0.3651  0.1500
   27MOL   H33019622   5.227   6.248   1.295  0.1621  0.9251 -0.6673
   27MOL   H33119623   5.195   6.334   1.433 -0.1101 -2.5838  1.1413
   27MOL   H33219624   5.407   6.205   1.539 -1.3885 -1.7744  1.1020
   27MOL   H33319625   5.426   6.157   1.372  1.0441 -0.1267  0.8759
   27MOL   H33419626   5.164   6.076   1.492  0.1679  1.3642  0.0642
   27MOL   C33519627   5.306   5.940   1.514  0.3424  0.2650 -0.2963
   27MOL   O33619628   5.426   5.907   1.497  0.2655  0.0593  0.1548
   27MOL   C33719629   5.214   5.853   1.592  0.1919 -0.9970 -0.3809
   27MOL   C33819630   5.269   5.711   1.626  0.0906  0.1603  0.6099
   27MOL   C33919631   5.188   5.628   1.732 -0.1759  0.3461  0.4806
   27MOL   C34019632   5.252   5.489   1.756 -0.8276 -0.1030  0.5269
   27MOL   C34119633   5.277   5.402   1.628  0.3573  0.4266 -0.5107
   27MOL   C34219634   5.341   5.261   1.666  0.4055 -0.2790  0.0682
   27MOL   C34319635   5.237   5.180   1.749  0.1191 -0.0614  0.3875
   27MOL   C34419636   5.274   5.029   1.776  0.9923 -0.0908 -0.2669
   27MOL   C34519637   5.370   5.002   1.899 -0.2578 -0.4278  0.4887
   27MOL   C34619638   5.313   4.950   2.028  0.7702  0.8185  0.3104
   27MOL   C34719639   5.416   4.921   2.142 -0.6594  0.2433 -1.4852
   27MOL   N34819640   5.365   4.850   2.255 -0.5436  0.2608  0.1605
   27MOL   H34919641   5.121   5.852   1.535  0.3271 -1.6083 -0.6037
   27MOL   H35019642   5.188   5.913   1.679 -0.5383  0.3328 -1.4843
   27MOL   H35119643   5.264   5.656   1.532  1.0187  0.6701  0.2593
   27MOL   H35219644   5.372   5.719   1.660 -1.0613  1.1912  4.0585
   27MOL   H35319645   5.089   5.604   1.692  0.5264  0.4086 -1.3136
   27MOL   H35419646   5.164   5.683   1.823  0.0303  0.2054  0.6200
   27MOL   H35519647   5.344   5.512   1.809 -0.5209 -0.0555 -0.0256
   27MOL   H35619648   5.195   5.438   1.834 -0.5260 -0.9731  0.1840
   27MOL   H35719649   5.349   5.444   1.558  1.0343  1.0791  0.5688
   27MOL   H35819650   5.186   5.392   1.569 -0.2946  2.6221  0.0861
   27MOL   H35919651   5.438   5.263   1.716 -0.6306  1.4746  2.0634
   27MOL   H36019652   5.360   5.214   1.569  0.7903 -2.4701  1.1679
   27MOL   H36119653   5.142   5.194   1.698 -0.1782  1.9591  1.4296
   27MOL   H36219654   5.205   5.224   1.844 -1.9741  0.6393 -0.6240
   27MOL   H36319655   5.327   4.994   1.687  2.1936  0.7740  0.0955
   27MOL   H36419656   5.181   4.972   1.779  0.2460  1.1500  0.6866
   27MOL   H36519657   5.427   5.091   1.926  0.2945 -0.4373 -0.6087
   27MOL   H36619658   5.451   4.933   1.876  0.5630  0.6652  0.0424
   27MOL   H36719659   5.263   4.855   2.006  0.7112  1.0582 -0.5796
   27MOL   H36819660   5.248   5.023   2.077 -1.4973 -1.0483  0.1810
   27MOL   H36919661   5.481   5.007   2.159 -0.1105 -0.3185 -0.7317
   27MOL   H37019662   5.477   4.839   2.106 -0.9237 -1.0559  0.9265
   27MOL   H37119663   5.325   4.765   2.218  1.1340 -0.4314 -0.1600
   27MOL   C37219664   5.372   4.890   2.381  0.2314 -0.2135 -0.1287
   27MOL   O37319665   5.424   4.995   2.409 -0.5795 -0.4433  0.3639
   27MOL   C37419666   5.325   4.787   2.486 -0.6925 -0.2210 -0.1440
   27MOL   C37519667   5.433   4.780   2.600 -0.2654  0.3639  0.3933
   27MOL   C37619668   5.364   4.730   2.725  0.2942 -0.8863  0.1759
   27MOL   C37719669   5.448   4.695   2.846  0.0774  0.0763  0.1710
   27MOL   C37819670   5.391   4.579   2.941 -0.6825  0.3839 -0.6358
   27MOL   C37919671   5.273   4.613   3.033 -0.8525 -0.1715 -0.1607
   27MOL   C38019672   5.217   4.485   3.109  0.2777 -0.0101  0.2408
   27MOL   C38119673   5.097   4.523   3.200 -0.4855  0.5737  0.2291
   27MOL   C38219674   5.129   4.622   3.317 -0.1407 -0.1571  0.3179
   27MOL   C38319675   5.019   4.628   3.420  0.7398 -0.6942 -0.2270
   27MOL   C38419676   5.055   4.709   3.544 -0.5596  0.0540 -0.5703
   27MOL   N38519677   5.079   4.853   3.525 -0.7215  0.1755  0.0333
   27MOL   H38619678   5.305   4.688   2.446  0.6782 -0.3350 -0.5899
   27MOL   H38719679   5.228   4.824   2.519  0.2533 -0.4156  2.9623
   27MOL   H38819680   5.526   4.727   2.578 -0.9899 -1.6133  1.9309
   27MOL   H38919681   5.451   4.885   2.626  0.5500 -0.2794  2.5079
   27MOL   H39019682   5.314   4.639   2.691 -0.1937 -0.8347  0.7233
   27MOL   H39119683   5.296   4.808   2.759  1.8435  1.0008 -0.9911
   27MOL   H39219684   5.545   4.657   2.816  0.3253  0.5230  0.4018
   27MOL   H39319685   5.487   4.782   2.898  0.7085 -0.6586  0.9413
   27MOL   H39419686   5.470   4.550   3.010 -1.1269  2.0808  0.6079
   27MOL   H39519687   5.363   4.493   2.880  0.7280  0.4457 -1.3999
   27MOL   H39619688   5.189   4.637   2.969 -1.9651  0.5395  1.5138
   27MOL   H39719689   5.281   4.706   3.090 -1.4007  0.5832 -1.2866
   27MOL   H39819690   5.295   4.452   3.179  0.0372 -0.4411  0.3068
   27MOL   H39919691   5.196   4.409   3.034  0.4698 -0.5423  0.7194
   27MOL   H40019692   5.072   4.426   3.243 -0.4374  1.1292  1.5038
   27MOL   H40119693   5.012   4.556   3.138  1.6895  2.8671 -1.6399
   27MOL   H40219694   5.149   4.720   3.275  2.0838 -0.3550  0.8013
   27MOL   H40319695   5.226   4.588   3.355 -0.3024 -2.6042 -1.2922
   27MOL   H40419696   4.990   4.529   3.454  0.1438 -0.1853  0.7602
   27MOL   H40519697   4.925   4.670   3.385 -0.1443 -1.2197  1.4750
   27MOL   H40619698   5.143   4.676   3.599 -0.3889 -0.3086 -1.0645
   27MOL   H40719699   4.975   4.704   3.618  1.4041  2.2487  1.7846
   27MOL   H40819700   5.169   4.868   3.484  0.1491  0.7172  2.0886
   27MOL   C40919701   4.985   4.952   3.522 -0.1112  0.2507  1.2660
   27MOL   O41019702   4.870   4.943   3.567  0.7078  0.4680 -0.1616
   27MOL   C41119703   5.036   5.079   3.454  0.1261 -0.3727 -0.2561
   27MOL   C41219704   5.083   5.069   3.307  0.1210 -0.2857  0.1718
   27MOL   C41319705   4.975   5.019   3.204  0.7909 -0.0278 -0.6174
   27MOL   C41419706   5.039   4.964   3.074  0.9140  0.6188 -0.9222
   27MOL   C41519707   4.930   4.960   2.966  0.2601 -0.3406  0.0676
   27MOL   C41619708   4.991   4.910   2.837 -0.2007 -0.1285 -0.4165
   27MOL   C41719709   4.889   4.887   2.720 -0.6944 -0.8001  0.2178
   27MOL   C41819710   4.949   4.823   2.601  0.3505 -0.1878  0.6760
   27MOL   C41919711   4.838   4.761   2.521 -0.8704 -0.5409  0.3928
   27MOL   C42019712   4.883   4.675   2.404 -0.5675 -0.5589  0.2555
   27MOL   C42119713   4.932   4.754   2.281  0.0674  0.8499  0.4265
   27MOL   N42219714   4.955   4.663   2.167 -0.4693 -0.6777 -0.5311
   27MOL   H42319715   5.122   5.106   3.516  0.9262 -0.4898 -1.2964
   27MOL   H42419716   4.970   5.163   3.478  1.1393 -0.6015  3.6320
   27MOL   H42519717   5.129   5.157   3.264 -0.2994 -0.7769 -1.3218
   27MOL   H42619718   5.155   4.987   3.300  1.2049  0.5687  1.1036
   27MOL   H42719719   4.907   5.101   3.181  1.4193  0.0125 -2.4089
   27MOL   H42819720   4.901   4.956   3.255 -0.7503  3.0628  1.0924
   27MOL   H42919721   5.118   5.032   3.041 -1.3530  3.3106 -1.0266
   27MOL   H43019722   5.076   4.862   3.084  0.8457  0.8068  1.7941
   27MOL   H43119723   4.887   5.059   2.951 -0.2557 -0.5107  0.3907
   27MOL   H43219724   4.847   4.895   2.996  1.1160 -1.1551  0.7040
   27MOL   H43319725   5.048   4.819   2.855  0.2579  0.2672  0.1307
   27MOL   H43419726   5.059   4.985   2.797  0.2358 -1.1791 -1.6675
   27MOL   H43519727   4.844   4.981   2.689 -2.0923 -0.8940  1.8593
   27MOL   H43619728   4.806   4.834   2.766 -0.5155 -1.2165  0.0590
   27MOL   H43719729   5.017   4.743   2.629 -0.7522 -0.6973  1.9342
   27MOL   H43819730   5.001   4.896   2.538  0.0645 -1.7032 -1.3808
   27MOL   H43919731   4.775   4.841   2.480  0.1737 -0.7451 -1.7133
   27MOL   H44019732   4.776   4.705   2.591 -0.3013 -0.7664  0.7176
   27MOL   H44119733   4.801   4.607   2.379  1.1631 -1.8393 -2.0958
   27MOL   H44219734   4.961   4.602   2.427  0.4472  0.5325  0.2934
   27MOL   H44319735   5.015   4.821   2.299  2.0233 -1.1577 -0.8532
   27MOL   H44419736   4.848   4.816   2.250 -0.8300 -0.9810 -0.9429
   27MOL   H44519737   4.877   4.633   2.110  0.0078  0.9690 -2.1097
   27MOL   C44619738   5.074   4.599   2.144 -0.1564 -0.3705  0.0964
   27MOL   O44719739   5.171   4.637   2.210 -0.4000  0.2344  0.8591
   27MOL   C44819740   5.080   4.491   2.035 -0.3558 -0.0874 -0.2403
   27MOL   C44919741   5.150   4.362   2.100 -0.0256  1.2475  0.0754
   27MOL   C45019742   5.079   4.296   2.222  0.9189 -0.6877 -0.6958
   27MOL   C45119743   5.142   4.175   2.272  0.4186 -0.4046 -0.0061
   27MOL   C45219744   5.049   4.078   2.348 -0.3145 -0.7089  0.0221
   27MOL   C45319745   5.123   3.954   2.405 -0.3967 -0.2937 -0.0900
   27MOL   C45419746   5.176   3.847   2.303  0.6798  0.3930 -0.0802
   27MOL   C45519747   5.234   3.725   2.377  0.2947 -0.5788  0.8485
   27MOL   C45619748   5.361   3.756   2.459 -0.0519  0.5136  0.0709
   27MOL   C45719749   5.400   3.633   2.534 -0.5170  0.0068  0.0688
   27MOL   C45819750   5.506   3.656   2.640  0.0442  0.3196  0.1094
   27MOL   N45919751   5.537   3.529   2.701 -0.1326  0.7139  0.9441
   27MOL   H46019752   5.135   4.533   1.951 -0.0543 -1.0570 -0.5261
   27MOL   H46119753   4.978   4.461   2.010 -0.8812  0.8811  0.6494
   27MOL   H46219754   5.158   4.283   2.024 -1.1897  0.8530  0.3582
   27MOL   H46319755   5.254   4.391   2.112  0.1998  0.5834 -0.1957
   27MOL   H46419756   4.984   4.268   2.176 -0.1613 -1.3485  1.8493
   27MOL   H46519757   5.056   4.358   2.308 -2.6356 -2.4193 -0.3255
   27MOL   H46619758   5.189   4.116   2.193 -0.4603 -0.3248 -0.5924
   27MOL   H46719759   5.223   4.206   2.339 -1.3961 -0.5981  2.3067
   27MOL   H46819760   4.958   4.053   2.293 -1.0389  1.0989  0.3911
   27MOL   H46919761   5.010   4.136   2.431  0.5931 -0.8524  0.5555
   27MOL   H47019762   5.054   3.908   2.476 -0.8930  0.1893 -0.2617
   27MOL   H47119763   5.202   3.999   2.466 -1.7341 -1.3433  2.4757
   27MOL   H47219764   5.258   3.896   2.251  1.5931  1.1962  2.0652
   27MOL   H47319765   5.096   3.820   2.234  2.4395  0.8987 -2.3901
   27MOL   H47419766   5.256   3.654   2.298  1.8217  1.2740 -0.4550
   27MOL   H47519767   5.159   3.679   2.442 -1.0925  0.6210  0.1187
   27MOL   H47619768   5.341   3.836   2.531 -1.3701 -0.8378  1.2216
   27MOL   H47719769   5.444   3.797   2.401 -0.2162 -0.8688 -1.1736
   27MOL   H47819770   5.445   3.566   2.460  1.5054  0.5272  0.8114
   27MOL   H47919771   5.318   3.573   2.574  0.2095  0.5060  2.3301
   27MOL   H48019772   5.462   3.718   2.719 -0.9172 -0.6841  0.3694
   27MOL   H48119773   5.591   3.710   2.598  1.1263  0.5511  2.5310
   27MOL   H48219774   5.467   3.461   2.728  1.1092 -0.2232  1.9217
   27MOL   C48319775   5.659   3.481   2.685  0.4859 -0.1936 -0.5301
   27MOL   O48419776   5.754   3.552   2.663  0.6740 -0.3764 -0.0040
   27MOL   C48519777   5.684   3.334   2.715 -0.0997 -0.3412  0.2706
   27MOL   C48619778   5.802   3.301   2.811 -1.0455 -0.1612  0.4603
   27MOL   C48719779   5.797   3.346   2.956 -0.4069  0.5053  1.0810
   27MOL   C48819780   5.676   3.288   3.030  0.5084  0.0523 -0.5046
   27MOL   C48919781   5.688   3.307   3.184  0.7115  0.9144  0.3400
   27MOL   C49019782   5.574   3.242   3.257 -0.0452  0.0146 -0.1321
   27MOL   C49119783   5.566   3.262   3.405  0.0256  0.1044 -0.1798
   27MOL   C49219784   5.466   3.166   3.463  0.9996 -0.2498 -0.4092
   27MOL   C49319785   5.529   3.028   3.487 -0.4204  0.0164  0.0017
   27MOL   C49419786   5.587   3.013   3.628  0.3955 -0.2533  0.0618
   27MOL   C49519787   5.669   2.883   3.653  0.0649 -0.1873 -0.2864
   27MOL   N49619788   5.731   2.877   3.784  0.0768  0.2027 -0.6035
   27MOL   H49719789   5.711   3.284   2.622  1.3509  0.5907  0.1794
   27MOL   H49819790   5.589   3.284   2.740 -0.0041 -0.6278  0.0696
   27MOL   H49919791   5.838   3.198   2.806 -1.8633 -0.4522  0.4868
   27MOL   H50019792   5.892   3.349   2.772 -2.6987  0.1256 -3.2216
   27MOL   H50119793   5.800   3.455   2.952 -2.0368  0.5450  0.7620
   27MOL   H50219794   5.889   3.304   2.998  0.8310  0.9159 -1.1955
   27MOL   H50319795   5.590   3.349   3.003 -0.2799 -0.6109  0.4429
   27MOL   H50419796   5.665   3.187   2.991 -1.7230 -0.2851  0.9199
   27MOL   H50519797   5.692   3.415   3.203 -0.1019  1.1489 -0.7936
   27MOL   H50619798   5.779   3.256   3.216  1.2737  0.5627 -1.7320
   27MOL   H50719799   5.583   3.137   3.230  0.1502  0.4074 -1.5987
   27MOL   H50819800   5.477   3.267   3.215 -0.2763 -0.9711 -0.2150
   27MOL   H50919801   5.536   3.363   3.433  0.7548  0.5836 -1.0837
   27MOL   H51019802   5.665   3.251   3.449  0.3908 -1.5324 -1.3757
   27MOL   H51119803   5.386   3.140   3.394  1.0932 -0.3995 -0.4622
   27MOL   H51219804   5.433   3.214   3.555  2.9628  2.4212 -1.0427
   27MOL   H51319805   5.604   3.014   3.409 -0.9451  0.6306 -0.6262
   27MOL   H51419806   5.458   2.947   3.472 -0.1808 -0.2512  0.3249
   27MOL   H51519807   5.506   3.006   3.700 -0.9470 -0.8648 -1.4923
   27MOL   H51619808   5.634   3.110   3.644  0.1035 -0.2759  1.1021
   27MOL   H51719809   5.744   2.874   3.574 -0.3973 -1.3332 -0.6137
   27MOL   H51819810   5.597   2.802   3.638  1.0884 -1.3128  0.7529
   27MOL   H51919811   5.752   2.967   3.826  2.5858  2.2794 -5.7640
   27MOL   C52019812   5.755   2.767   3.850  0.0235  0.1796  0.5341
   27MOL   O52119813   5.744   2.655   3.795 -0.1029 -0.5094  0.1292
   27MOL   C52219814   5.783   2.776   3.997 -0.0911 -0.1669 -0.0197
   27MOL   C52319815   5.923   2.710   4.032  0.4915 -0.2665  0.5868
   27MOL   C52419816   5.986   2.772   4.158 -0.5981 -0.1867 -0.2280
   27MOL   C52519817   6.132   2.727   4.184  0.0675  0.5417 -0.0574
   27MOL   C52619818   6.209   2.787   4.298 -0.5211 -0.5091 -0.2603
   27MOL   C52719819   6.325   2.704   4.354  0.0359  0.1178 -0.3148
   27MOL   C52819820   6.391   2.764   4.490 -0.5781 -0.2715  0.4344
   27MOL   C52919821   6.298   2.750   4.603  1.0772  0.1695  0.2155
   27MOL   C53019822   6.354   2.780   4.744 -0.5208  0.3859  0.2719
   27MOL   C53119823   6.301   2.671   4.842 -0.6351  0.5965  0.8862
   27MOL   C53219824   6.319   2.694   4.994 -0.0017  0.2488  0.0163
   27MOL   N53319825   6.274   2.579   5.063 -0.2339  0.0928 -0.6844
   27MOL   H53419826   5.697   2.742   4.055 -0.3003 -0.7546 -0.6705
   27MOL   H53519827   5.791   2.884   4.011  1.9950  0.1036 -2.7306
   27MOL   H53619828   5.912   2.602   4.041  0.5779 -0.5150 -1.9043
   27MOL   H53719829   5.996   2.730   3.954  3.2104  2.1787  3.6108
   27MOL   H53819830   5.930   2.768   4.251  0.9406  2.5130  0.8560
   27MOL   H53919831   5.995   2.880   4.145  0.2032 -0.0689  1.2133
   27MOL   H54019832   6.123   2.619   4.196 -1.8970  0.1791 -3.9204
   27MOL   H54119833   6.189   2.728   4.091  0.7921 -0.8223  0.3608
   27MOL   H54219834   6.132   2.800   4.375  1.6052 -2.3939  2.2322
   27MOL   H54319835   6.242   2.889   4.278  1.1875 -0.7410  1.3629
   27MOL   H54419836   6.404   2.702   4.279 -0.2145 -0.0549 -0.5736
   27MOL   H54519837   6.310   2.597   4.365  2.8454 -0.2808  0.1204
   27MOL   H54619838   6.421   2.867   4.467 -0.9864 -0.2866 -0.1660
   27MOL   H54719839   6.478   2.706   4.520  0.2464 -0.0088 -1.3638
   27MOL   H54819840   6.247   2.654   4.609 -1.0672  1.2506 -0.0759
   27MOL   H54919841   6.222   2.825   4.580  1.0505  0.3274  0.8041
   27MOL   H55019842   6.322   2.878   4.781  1.4686  1.0178  0.3719
   27MOL   H55119843   6.462   2.797   4.743 -0.5966  0.8626 -0.0072
   27MOL   H55219844   6.340   2.573   4.813  0.3995  1.8433 -2.1538
   27MOL   H55319845   6.194   2.651   4.830  0.0316 -1.2383 -2.6969
   27MOL   H55419846   6.273   2.786   5.029 -0.3749  0.8901 -2.1020
   27MOL   H55519847   6.424   2.701   5.022  0.3066 -1.2643 -0.6982
   27MOL   H55619848   6.311   2.487   5.043  2.9247  1.0583  0.4513
   27MOL   C55719849   6.191   2.582   5.167 -0.3306  0.3679 -0.3351
   27MOL   O55819850   6.148   2.689   5.210 -0.1610 -0.6187 -0.0704
   27MOL   C55919851   6.148   2.448   5.224  0.3253 -0.5025 -0.6543
   27MOL   C56019852   5.996   2.441   5.258 -0.7726  0.1009  0.5144
   27MOL   C56119853   5.964   2.494   5.399 -0.1674 -0.5243 -0.6227
   27MOL   C56219854   5.820   2.495   5.432  0.1947  0.1911  0.3422
   27MOL   C56319855   5.790   2.553   5.568 -0.0261 -0.0980  0.1046
   27MOL   C56419856   5.640   2.547   5.605 -0.2021 -0.6571 -0.6744
   27MOL   C56519857   5.617   2.585   5.750  0.9910  0.4532 -0.2072
   27MOL   C56619858   5.482   2.579   5.808 -0.1696 -0.2955 -0.4578
   27MOL   C56719859   5.473   2.621   5.956 -0.1463 -0.3751 -0.0907
   27MOL   C56819860   5.333   2.589   6.021  0.3873  0.0013 -0.5603
   27MOL   C56919861   5.320   2.605   6.178  0.0047 -0.3384  0.1676
   27MOL   N57019862   5.191   2.577   6.230 -0.5424 -0.2587  0.1409
   27MOL   H57119863   6.213   2.421   5.308  0.5188 -1.0956 -0.9955
   27MOL   H57219864   6.170   2.374   5.147 -1.4782 -1.3525 -0.3605
   27MOL   H57319865   5.936   2.503   5.191 -0.2256 -0.7336 -0.7691
   27MOL   H57419866   5.954   2.341   5.241 -0.9964  0.0409  1.3634
   27MOL   H57519867   5.984   2.601   5.404  1.4354 -0.8686  0.6874
   27MOL   H57619868   6.027   2.449   5.476 -0.0695  0.0997 -0.3290
   27MOL   H57719869   5.767   2.564   5.366 -0.0962 -0.5888 -0.2516
   27MOL   H57819870   5.772   2.398   5.413 -1.1784  0.9865 -0.3253
   27MOL   H57919871   5.821   2.656   5.582  1.7652 -0.5639 -0.3729
   27MOL   H58019872   5.847   2.501   5.646 -1.4048 -2.3843 -0.3507
   27MOL   H58119873   5.607   2.445   5.583 -0.5980 -1.0682  1.7675
   27MOL   H58219874   5.592   2.617   5.536  0.0401  0.4551  0.2664
   27MOL   H58319875   5.663   2.683   5.763 -0.1931  0.9388  0.3139
   27MOL   H58419876   5.685   2.524   5.810  1.3105  1.8994  0.9094
   27MOL   H58519877   5.458   2.473   5.814 -0.0092 -0.2616  1.0477
   27MOL   H58619878   5.409   2.633   5.748 -0.4461  0.8812  0.8973
   27MOL   H58719879   5.502   2.724   5.976  0.3247  0.0342 -2.6382
   27MOL   H58819880   5.545   2.571   6.021  0.0581 -1.4905 -1.1439
   27MOL   H58919881   5.317   2.484   5.997  2.1419 -0.4556  0.1381
   27MOL   H59019882   5.251   2.648   5.981  1.2738  1.3563 -0.4320
   27MOL   H59119883   5.360   2.700   6.214 -0.1075 -0.0828 -0.3910
   27MOL   H59219884   5.375   2.521   6.221  0.9398 -0.1173 -0.5906
   27MOL   H59319885   5.108   2.553   6.176  0.3576 -0.3542 -1.2292
   27MOL   C59419886   5.171   2.558   6.362  0.7041  0.2053 -0.1314
   27MOL   O59519887   5.254   2.577   6.445 -0.0735  0.8757 -0.1592
   27MOL   C59619888   5.038   2.499   6.395  0.3116  0.4061  0.2955
   27MOL   C59719889   4.986   2.505   6.546 -0.4878  0.5197 -0.7670
   27MOL   C59819890   5.065   2.417   6.636 -0.2627 -0.8022  0.6032
   27MOL   C59919891   5.047   2.258   6.629  0.4742 -0.1610  0.2646
   27MOL   C60019892   5.163   2.188   6.689 -0.3196  0.6764 -0.4996
   27MOL   C60119893   5.151   2.031   6.699 -0.5781 -0.7745  0.1923
   27MOL   C60219894   5.260   1.976   6.791 -0.0614  0.8171  0.8520
   27MOL   C60319895   5.408   1.979   6.735  0.2225  0.1165  0.1436
   27MOL   C60419896   5.507   1.925   6.843  0.1577 -0.5324  0.2316
   27MOL   C60519897   5.650   1.932   6.802 -0.1239 -0.6789  0.6152
   27MOL   C60619898   5.744   1.837   6.873  0.2640 -0.7038  0.0986
   27MOL   N60719899   5.866   1.830   6.792 -0.0439 -0.5167  0.6412
   27MOL   H60819900   5.053   2.393   6.376  3.0932  0.4092  2.3002
   27MOL   H60919901   4.966   2.539   6.323  0.1529 -1.1679 -0.4487
   27MOL   H61019902   4.987   2.608   6.582  3.2983  0.1044  0.5105
   27MOL   H61119903   4.885   2.469   6.566 -0.2169  0.9394  1.4304
   27MOL   H61219904   5.031   2.443   6.736  0.6276  1.1745  0.4246
   27MOL   H61319905   5.168   2.453   6.638  0.7312 -3.4952  0.1461
   27MOL   H61419906   4.969   2.224   6.698 -1.2032  1.4652 -0.7836
   27MOL   H61519907   5.025   2.220   6.530  2.8054 -1.0542  0.0608
   27MOL   H61619908   5.175   2.230   6.789  0.2098 -1.1131  0.2064
   27MOL   H61719909   5.250   2.217   6.630  1.0820 -0.3513  1.0232
   27MOL   H61819910   5.144   1.992   6.597 -2.0531 -0.8518  0.3184
   27MOL   H61919911   5.051   2.014   6.738 -1.1546  1.5000 -0.2558
   27MOL   H62019912   5.240   1.870   6.807  0.8731  0.7251  1.4208
   27MOL   H62119913   5.261   2.029   6.886 -1.6015  2.4422 -0.0020
   27MOL   H62219914   5.443   2.076   6.699 -0.0843  0.2050  0.0827
   27MOL   H62319915   5.405   1.926   6.639 -0.9784 -0.4146  0.4746
   27MOL   H62419916   5.486   1.819   6.857  0.3824 -0.5848  0.1824
   27MOL   H62519917   5.495   1.981   6.936  0.3247 -0.5715  0.2784
   27MOL   H62619918   5.676   2.038   6.804 -1.4750 -0.3222 -0.1037
   27MOL   H62719919   5.646   1.908   6.696  1.0684 -0.0255  0.4081
   27MOL   H62819920   5.708   1.734   6.870 -0.7465 -0.3531 -0.0805
   27MOL   H62919921   5.763   1.848   6.980  0.6544  1.5607 -0.1705
   27MOL   H63019922   5.887   1.750   6.733  1.4000  1.7191 -1.9533
   27MOL   C63119923   5.965   1.915   6.805 -0.2138 -1.1579 -0.2622
   27MOL   O63219924   5.945   2.021   6.870 -0.1481 -0.8348  0.1382
   27MOL   C63319925   6.095   1.888   6.734  0.4080 -0.3000 -0.2646
   27MOL   C63419926   6.220   1.920   6.810 -0.1495  0.4166  0.3427
   27MOL   C63519927   6.350   1.860   6.746  0.0274 -0.6797  0.5254
   27MOL   C63619928   6.469   1.854   6.838  0.0925  0.0307 -0.5343
   27MOL   C63719929   6.606   1.822   6.769  0.0159 -0.6964 -0.1115
   27MOL   C63819930   6.730   1.830   6.863 -1.0215  0.2549 -0.6733
   27MOL   C63919931   6.734   1.704   6.957  0.3904  0.2951 -1.0114
   27MOL   C64019932   6.854   1.698   7.049  0.5386  0.8247 -0.0792
   27MOL   C64119933   6.993   1.733   6.981  0.7884 -0.0539  0.1940
   27MOL   C64219934   7.112   1.693   7.066  0.3080 -0.4310  0.6258
   27MOL   C64319935   7.113   1.800   7.175 -0.2585 -0.3157  0.8420
   27MOL   N64419936   7.240   1.793   7.240  0.9061 -0.2414 -0.1262
   27MOL   H64519937   6.079   1.940   6.640  0.0616 -1.1511 -0.6831
   27MOL   H64619938   6.097   1.782   6.708  3.7086 -0.0455 -1.2884
   27MOL   H64719939   6.214   2.027   6.827 -1.0849  0.1019  2.1304
   27MOL   H64819940   6.223   1.883   6.912  2.7124  3.9953  1.6383
   27MOL   H64919941   6.381   1.911   6.655  0.4161 -1.9224 -0.0528
   27MOL   H65019942   6.321   1.760   6.715 -1.6395  0.1560 -0.6981
   27MOL   H65119943   6.486   1.935   6.909 -1.3296 -1.3982  1.4763
   27MOL   H65219944   6.461   1.775   6.912  2.4467 -1.1780 -1.5017
   27MOL   H65319945   6.621   1.884   6.681 -0.1733 -0.2441  0.1743
   27MOL   H65419946   6.592   1.717   6.743 -0.0251 -0.7687  0.1968
   27MOL   H65519947   6.724   1.920   6.924 -0.2399  0.4394 -0.8593
   27MOL   H65619948   6.819   1.834   6.799 -0.6776  2.1267 -0.1095
   27MOL   H65719949   6.756   1.624   6.886  0.4436 -0.4824 -0.1230
   27MOL   H65819950   6.637   1.686   7.004 -0.3938 -0.2956 -2.7691
   27MOL   H65919951   6.858   1.601   7.097 -2.6352 -0.6346 -2.5605
   27MOL   H66019952   6.836   1.767   7.131  1.6676  0.2302  0.6740
   27MOL   H66119953   6.981   1.836   6.947 -1.6111 -1.0676 -2.2332
   27MOL   H66219954   7.006   1.675   6.890  0.6173  0.1068  0.0678
   27MOL   H66319955   7.211   1.686   7.021  0.9260  1.3321  1.6859
   27MOL   H66419956   7.100   1.589   7.097 -0.9620  0.0055  1.6480
   27MOL   H66519957   7.031   1.790   7.246 -0.9080 -2.3720 -0.1549
   27MOL   H66619958   7.100   1.901   7.136  1.9614  0.3911  1.8768
   27MOL   H66719959   7.243   1.727   7.317 -0.6599 -0.8602 -0.5614
   27MOL   C66819960   7.345   1.871   7.209  0.1029 -0.2259  0.7928
   27MOL   O66919961   7.342   1.954   7.124  0.3056  0.1651  0.0646
   27MOL   C67019962   7.468   1.863   7.305 -0.6124  0.5194  0.1066
   27MOL   C67119963   7.529   1.714   7.313  0.5847 -0.1688  0.1686
   27MOL   C67219964   7.548   1.652   7.452 -0.0280 -0.2281 -0.4507
   27MOL   C67319965   7.613   1.511   7.449 -1.1277 -0.2577 -0.2076
   27MOL   C67419966   7.518   1.392   7.408  0.5153 -0.1940  0.1720
   27MOL   C67519967   7.588   1.255   7.421  0.2784 -0.6173 -0.1809
   27MOL   C67619968   7.493   1.140   7.446  0.6677 -0.0437 -1.0747
   27MOL   C67719969   7.570   1.004   7.468  0.3621 -0.3735  0.0042
   27MOL   C67819970   7.579   0.963   7.617 -0.2672 -0.2085 -0.1969
   27MOL   C67919971   0.008   1.014   7.685 -0.2352  0.0370  0.0081
   27MOL   C68019972   0.021   0.953   0.131 -0.3099 -0.1205  0.2533
   27MOL   N68119973   0.133   1.008   0.208  0.4068 -0.0690  0.0153
   27MOL   H68219974   7.434   1.871   7.408 -1.1873  1.1527 -0.1295
   27MOL   H68319975   7.544   1.940   7.285 -1.0117  0.3440 -2.2478
   27MOL   H68419976   7.467   1.653   7.247 -0.7118 -0.0183  1.2313
   27MOL   H68519977   7.624   1.714   7.258 -0.9176  2.3886 -2.5602
   27MOL   H68619978   7.452   1.635   7.502  0.2483 -1.3522 -0.2823
   27MOL   H68719979   7.597   1.729   7.511  0.0090 -0.2022 -0.5148
   27MOL   H68819980   0.015   1.513   7.396 -1.0803 -0.7950 -0.1377
   27MOL   H68919981   7.632   1.501   7.556  0.1758 -2.2719 -0.5967
   27MOL   H69019982   7.489   1.409   7.304 -2.9726  0.0147  1.1185
   27MOL   H69119983   7.423   1.402   7.460  0.1345 -1.4665 -0.2591
   27MOL   H69219984   7.645   1.262   7.514  0.7088 -1.0442 -0.4079
   27MOL   H69319985   7.656   1.227   7.341  0.7318  0.6242 -0.2497
   27MOL   H69419986   7.434   1.130   7.355  0.3629 -0.8927 -0.7869
   27MOL   H69519987   7.416   1.155   7.521  1.0661 -2.6668 -0.0845
   27MOL   H69619988   7.664   1.001   7.412 -0.2182  0.6937 -1.0616
   27MOL   H69719989   7.503   0.933   7.420 -0.9465  0.0297  1.2071
   27MOL   H69819990   7.575   0.854   7.606  2.3751 -0.3367 -0.2834
   27MOL   H69919991   7.496   1.002   7.676 -0.5389 -2.5610  1.0740
   27MOL   H70019992   0.012   1.122   0.003  2.0382  0.0319 -0.4075
   27MOL   H70119993   0.096   0.986   7.628 -0.4090 -2.1425  0.7685
   27MOL   H70219994   0.031   0.844   0.137 -3.4486 -0.5078 -0.2466
   27MOL   H70319995   7.634   0.992   0.193 -1.1815  0.2921 -1.1191
   27MOL   H70419996   0.119   1.104   0.235 -0.7779 -0.2632  0.1226
   27MOL   C70519997   0.250   0.949   0.241  0.5635 -0.0726  0.7392
   27MOL   O70619998   0.267   0.824   0.228 -0.1817 -0.4432  0.5679
   27MOL   C70719999   0.357   1.038   0.303 -0.1571  0.2630  0.6057
   27MOL   C70820000   0.500   1.005   0.264 -0.0935  0.3101  0.3401
   27MOL   C70920001   0.603   1.100   0.330  0.8086  1.0447 -0.4329
   27MOL   C71020002   0.743   1.086   0.268  0.3236  0.1221  0.1518
   27MOL   C71120003   0.860   1.128   0.355 -0.0657 -0.6928 -0.7427
   27MOL   C71220004   1.000   1.087   0.298  1.1746  0.2656 -0.3791
   27MOL   C71320005   1.122   1.086   0.390  0.6637 -0.3010 -0.1541
   27MOL   C71420006   1.255   1.043   0.327 -0.2047 -0.6470  0.4894
   27MOL   C71520007   1.378   1.047   0.421  0.8701 -0.5284  0.2929
   27MOL   C71620008   1.437   1.190   0.426 -0.0303 -0.0695  0.9646
   27MOL   C71720009   1.578   1.182   0.475 -0.1587 -0.0640  0.3508
   27MOL   N71820010   1.626   1.314   0.489  0.0771 -0.4271 -0.6723
   27MOL   H71920011   0.343   1.002   0.405 -2.4299 -0.4716  0.0591
   27MOL   H72020012   0.333   1.144   0.291 -3.1744 -0.2849  1.3488
   27MOL   H72120013   0.516   0.899   0.282 -3.7178 -0.6205 -1.4821
   27MOL   H72220014   0.506   1.015   0.156  1.5084 -1.7057  0.2130
   27MOL   H72320015   0.610   1.065   0.433 -0.6828  0.9496 -0.3561
   27MOL   H72420016   0.569   1.203   0.334 -1.3792  0.3005  0.8760
   27MOL   H72520017   0.762   0.984   0.237 -2.5521 -0.0542 -1.2854
   27MOL   H72620018   0.750   1.140   0.173  0.9085  1.2192  0.8143
   27MOL   H72720019   0.843   1.070   0.446 -3.3547 -0.4391 -1.1273
   27MOL   H72820020   0.848   1.234   0.377 -1.2817 -0.7731 -0.9722
   27MOL   H72920021   1.024   1.159   0.220  4.3632 -1.3839 -1.0044
   27MOL   H73020022   0.980   0.990   0.252  0.1669 -0.9070  2.4303
   27MOL   H73120023   1.096   1.021   0.474 -0.9380  0.1279 -0.3029
   27MOL   H73220024   1.132   1.180   0.445 -2.9316 -0.6366  1.2493
   27MOL   H73320025   1.288   1.098   0.239  0.0117  2.0431  2.2084
   27MOL   H73420026   1.248   0.940   0.290 -1.7078  0.0164 -1.1341
   27MOL   H73520027   1.442   0.970   0.377  0.1120 -0.7178 -0.4828
   27MOL   H73620028   1.369   1.014   0.525  0.9544  3.7111  1.7344
   27MOL   H73720029   1.380   1.251   0.496 -0.1536 -2.4317  2.9700
   27MOL   H73820030   1.433   1.247   0.333 -0.8511 -0.9345  0.4661
   27MOL   H73920031   1.645   1.135   0.403  1.6856 -0.1008  2.0740
   27MOL   H74020032   1.582   1.121   0.565  0.1027  1.2738  1.2440
   27MOL   H74120033   1.621   1.356   0.581 -1.8534 -0.3472 -0.7898
   27MOL   H74220034   1.726   1.313   0.474  0.1098  0.2768 -0.5161
   28MOL     C120035   4.099   0.949   2.179 -0.4102  0.0999  0.5467
   28MOL     O220036   4.030   1.028   2.116  0.0297  0.2553  0.1823
   28MOL     C320037   4.218   0.998   2.264 -0.1165 -0.3938  0.0534
   28MOL     C420038   4.189   1.027   2.415 -0.3840  0.0930  0.7526
   28MOL     C520039   4.071   1.127   2.437 -0.6504  0.4605 -0.2500
   28MOL     C620040   4.041   1.153   2.584 -0.2766 -0.0464  0.1690
   28MOL     C720041   3.933   1.251   2.611  0.2893 -0.1459 -0.0319
   28MOL     C820042   3.888   1.229   2.760  0.8411  0.9160  0.0263
   28MOL     C920043   3.787   1.343   2.808  0.6142 -0.1382  0.7575
   28MOL    C1020044   3.734   1.299   2.942 -0.4983 -0.4093 -0.5418
   28MOL    C1120045   3.838   1.322   3.051 -0.3598  0.0457  0.1134
   28MOL    C1220046   3.767   1.284   3.179 -0.4438 -0.3581 -0.3575
   28MOL    C1320047   3.849   1.328   3.303  0.1455 -0.2773  0.1203
   28MOL    N1420048   3.861   1.472   3.324  0.2384  0.0829  0.1304
   28MOL    H1520049   4.259   1.091   2.223 -1.3461  0.9211  1.7474
   28MOL    H1620050   4.301   0.929   2.252  1.2195  1.5267 -2.3024
   28MOL    H1720051   4.150   0.934   2.459 -0.7271  0.2931  0.8784
   28MOL    H1820052   4.270   1.060   2.480 -0.3863  0.2576  0.6689
   28MOL    H1920053   3.979   1.088   2.394 -0.7834 -0.3752  0.7546
   28MOL    H2020054   4.093   1.224   2.391  0.9644  0.1186 -0.2283
   28MOL    H2120055   4.031   1.059   2.638 -0.0529 -0.6289 -0.7827
   28MOL    H2220056   4.125   1.203   2.632 -1.1614  0.2927  1.3854
   28MOL    H2320057   3.852   1.243   2.539 -1.0372  1.8122  1.2228
   28MOL    H2420058   3.972   1.353   2.609 -3.8696  1.5218 -1.3856
   28MOL    H2520059   3.975   1.238   2.825  0.5261 -2.0225  0.9137
   28MOL    H2620060   3.845   1.130   2.772 -0.5989  1.7028  1.5771
   28MOL    H2720061   3.707   1.359   2.736  1.7270  1.3250 -0.1938
   28MOL    H2820062   3.834   1.440   2.823  1.7787 -0.7180  0.9073
   28MOL    H2920063   3.713   1.192   2.949  1.0746 -0.7852 -1.3639
   28MOL    H3020064   3.640   1.354   2.953 -0.6498 -0.7026 -0.3787
   28MOL    H3120065   3.865   1.427   3.053  2.5592 -0.6484  2.7149
   28MOL    H3220066   3.928   1.262   3.034  1.6617  3.0389 -0.0325
   28MOL    H3320067   3.757   1.176   3.178  1.9986 -0.6320  0.3847
   28MOL    H3420068   3.667   1.328   3.178 -0.4202 -0.3207 -1.2613
   28MOL    H3520069   3.945   1.277   3.292  0.1465 -0.4254  0.7951
   28MOL    H3620070   3.806   1.293   3.397  0.8190  2.3491  1.4568
   28MOL    H3720071   3.949   1.512   3.296 -0.3480  2.0202  0.9528
   28MOL    H3820072   4.079   0.842   2.185 -1.5726  0.2930  0.2763
   28MOL    C3920073   3.771   1.555   3.387 -0.9110 -0.1354 -0.3718
   28MOL    O4020074   3.666   1.506   3.424  0.7183 -0.1306  0.0986
   28MOL    C4120075   3.789   1.699   3.398  0.0431 -0.3533  0.3299
   28MOL    C4220076   3.715   1.762   3.514  1.1419 -0.4246  0.2472
   28MOL    C4320077   3.758   1.911   3.528 -0.4615  0.7179 -0.0310
   28MOL    C4420078   3.688   1.994   3.646  0.4818 -0.5782  0.0877
   28MOL    C4520079   3.752   1.986   3.787  0.6605 -0.0327 -0.0634
   28MOL    C4620080   3.701   2.087   3.882 -0.0062 -0.5216 -0.3474
   28MOL    C4720081   3.571   2.047   3.954  0.3419  0.0834  0.2318
   28MOL    C4820082   3.533   2.156   4.063  0.2490  0.3054  0.5552
   28MOL    C4920083   3.431   2.101   4.162  0.2943 -0.2821 -0.2401
   28MOL    C5020084   3.393   2.201   4.265 -0.2155  0.3536  0.3490
   28MOL    C5120085   3.283   2.152   4.361  0.4853 -0.3805 -0.0460
   28MOL    N5220086   3.155   2.165   4.296  0.7803 -0.0642  0.5320
   28MOL    H5320087   3.769   1.748   3.303  0.1730 -3.4401 -1.3505
   28MOL    H5420088   3.895   1.721   3.414 -0.1453  0.4585  0.4618
   28MOL    H5520089   3.608   1.756   3.495  1.3829 -1.6740 -0.7821
   28MOL    H5620090   3.743   1.708   3.604  0.0996  1.2867  1.6220
   28MOL    H5720091   3.756   1.964   3.433 -0.8136 -0.3527 -0.6330
   28MOL    H5820092   3.865   1.912   3.548 -0.3206  2.0324 -0.7888
   28MOL    H5920093   3.687   2.094   3.603  0.9487 -0.1068  1.1577
   28MOL    H6020094   3.585   1.958   3.649  0.6865 -1.4722 -2.6822
   28MOL    H6120095   3.857   2.005   3.765 -0.1159  3.0457 -1.4111
   28MOL    H6220096   3.748   1.880   3.812  0.3321 -0.0945 -0.3846
   28MOL    H6320097   3.691   2.188   3.840 -1.7829 -0.4368  0.2788
   28MOL    H6420098   3.776   2.107   3.959 -1.9487  0.6553  1.2740
   28MOL    H6520099   3.578   1.945   3.992  1.5101 -0.3248 -1.0341
   28MOL    H6620100   3.496   2.049   3.875 -0.6862 -0.5237  1.1773
   28MOL    H6720101   3.506   2.240   3.999  0.3152 -0.4065 -0.4195
   28MOL    H6820102   3.618   2.210   4.104  0.9336 -1.0612  0.9853
   28MOL    H6920103   3.471   2.016   4.218  2.9852  0.5236 -0.8566
   28MOL    H7020104   3.340   2.070   4.111 -1.4747  3.6417  0.3000
   28MOL    H7120105   3.360   2.292   4.215  0.2896  0.9465  1.0679
   28MOL    H7220106   3.487   2.218   4.319  1.1667 -4.0496 -0.5197
   28MOL    H7320107   3.297   2.206   4.455 -1.5249 -1.1870  0.7466
   28MOL    H7420108   3.289   2.046   4.386 -2.7495 -0.2387  1.5997
   28MOL    H7520109   3.146   2.130   4.201 -0.1460 -0.4942  0.7750
   28MOL    C7620110   3.037   2.215   4.349  0.7176 -0.0382  0.4244
   28MOL    O7720111   3.029   2.252   4.467 -0.0203 -0.2853 -0.0948
   28MOL    C7820112   2.911   2.195   4.257  0.4239 -0.5177 -0.1460
   28MOL    C7920113   2.830   2.317   4.229  0.1750 -0.3892  0.0528
   28MOL    C8020114   2.886   2.402   4.114 -0.3995  0.7275 -0.1627
   28MOL    C8120115   2.856   2.551   4.136 -0.0438  0.3611  0.4947
   28MOL    C8220116   2.889   2.639   4.017  0.0160 -0.1636 -0.8449
   28MOL    C8320117   2.803   2.772   4.021  0.4451  0.0223  0.1248
   28MOL    C8420118   2.804   2.843   3.890  0.8656 -0.0558  0.4114
   28MOL    C8520119   2.730   2.984   3.893 -0.8341 -0.1786 -0.0754
   28MOL    C8620120   2.688   3.034   3.753 -0.5481  0.5873  0.5943
   28MOL    C8720121   2.804   3.041   3.650 -0.2632 -0.0586  0.1016
   28MOL    C8820122   2.752   3.054   3.508 -0.3574 -0.3018 -0.4805
   28MOL    N8920123   2.864   3.025   3.414 -0.3673  0.5115 -0.1267
   28MOL    H9020124   2.845   2.135   4.320  0.7999  1.0124  1.7324
   28MOL    H9120125   2.927   2.138   4.165  0.3259 -0.7422 -0.0248
   28MOL    H9220126   2.722   2.304   4.221 -0.0015  0.9708  0.0553
   28MOL    H9320127   2.834   2.381   4.318 -0.1199 -0.5035  0.1508
   28MOL    H9420128   2.853   2.358   4.020 -1.8760  0.7954  0.3080
   28MOL    H9520129   2.994   2.397   4.121 -0.2024 -0.6488 -3.3601
   28MOL    H9620130   2.747   2.558   4.141 -0.0272  1.8408 -0.8587
   28MOL    H9720131   2.901   2.580   4.231  0.3013 -1.1619  0.8021
   28MOL    H9820132   2.865   2.590   3.922  0.2008 -0.6522 -0.6381
   28MOL    H9920133   2.995   2.665   4.013 -0.2345  1.0042  0.2036
   28MOL   H10020134   2.842   2.839   4.098 -2.4048  0.1855  1.5137
   28MOL   H10120135   2.699   2.751   4.049  1.2113 -2.2303  1.4117
   28MOL   H10220136   2.753   2.778   3.819 -0.6511 -0.3767  1.7693
   28MOL   H10320137   2.907   2.858   3.856  0.6232 -0.3444 -0.4723
   28MOL   H10420138   2.792   3.056   3.947  0.9981 -0.0437 -2.2713
   28MOL   H10520139   2.637   2.977   3.949 -1.8445 -0.9736 -1.7910
   28MOL   H10620140   2.658   3.138   3.765 -1.0258  0.3823  1.2600
   28MOL   H10720141   2.606   2.973   3.714 -0.5684  0.5601  0.6787
   28MOL   H10820142   2.866   2.952   3.660  0.6760  0.6553  0.8204
   28MOL   H10920143   2.862   3.131   3.669 -1.0616  0.5566 -0.3615
   28MOL   H11020144   2.714   3.156   3.498 -0.2850 -0.3009 -0.7514
   28MOL   H11120145   2.672   2.982   3.491  0.7487 -1.8240  0.6934
   28MOL   H11220146   2.958   3.043   3.446 -0.1782 -2.0879  0.9138
   28MOL   C11320147   2.853   3.009   3.278 -0.2150  0.0481 -0.0600
   28MOL   O11420148   2.751   2.971   3.222  0.0772 -0.7171  0.3483
   28MOL   C11520149   2.986   3.025   3.198  0.1401  0.4123 -0.1388
   28MOL   C11620150   2.987   3.135   3.098  0.3457  0.1630 -0.0754
   28MOL   C11720151   3.045   3.268   3.135  0.4754 -0.0516 -0.0490
   28MOL   C11820152   3.017   3.381   3.033 -0.3359 -0.1676 -0.6029
   28MOL   C11920153   2.899   3.475   3.066 -0.2717 -0.6648  0.2554
   28MOL   C12020154   2.782   3.452   2.981 -0.0390  0.3353 -0.0992
   28MOL   C12120155   2.657   3.529   3.036  0.4293  0.3154 -0.1161
   28MOL   C12220156   2.600   3.482   3.170  0.0311  0.1902  0.2570
   28MOL   C12320157   2.542   3.335   3.169 -0.0400 -0.0273 -0.1509
   28MOL   C12420158   2.512   3.305   3.318 -0.5256 -0.4963 -0.4176
   28MOL   C12520159   2.444   3.167   3.335  0.2666 -0.1532  1.4239
   28MOL   N12620160   2.408   3.167   3.473  0.0168  0.5936  0.1952
   28MOL   H12720161   2.970   2.934   3.140 -0.5385 -0.0305  0.7298
   28MOL   H12820162   3.080   3.013   3.252 -0.3147 -0.2826  0.5029
   28MOL   H12920163   3.038   3.088   3.014  3.0174 -0.5376  1.8877
   28MOL   H13020164   2.884   3.152   3.065 -0.3430 -1.5228  1.1267
   28MOL   H13120165   3.152   3.253   3.126  0.5548  1.2371 -1.4929
   28MOL   H13220166   3.016   3.295   3.236 -0.4380 -1.5848  0.1124
   28MOL   H13320167   3.101   3.448   3.053 -0.7231 -0.8603  3.9168
   28MOL   H13420168   3.030   3.356   2.927 -0.1115 -0.3305 -0.5373
   28MOL   H13520169   2.927   3.579   3.051 -1.5113 -0.3334  0.1746
   28MOL   H13620170   2.869   3.459   3.170 -0.0208  0.9964  0.6032
   28MOL   H13720171   2.760   3.345   2.980  0.6775  0.1766  0.8633
   28MOL   H13820172   2.817   3.480   2.882  1.8053  1.4472  0.8459
   28MOL   H13920173   2.575   3.533   2.964  0.3014  1.1940  0.0670
   28MOL   H14020174   2.694   3.632   3.043  1.9376 -0.1265 -1.1787
   28MOL   H14120175   2.520   3.549   3.201 -0.5873 -0.4245  0.0239
   28MOL   H14220176   2.680   3.497   3.243 -1.2821  0.2061  1.7389
   28MOL   H14320177   2.606   3.257   3.128  0.9582  1.7334 -2.0809
   28MOL   H14420178   2.455   3.338   3.103  0.0883  1.5080 -0.2644
   28MOL   H14520179   2.449   3.388   3.351  0.9153 -0.2203  1.8063
   28MOL   H14620180   2.611   3.308   3.365 -1.4499 -0.5188  1.5945
   28MOL   H14720181   2.514   3.090   3.303  0.1468  0.9415 -1.6241
   28MOL   H14820182   2.363   3.165   3.262  1.0934  0.9634  0.4580
   28MOL   H14920183   2.432   3.249   3.526 -2.4318  2.1867 -1.0437
   28MOL   C15020184   2.364   3.054   3.538 -0.2535 -0.0381  0.6579
   28MOL   O15120185   2.356   2.947   3.476  0.6047 -0.4797 -0.0357
   28MOL   C15220186   2.331   3.061   3.691  0.6230 -0.0032  0.8885
   28MOL   C15320187   2.190   3.022   3.721  0.5613 -0.3283  0.0336
   28MOL   C15420188   2.168   2.877   3.762 -0.1188  0.3348  0.0806
   28MOL   C15520189   2.033   2.834   3.817 -0.1642  0.6447 -0.1246
   28MOL   C15620190   2.035   2.682   3.840 -0.8515  0.4414 -0.5789
   28MOL   C15720191   1.900   2.627   3.893  0.7304  0.1300 -0.0567
   28MOL   C15820192   1.897   2.469   3.919 -0.1656 -0.5078 -0.1129
   28MOL   C15920193   2.009   2.415   4.012 -0.7913  0.1056  0.6614
   28MOL   C16020194   1.966   2.276   4.050 -0.3087  0.9860 -0.1857
   28MOL   C16120195   2.051   2.224   4.163 -0.5260  0.2275  0.1052
   28MOL   C16220196   2.007   2.080   4.191 -0.5451  0.0711  0.6218
   28MOL   N16320197   2.072   2.025   4.304  0.1675 -0.1172  0.8596
   28MOL   H16420198   2.358   3.157   3.736  1.2133 -1.1109  2.9473
   28MOL   H16520199   2.393   2.985   3.739  0.0740 -0.6773  0.5449
   28MOL   H16620200   2.160   3.087   3.803  2.2696 -1.8585  1.9195
   28MOL   H16720201   2.134   3.038   3.629 -0.3172  1.6003  0.8675
   28MOL   H16820202   2.245   2.851   3.834  1.2669  1.4844 -0.9549
   28MOL   H16920203   2.199   2.813   3.680  3.2641 -0.8669  2.2048
   28MOL   H17020204   2.001   2.899   3.898 -0.0206 -0.0359  0.4754
   28MOL   H17120205   1.962   2.857   3.738 -2.3700 -0.5696  1.4856
   28MOL   H17220206   2.116   2.659   3.908  0.2036  1.1866 -1.5686
   28MOL   H17320207   2.058   2.623   3.751  1.1009  1.4000 -0.7271
   28MOL   H17420208   1.823   2.647   3.819 -1.8432 -2.1465  1.9470
   28MOL   H17520209   1.867   2.690   3.976 -0.7513  1.5586 -1.6876
   28MOL   H17620210   1.903   2.420   3.822 -2.0378  1.2531 -1.1599
   28MOL   H17720211   1.794   2.453   3.952  0.0199  0.5452  1.0307
   28MOL   H17820212   2.009   2.472   4.106 -2.5453 -0.0348  0.7654
   28MOL   H17920213   2.106   2.435   3.968 -0.3745  0.1309  1.5678
   28MOL   H18020214   1.973   2.211   3.962  2.7607  0.3177  0.4830
   28MOL   H18120215   1.862   2.279   4.082 -0.8718  0.0435 -1.8511
   28MOL   H18220216   2.048   2.281   4.255 -2.0293  1.3356 -0.6077
   28MOL   H18320217   2.154   2.228   4.127 -0.1095 -1.5648  1.0329
   28MOL   H18420218   2.030   2.023   4.101 -0.4854  0.8760  0.1245
   28MOL   H18520219   1.901   2.068   4.213 -0.6396 -0.2862 -0.0220
   28MOL   H18620220   2.049   2.070   4.392 -0.8706  0.5851  0.2332
   28MOL   C18720221   2.140   1.909   4.292  0.0899 -0.6569  0.7214
   28MOL   O18820222   2.161   1.846   4.188 -0.7004 -0.2361  0.4866
   28MOL   C18920223   2.170   1.839   4.426 -1.0104  0.0556 -0.7889
   28MOL   C19020224   2.267   1.727   4.404 -0.7231  0.4453  0.1384
   28MOL   C19120225   2.202   1.592   4.361 -0.3396  0.0963 -0.3924
   28MOL   C19220226   2.256   1.468   4.425  0.0197 -0.0922  0.0775
   28MOL   C19320227   2.186   1.336   4.377  0.5820  0.5344 -0.4863
   28MOL   C19420228   2.221   1.209   4.453 -0.1935  0.1942 -0.4084
   28MOL   C19520229   2.131   1.094   4.415  0.2186 -0.7654 -0.5140
   28MOL   C19620230   2.135   0.965   4.502 -0.0291 -0.4275  0.2863
   28MOL   C19720231   2.065   0.980   4.642  0.0838 -0.3750 -0.4950
   28MOL   C19820232   2.067   0.857   4.732  0.7124 -0.4695 -0.8156
   28MOL   C19920233   2.047   0.892   4.876 -0.2678 -0.0884 -0.2262
   28MOL   N20020234   2.071   0.778   4.964 -0.0132  0.4098  0.2841
   28MOL   H20120235   2.079   1.809   4.478  0.1412 -1.4990  0.3883
   28MOL   H20220236   2.204   1.910   4.501  1.8757 -0.2595 -1.7327
   28MOL   H20320237   2.347   1.753   4.335  1.5111 -0.1423  2.4546
   28MOL   H20420238   2.319   1.718   4.499  0.4368 -0.7676 -0.5909
   28MOL   H20520239   2.199   1.579   4.253  0.1417 -1.7279 -0.2076
   28MOL   H20620240   2.096   1.602   4.387  0.0526  0.1645  1.2415
   28MOL   H20720241   2.361   1.458   4.399  0.5272  3.8789  0.3840
   28MOL   H20820242   2.237   1.463   4.532  0.4526 -1.5050  0.1005
   28MOL   H20920243   2.194   1.321   4.269  0.7613  1.5772 -0.6204
   28MOL   H21020244   2.082   1.363   4.394  0.5599  0.1180  0.0590
   28MOL   H21120245   2.214   1.218   4.562  0.7548  1.0730 -0.4154
   28MOL   H21220246   2.325   1.187   4.431 -0.0926  0.2745 -0.0139
   28MOL   H21320247   2.160   1.066   4.314  0.7991 -0.0224 -0.5590
   28MOL   H21420248   2.029   1.131   4.413 -0.0963 -1.6368 -0.8819
   28MOL   H21520249   2.239   0.939   4.522 -0.5272 -2.0606  0.8759
   28MOL   H21620250   2.082   0.880   4.459 -0.3871 -0.3995  0.6670
   28MOL   H21720251   1.961   1.010   4.637  0.7940  2.0047 -2.0155
   28MOL   H21820252   2.133   1.047   4.694 -1.0908 -0.4073  1.1170
   28MOL   H21920253   2.166   0.812   4.731  1.4165  0.9084  1.9260
   28MOL   H22020254   1.987   0.788   4.703 -2.1075  0.5621  4.0758
   28MOL   H22120255   1.946   0.928   4.892 -0.2723 -0.1107 -0.2062
   28MOL   H22220256   2.118   0.971   4.902 -0.4021 -0.2524  0.6205
   28MOL   H22320257   2.150   0.720   4.938  0.2768  1.0920 -0.3985
   28MOL   C22420258   2.029   0.757   5.088  0.1538  0.5693  0.0916
   28MOL   O22520259   2.075   0.665   5.159  0.4913  0.6292 -0.1887
   28MOL   C22620260   1.915   0.847   5.137 -0.1561 -0.3381 -0.4831
   28MOL   C22720261   1.894   0.841   5.287  0.4843  0.0985  1.2779
   28MOL   C22820262   1.769   0.913   5.335 -0.2309 -0.4163 -0.1778
   28MOL   C22920263   1.784   1.065   5.328  0.1680  0.6040  0.1986
   28MOL   C23020264   1.663   1.137   5.388 -0.4417  0.4420 -0.1377
   28MOL   C23120265   1.696   1.283   5.415  0.0638 -0.2728  0.0500
   28MOL   C23220266   1.575   1.356   5.472 -0.0534 -0.3860 -0.3507
   28MOL   C23320267   1.616   1.494   5.515  0.7762 -0.7657  0.4803
   28MOL   C23420268   1.517   1.571   5.603  0.6826 -0.2037  0.1512
   28MOL   C23520269   1.381   1.594   5.535  0.5584  0.2642  0.1161
   28MOL   C23620270   1.297   1.701   5.616 -0.1187  0.2694  0.6416
   28MOL   N23720271   1.178   1.743   5.537  0.1411 -0.8125  0.0669
   28MOL   H23820272   1.821   0.817   5.090 -2.0487  0.0609  2.8454
   28MOL   H23920273   1.936   0.951   5.113  1.2918 -0.2381  1.1424
   28MOL   H24020274   1.880   0.733   5.295 -0.7192 -0.0051 -1.5171
   28MOL   H24120275   1.987   0.859   5.341  0.0129  2.5598  1.2835
   28MOL   H24220276   1.760   0.887   5.441 -2.0269  0.0881 -0.1964
   28MOL   H24320277   1.679   0.879   5.284  1.1659 -1.7731 -1.8160
   28MOL   H24420278   1.873   1.088   5.387 -0.6968  1.0415  1.3587
   28MOL   H24520279   1.818   1.085   5.227  1.3054 -1.2560  0.1828
   28MOL   H24620280   1.655   1.093   5.487  1.5839  0.2728 -0.0298
   28MOL   H24720281   1.574   1.122   5.327  0.3774  0.7248 -1.4373
   28MOL   H24820282   1.718   1.340   5.325  1.1568 -0.7459  0.0179
   28MOL   H24920283   1.781   1.291   5.483 -0.4647 -0.1059  0.6925
   28MOL   H25020284   1.538   1.303   5.560 -0.1314  0.4534  0.1284
   28MOL   H25120285   1.485   1.350   5.410 -0.9132  2.0496  0.5958
   28MOL   H25220286   1.637   1.554   5.427  1.8670 -1.0929  0.5160
   28MOL   H25320287   1.710   1.481   5.568  0.8758 -1.2373  0.1904
   28MOL   H25420288   1.549   1.669   5.639 -1.4214  0.6988 -0.3580
   28MOL   H25520289   1.513   1.536   5.706  1.3559 -1.4590 -0.2455
   28MOL   H25620290   1.327   1.499   5.539  0.8704  0.0679 -0.2390
   28MOL   H25720291   1.394   1.615   5.429  0.6629 -0.3352  0.0073
   28MOL   H25820292   1.349   1.793   5.640  2.2716 -0.7343 -0.5552
   28MOL   H25920293   1.261   1.659   5.710  0.4478 -0.2908  0.6116
   28MOL   H26020294   1.090   1.696   5.550  0.3762 -1.0275  0.9283
   28MOL   C26120295   1.167   1.856   5.471  0.0499 -0.3685 -0.1386
   28MOL   O26220296   1.263   1.933   5.468 -0.2291  0.1371  1.0092
   28MOL   C26320297   1.034   1.885   5.400 -0.2234 -0.1683  1.4568
   28MOL   C26420298   1.043   1.838   5.255 -0.0513 -0.4154 -0.5687
   28MOL   C26520299   1.014   1.683   5.236  0.0197 -0.0487 -0.6453
   28MOL   C26620300   1.044   1.628   5.100  0.0602 -0.5164  0.3871
   28MOL   C26720301   1.049   1.475   5.093  0.2529 -0.0829  0.7180
   28MOL   C26820302   1.063   1.431   4.935 -0.4173  0.9170  0.6311
   28MOL   C26920303   0.934   1.441   4.843 -0.3673 -0.3694  0.3177
   28MOL   C27020304   0.841   1.321   4.828 -0.7732 -0.3984  0.0575
   28MOL   C27120305   0.768   1.283   4.962 -0.1133  0.0530  0.3146
   28MOL   C27220306   0.660   1.390   5.018  0.0176 -0.0935  0.4405
   28MOL   C27320307   0.569   1.345   5.136 -0.0756 -0.3734  0.8223
   28MOL   N27420308   0.502   1.458   5.198 -0.4215 -0.3087  0.6167
   28MOL   H27520309   1.037   1.994   5.398 -2.2089 -0.0984  1.2947
   28MOL   H27620310   0.950   1.842   5.455 -1.1027 -0.1299  0.1639
   28MOL   H27720311   0.974   1.897   5.194 -0.3765 -1.4334 -1.2101
   28MOL   H27820312   1.141   1.858   5.211  0.2856 -0.8981 -0.0450
   28MOL   H27920313   0.917   1.651   5.274  1.0095 -2.2959  0.0623
   28MOL   H28020314   1.090   1.635   5.298  1.4381 -0.0384 -2.3289
   28MOL   H28120315   0.957   1.657   5.040 -0.1470 -4.6732 -1.5403
   28MOL   H28220316   1.129   1.676   5.053  0.7399 -1.0363  1.0765
   28MOL   H28320317   0.962   1.435   5.144  0.4309 -0.5806  0.6268
   28MOL   H28420318   1.147   1.455   5.137  0.7675 -1.1289 -0.8489
   28MOL   H28520319   1.093   1.326   4.934  0.2241  1.1062 -1.5062
   28MOL   H28620320   1.137   1.493   4.883 -0.3332  0.5192  0.2750
   28MOL   H28720321   0.973   1.448   4.742 -1.7120  1.5738 -0.1032
   28MOL   H28820322   0.877   1.533   4.857 -1.6901 -0.7614 -2.3155
   28MOL   H28920323   0.900   1.240   4.785  0.4139  0.5200 -0.0672
   28MOL   H29020324   0.763   1.343   4.756 -0.7911 -2.2414 -0.5075
   28MOL   H29120325   0.838   1.259   5.043  2.7142 -0.0232 -2.0861
   28MOL   H29220326   0.723   1.185   4.951 -0.5923  0.2891  0.1335
   28MOL   H29320327   0.597   1.421   4.935  0.0682 -0.2273  0.3530
   28MOL   H29420328   0.721   1.480   5.032 -0.6141  0.4891 -0.5232
   28MOL   H29520329   0.627   1.301   5.217  0.0007  3.2801  2.8390
   28MOL   H29620330   0.496   1.268   5.109  1.3834 -1.4761 -0.0133
   28MOL   H29720331   0.544   1.494   5.283 -0.9226 -0.1755  0.8073
   28MOL   C29820332   0.383   1.509   5.175  0.2523  0.3440 -0.6260
   28MOL   O29920333   0.310   1.471   5.082  0.3906  0.0446 -0.2291
   28MOL   C30020334   0.329   1.619   5.278 -0.2930  1.0543  0.4223
   28MOL   C30120335   0.315   1.754   5.216  0.7909  0.1004 -0.0740
   28MOL   C30220336   0.206   1.778   5.112 -0.0749  0.5646 -0.6737
   28MOL   C30320337   0.179   1.922   5.071  0.3018  0.5051  0.5511
   28MOL   C30420338   0.294   2.009   5.022  0.5610 -1.1430 -0.2673
   28MOL   C30520339   0.251   2.153   4.983 -0.0604  0.1384 -0.6487
   28MOL   C30620340   0.360   2.236   4.914  0.1461 -0.3643 -0.3047
   28MOL   C30720341   0.302   2.370   4.870 -0.7677  0.8414 -0.2658
   28MOL   C30820342   0.392   2.454   4.774 -0.6470  0.4910 -0.0976
   28MOL   C30920343   0.328   2.582   4.726 -0.2461  0.4965  0.5872
   28MOL   C31020344   0.420   2.684   4.656 -0.2517  0.6020  0.0091
   28MOL   N31120345   0.337   2.795   4.616 -0.6272  0.7251 -0.9695
   28MOL   H31220346   0.394   1.630   5.365 -0.4964 -0.3471  0.7596
   28MOL   H31320347   0.230   1.593   5.314 -1.2245  4.5177  0.5550
   28MOL   H31420348   0.296   1.824   5.297 -1.1845 -0.2406 -0.2202
   28MOL   H31520349   0.404   1.798   5.171 -0.5589  0.4437 -2.4566
   28MOL   H31620350   0.113   1.732   5.145  0.4886  0.6086  0.9950
   28MOL   H31720351   0.251   1.721   5.030  2.0399 -0.1012  0.9170
   28MOL   H31820352   0.103   1.930   4.992  0.4423 -0.4834  0.3070
   28MOL   H31920353   0.121   1.973   5.148 -1.1299 -0.8241  0.4015
   28MOL   H32020354   0.340   1.967   4.932  1.4659  0.1439 -0.4224
   28MOL   H32120355   0.380   2.009   5.088 -0.8814  1.7223  1.7153
   28MOL   H32220356   0.222   2.208   5.072 -0.6603  0.5165 -1.0719
   28MOL   H32320357   0.160   2.148   4.923 -1.0161  1.4350  0.6550
   28MOL   H32420358   0.395   2.182   4.827 -0.2134 -1.8800  0.4726
   28MOL   H32520359   0.445   2.253   4.980  0.8500  2.1722 -1.8197
   28MOL   H32620360   0.260   2.429   4.952 -2.4672 -0.2459 -0.3386
   28MOL   H32720361   0.212   2.350   4.813  0.9708 -3.5218 -1.6737
   28MOL   H32820362   0.436   2.388   4.698 -0.7423 -0.5093  0.7059
   28MOL   H32920363   0.477   2.485   4.835 -1.2583  1.7500  0.1209
   28MOL   H33020364   0.296   2.628   4.820  1.3305 -0.0571  1.4101
   28MOL   H33120365   0.237   2.562   4.670  0.7093  0.3096 -0.9229
   28MOL   H33220366   0.471   2.640   4.570 -1.3572 -4.2036  1.6488
   28MOL   H33320367   0.503   2.717   4.719  0.3966  0.1825 -0.6144
   28MOL   H33420368   0.339   2.885   4.663 -0.3521  1.5641 -2.5750
   28MOL   C33520369   0.243   2.809   4.518 -0.1746 -0.4089 -0.5096
   28MOL   O33620370   0.200   2.723   4.444 -0.3000  0.2055 -0.7553
   28MOL   C33720371   0.200   2.951   4.483 -0.0597 -0.1087  0.6756
   28MOL   C33820372   0.060   2.958   4.415  0.1346 -0.0517 -0.1107
   28MOL   C33920373   7.631   2.925   4.501 -0.1373 -0.8646  0.3610
   28MOL   C34020374   7.494   2.931   4.434  0.4790 -0.3880  0.2193
   28MOL   C34120375   7.379   2.885   4.521  0.5839  0.1166 -0.3331
   28MOL   C34220376   7.339   2.978   4.634 -0.1449 -0.1220  0.1374
   28MOL   C34320377   7.224   2.922   4.715 -0.3001  0.1228  0.4239
   28MOL   C34420378   7.147   3.028   4.812 -1.0474 -0.3810  0.4251
   28MOL   C34520379   7.049   3.121   4.738 -0.8437 -0.3395 -0.2866
   28MOL   C34620380   6.991   3.227   4.828  0.9026  0.0649  0.3320
   28MOL   C34720381   6.874   3.313   4.769  0.4419  0.1832 -1.1220
   28MOL   N34820382   6.810   3.259   4.652 -0.1245  0.7145  0.5331
   28MOL   H34920383   0.269   2.993   4.411 -1.4631  3.3003  1.2374
   28MOL   H35020384   0.207   3.017   4.570 -0.2286 -0.4021  0.9160
   28MOL   H35120385   0.038   3.050   4.361 -0.9551 -1.1540 -1.5925
   28MOL   H35220386   0.062   2.895   4.326  0.4889 -1.8961  1.1781
   28MOL   H35320387   7.629   2.989   4.589  1.9429 -1.9241  1.2210
   28MOL   H35420388   7.629   2.819   4.527 -0.5698 -0.4333  2.2049
   28MOL   H35520389   7.466   3.033   4.408  0.2436 -0.0505  1.7191
   28MOL   H35620390   7.507   2.872   4.344 -0.2452 -0.6698  0.2992
   28MOL   H35720391   7.408   2.787   4.560 -0.3285  0.1539  0.4490
   28MOL   H35820392   7.293   2.875   4.456  1.0734  2.2737 -1.3849
   28MOL   H35920393   7.307   3.073   4.591 -0.8171  1.1877  3.3670
   28MOL   H36020394   7.417   2.985   4.710  1.4222 -0.1194 -1.4535
   28MOL   H36120395   7.254   2.834   4.772  2.8218  0.1230 -1.1038
   28MOL   H36220396   7.146   2.876   4.656  0.1013 -2.1639  1.6136
   28MOL   H36320397   7.221   3.091   4.863 -0.7461  1.4258 -2.1732
   28MOL   H36420398   7.097   2.981   4.897 -1.0930 -1.8799 -0.4121
   28MOL   H36520399   6.973   3.067   4.681 -0.1631 -0.6974 -0.8610
   28MOL   H36620400   7.102   3.190   4.673 -1.9577 -0.2535 -1.1333
   28MOL   H36720401   7.067   3.292   4.873  0.8703  0.1113  0.3200
   28MOL   H36820402   6.957   3.169   4.914 -0.5261  2.0765  1.1695
   28MOL   H36920403   6.921   3.398   4.718  1.3968 -0.1654 -0.8403
   28MOL   H37020404   6.807   3.360   4.841  0.1299 -1.9350 -0.0033
   28MOL   H37120405   6.868   3.270   4.570 -0.0469  3.1395  0.8827
   28MOL   C37220406   6.692   3.194   4.634  0.0945  0.7191  0.0271
   28MOL   O37320407   6.602   3.184   4.722  0.3004  0.4174  0.2736
   28MOL   C37420408   6.647   3.151   4.492  0.8401  0.2032 -0.8117
   28MOL   C37520409   6.519   3.230   4.455  0.0857  0.2029  0.0518
   28MOL   C37620410   6.537   3.381   4.443 -0.3334 -0.2846 -0.1550
   28MOL   C37720411   6.663   3.418   4.358  0.0483  0.8394  0.4088
   28MOL   C37820412   6.706   3.562   4.356 -0.0821 -0.4752  0.7800
   28MOL   C37920413   6.627   3.650   4.255  0.1545 -0.5328 -0.6898
   28MOL   C38020414   6.691   3.791   4.234  0.2406 -0.0045 -0.1348
   28MOL   C38120415   6.615   3.890   4.138 -0.1296 -0.3758  0.1329
   28MOL   C38220416   6.702   4.004   4.085  0.0265  0.4292  0.3517
   28MOL   C38320417   6.634   4.092   3.981  0.1646  0.1216  0.8983
   28MOL   C38420418   6.724   4.178   3.909  0.2655 -0.4485 -0.8331
   28MOL   N38520419   6.644   4.245   3.813  1.1708 -0.2674  0.2499
   28MOL   H38620420   6.609   3.050   4.508 -1.7209  1.5962  2.5339
   28MOL   H38720421   6.715   3.141   4.408  0.6592 -0.0618 -0.9302
   28MOL   H38820422   6.477   3.191   4.362  1.7230  2.3543 -1.6421
   28MOL   H38920423   6.438   3.208   4.524 -1.0445 -0.3041 -1.4140
   28MOL   H39020424   6.554   3.425   4.541  1.6394 -1.3865  0.0310
   28MOL   H39120425   6.444   3.419   4.400  0.0059 -0.6730 -1.2477
   28MOL   H39220426   6.752   3.360   4.381 -2.3109 -2.9720  0.3781
   28MOL   H39320427   6.637   3.392   4.256 -1.5358  1.7292  0.5702
   28MOL   H39420428   6.812   3.575   4.337 -0.3704 -0.5400 -0.9427
   28MOL   H39520429   6.697   3.601   4.457  0.5932  0.1354  0.6052
   28MOL   H39620430   6.523   3.647   4.289 -0.3728 -0.6554 -2.2584
   28MOL   H39720431   6.614   3.610   4.154 -1.9914  0.5974 -0.8879
   28MOL   H39820432   6.790   3.773   4.192  1.2427  0.7483  1.8114
   28MOL   H39920433   6.705   3.837   4.332  1.9548  2.2679 -1.3810
   28MOL   H40020434   6.522   3.936   4.172 -0.1885 -0.8130  0.5669
   28MOL   H40120435   6.597   3.829   4.049 -3.7606  0.0524  0.5088
   28MOL   H40220436   6.778   3.953   4.025 -0.7343  1.2941 -1.3745
   28MOL   H40320437   6.756   4.058   4.164  0.0399 -1.0420  1.3736
   28MOL   H40420438   6.548   4.147   4.019  0.6085  2.8344 -1.8375
   28MOL   H40520439   6.588   4.025   3.909 -0.7743 -0.6531  2.1898
   28MOL   H40620440   6.803   4.119   3.862 -0.5446 -1.2799 -1.1717
   28MOL   H40720441   6.765   4.252   3.978 -1.0761  0.4085 -0.9480
   28MOL   H40820442   6.602   4.189   3.740  2.0962  1.3002 -1.5100
   28MOL   C40920443   6.614   4.377   3.798 -0.0667 -1.0609  0.3718
   28MOL   O41020444   6.665   4.465   3.871  0.1583  0.4201  0.0252
   28MOL   C41120445   6.521   4.421   3.689  0.0656  0.1077  0.3235
   28MOL   C41220446   6.564   4.563   3.632 -0.5964 -0.0103  0.7682
   28MOL   C41320447   6.487   4.620   3.514  1.0143 -0.1947  0.7349
   28MOL   C41420448   6.513   4.772   3.476  0.7644  0.3368  1.3011
   28MOL   C41520449   6.479   4.808   3.326  0.0866  0.5276  0.6072
   28MOL   C41620450   6.531   4.941   3.278 -0.0663  0.1561  0.8079
   28MOL   C41720451   6.586   4.943   3.132 -0.2005  0.0554 -0.6415
   28MOL   C41820452   6.606   5.087   3.079  0.2333 -0.3437  0.3664
   28MOL   C41920453   6.731   5.084   2.992  0.3845 -0.1941 -0.1177
   28MOL   C42020454   6.704   5.005   2.862 -0.4180  0.3220 -0.3760
   28MOL   C42120455   6.834   4.974   2.779  0.0971 -0.4081 -0.4208
   28MOL   N42220456   6.810   4.872   2.674 -0.3765  0.3718  0.0073
   28MOL   H42320457   6.419   4.414   3.724 -1.0153  0.4513 -2.5850
   28MOL   H42420458   6.520   4.363   3.596 -1.3265  1.5475 -0.5925
   28MOL   H42520459   6.542   4.629   3.717 -2.6827  1.3345 -0.7805
   28MOL   H42620460   6.672   4.565   3.612 -0.5012 -0.8549  1.2060
   28MOL   H42720461   6.380   4.619   3.532  0.6602  1.4185 -0.9936
   28MOL   H42820462   6.496   4.548   3.433  1.2284 -0.6537  1.1686
   28MOL   H42920463   6.449   4.837   3.536  0.4628 -1.3301  2.8356
   28MOL   H43020464   6.618   4.797   3.493  0.7590  0.7253  0.7792
   28MOL   H43120465   6.373   4.795   3.307  0.5090 -0.2460 -1.3809
   28MOL   H43220466   6.519   4.733   3.258 -0.8476  1.2828 -0.8010
   28MOL   H43320467   6.609   4.977   3.345  3.2559 -1.1480 -2.1922
   28MOL   H43420468   6.446   5.009   3.286 -0.3101 -0.3995  3.1563
   28MOL   H43520469   6.520   4.880   3.072 -0.9171 -0.7349  0.9469
   28MOL   H43620470   6.682   4.890   3.139  0.9632  1.7373 -3.0743
   28MOL   H43720471   6.641   5.155   3.157  1.6414 -0.5717 -0.0548
   28MOL   H43820472   6.514   5.120   3.033  0.1626 -0.9448  0.0642
   28MOL   H43920473   6.823   5.054   3.041 -0.1029 -1.5811 -0.0412
   28MOL   H44020474   6.761   5.186   2.967  3.1541 -0.6094  1.3395
   28MOL   H44120475   6.646   5.068   2.794  0.9724  0.9458 -1.0056
   28MOL   H44220476   6.645   4.916   2.880 -0.0946 -0.0211 -1.0290
   28MOL   H44320477   6.908   4.939   2.850  0.2410  1.6733  0.5044
   28MOL   H44420478   6.855   5.075   2.742 -0.0495 -1.4355 -3.4631
   28MOL   H44520479   6.851   4.781   2.691  1.8671  1.3409 -0.1135
   28MOL   C44620480   6.749   4.894   2.555  0.3536  0.0183 -0.7289
   28MOL   O44720481   6.694   4.997   2.521  0.1978 -0.3828 -0.0748
   28MOL   C44820482   6.767   4.778   2.454  0.1177  0.0602 -0.0576
   28MOL   C44920483   6.639   4.747   2.378  0.0377 -0.4984 -0.5640
   28MOL   C45020484   6.637   4.625   2.289  0.2473 -0.0886  1.0090
   28MOL   C45120485   6.498   4.581   2.235 -0.0407 -0.7120 -0.2159
   28MOL   C45220486   6.446   4.687   2.138 -0.1324 -0.0957  0.9154
   28MOL   C45320487   6.296   4.703   2.135 -0.2960  0.9128 -0.9245
   28MOL   C45420488   6.255   4.827   2.051  0.2861  0.5788  0.4452
   28MOL   C45520489   6.104   4.844   2.032 -0.4750 -0.4964  0.0401
   28MOL   C45620490   6.035   4.745   1.930 -0.6450 -0.0174 -1.1907
   28MOL   C45720491   6.050   4.798   1.786 -0.8434 -0.5585 -0.3108
   28MOL   C45820492   6.021   4.694   1.678  1.2700  0.1872  0.0060
   28MOL   N45920493   6.106   4.578   1.693  0.7323 -0.2141 -0.2465
   28MOL   H46020494   6.791   4.687   2.509 -0.0459  0.6547  1.0116
   28MOL   H46120495   6.855   4.798   2.393  1.0490 -1.4783  0.7607
   28MOL   H46220496   6.557   4.741   2.449  0.1174 -4.9661 -0.7574
   28MOL   H46320497   6.613   4.834   2.316 -0.1378  0.5716  0.9839
   28MOL   H46420498   6.668   4.541   2.351 -0.2638 -0.9828  0.0712
   28MOL   H46520499   6.712   4.638   2.210 -0.5579 -0.8407  0.1064
   28MOL   H46620500   6.503   4.484   2.186 -3.3653  0.0450 -2.2454
   28MOL   H46720501   6.424   4.569   2.315  0.7077  0.0253  0.6047
   28MOL   H46820502   6.490   4.663   2.041 -0.8777 -0.6298  0.7058
   28MOL   H46920503   6.488   4.784   2.165 -0.6863  0.2800  0.4479
   28MOL   H47020504   6.253   4.698   2.235  1.5789  2.0220 -0.0361
   28MOL   H47120505   6.248   4.617   2.088 -0.4719  2.2143 -3.1942
   28MOL   H47220506   6.302   4.822   1.952 -1.9792  1.4062 -0.7136
   28MOL   H47320507   6.290   4.918   2.098  0.9902 -0.0214  1.1099
   28MOL   H47420508   6.081   4.946   2.002  0.6994 -1.1894 -3.5057
   28MOL   H47520509   6.060   4.843   2.131  0.6726  1.9650  0.5976
   28MOL   H47620510   5.929   4.727   1.946 -1.1118  0.4604 -3.5961
   28MOL   H47720511   6.081   4.648   1.949  0.4420  0.5914 -0.6185
   28MOL   H47820512   6.147   4.845   1.774 -1.5381  0.5594 -1.7523
   28MOL   H47920513   5.978   4.879   1.780 -0.4231 -0.0206  1.6943
   28MOL   H48020514   6.026   4.744   1.581  0.1427  0.0113 -0.1398
   28MOL   H48120515   5.917   4.664   1.686  0.5183  1.7215 -3.0522
   28MOL   H48220516   6.076   4.518   1.769 -1.1244  1.1974  0.1767
   28MOL   C48320517   6.232   4.577   1.649 -0.0999  0.6793  0.6417
   28MOL   O48420518   6.290   4.663   1.576  0.2559  0.0939 -0.3748
   28MOL   C48520519   6.318   4.459   1.702 -0.6400  0.1394 -0.4856
   28MOL   C48620520   6.445   4.499   1.774  0.2940  0.8863  0.3081
   28MOL   C48720521   6.520   4.382   1.820 -0.6414  0.2898 -0.0990
   28MOL   C48820522   6.646   4.416   1.905  0.6226  0.6040 -0.6906
   28MOL   C48920523   6.765   4.321   1.915 -0.9400  0.5997  0.1972
   28MOL   C49020524   6.724   4.189   1.981 -0.1614 -0.1140  0.1266
   28MOL   C49120525   6.838   4.091   2.014  0.1545 -0.2445 -0.5708
   28MOL   C49220526   6.792   3.946   2.055 -0.2906 -0.2532 -0.0221
   28MOL   C49320527   6.898   3.843   2.017 -0.4345 -0.0528  0.2211
   28MOL   C49420528   6.852   3.701   2.036  0.5719  0.7410 -0.2626
   28MOL   C49520529   6.958   3.599   2.014 -0.6503  0.6828 -0.0997
   28MOL   N49620530   6.910   3.469   2.073 -0.9392  0.0338  0.1638
   28MOL   H49720531   6.354   4.403   1.617  1.4692 -1.0118  1.1185
   28MOL   H49820532   6.261   4.388   1.761 -0.1798  0.8694  0.8646
   28MOL   H49920533   6.501   4.580   1.727 -1.6102  1.5645 -0.8498
   28MOL   H50020534   6.399   4.548   1.859 -0.7436 -0.4549  0.5274
   28MOL   H50120535   6.558   4.341   1.726  0.0289 -3.4801  1.7055
   28MOL   H50220536   6.464   4.298   1.862  0.2357 -0.2615 -0.0223
   28MOL   H50320537   6.679   4.515   1.871 -0.9311  1.1954 -0.5011
   28MOL   H50420538   6.600   4.422   2.003  0.8797 -1.2219 -0.4473
   28MOL   H50520539   6.836   4.365   1.985 -1.2849  1.7041 -0.1431
   28MOL   H50620540   6.817   4.322   1.819 -0.0316 -2.9950  0.5786
   28MOL   H50720541   6.658   4.146   1.906  0.9330  0.7537 -1.3577
   28MOL   H50820542   6.676   4.206   2.078 -0.5093  1.4438 -0.3057
   28MOL   H50920543   6.903   4.127   2.093  0.0292 -3.6338  1.1634
   28MOL   H51020544   6.905   4.091   1.928  1.1466  2.9981  0.1068
   28MOL   H51120545   6.700   3.910   2.008 -0.3462 -1.8311  1.2488
   28MOL   H51220546   6.771   3.943   2.162 -0.5759  1.4265 -0.0212
   28MOL   H51320547   6.994   3.867   2.064 -1.6228 -0.4088  2.9015
   28MOL   H51420548   6.917   3.862   1.911 -0.5953  2.0342  0.5617
   28MOL   H51520549   6.761   3.678   1.981  0.9213 -1.2040 -0.0696
   28MOL   H51620550   6.826   3.694   2.142  1.8735 -0.9911 -0.0272
   28MOL   H51720551   7.047   3.636   2.065  0.1113  0.3622 -1.1604
   28MOL   H51820552   6.990   3.589   1.910  2.2077 -0.2072  0.8058
   28MOL   H51920553   6.913   3.463   2.174 -0.6645 -1.3458  0.0792
   28MOL   C52020554   6.889   3.354   2.007 -0.0908  0.4382 -0.0036
   28MOL   O52120555   6.916   3.347   1.888 -0.1101  0.5562  1.0366
   28MOL   C52220556   6.840   3.225   2.088 -0.1166 -0.2098 -0.3634
   28MOL   C52320557   6.756   3.122   2.007 -0.6683 -0.5860 -0.9641
   28MOL   C52420558   6.792   2.976   2.035 -0.1186 -0.5889 -0.2535
   28MOL   C52520559   6.673   2.890   2.003 -0.4529  0.1869 -0.3140
   28MOL   C52620560   6.691   2.738   2.001  0.2895  0.0869  0.1864
   28MOL   C52720561   6.719   2.666   2.140 -0.3469 -0.1471 -0.7610
   28MOL   C52820562   6.781   2.529   2.125  0.1535  0.2602  0.1935
   28MOL   C52920563   6.693   2.406   2.098  0.3882  0.4942 -0.1146
   28MOL   C53020564   6.784   2.280   2.087  0.4008  0.1833 -0.0140
   28MOL   C53120565   6.700   2.149   2.063 -0.6439  0.1278  0.2900
   28MOL   C53220566   6.783   2.027   2.022  0.2291  0.5157 -0.0747
   28MOL   N53320567   6.841   2.042   1.885  0.0140  0.3910  0.0122
   28MOL   H53420568   6.785   3.271   2.169  0.3055  0.8239 -0.6458
   28MOL   H53520569   6.939   3.188   2.115  0.1923 -0.4880 -1.8023
   28MOL   H53620570   6.652   3.127   2.041 -1.5754 -0.1662 -3.7369
   28MOL   H53720571   6.756   3.153   1.903  1.6029  3.1147  0.0453
   28MOL   H53820572   6.816   2.961   2.140  0.9434  0.4365 -0.3408
   28MOL   H53920573   6.889   2.948   1.994  0.6181 -1.0250  1.7264
   28MOL   H54020574   6.590   2.908   2.072 -0.1812  1.1592 -0.2453
   28MOL   H54120575   6.636   2.914   1.904  0.1987  1.8939 -0.1502
   28MOL   H54220576   6.769   2.712   1.930 -0.0028  1.2629 -0.5589
   28MOL   H54320577   6.598   2.694   1.967 -0.4390  0.9389  1.0408
   28MOL   H54420578   6.624   2.665   2.193 -0.7658  1.5946 -1.4437
   28MOL   H54520579   6.789   2.714   2.208  1.4566 -1.4687 -1.6143
   28MOL   H54620580   6.827   2.514   2.223  2.6625  0.0076 -0.9991
   28MOL   H54720581   6.853   2.532   2.044 -0.8115  1.2470 -0.6557
   28MOL   H54820582   6.617   2.418   2.021  0.0474  2.2690  0.4748
   28MOL   H54920583   6.626   2.400   2.183 -0.0201  0.8099 -0.4135
   28MOL   H55020584   6.835   2.267   2.182  2.1668  0.2639 -0.9368
   28MOL   H55120585   6.860   2.299   2.012  1.1940  0.3362  0.8231
   28MOL   H55220586   6.623   2.176   1.991  0.2261  0.0241 -0.6816
   28MOL   H55320587   6.637   2.141   2.152  0.3010 -0.4675  0.9186
   28MOL   H55420588   6.720   1.938   2.024  2.0614 -0.8144  0.9029
   28MOL   H55520589   6.862   2.012   2.097  1.1248 -1.4131 -1.3550
   28MOL   H55620590   6.925   2.098   1.879 -0.3793  0.9268 -0.5188
   28MOL   C55720591   6.804   1.998   1.763  0.2266 -0.1798  0.0537
   28MOL   O55820592   6.715   1.912   1.739 -0.0457 -0.0685  0.3062
   28MOL   C55920593   6.858   2.073   1.646 -0.9662  0.0850  0.4453
   28MOL   C56020594   6.755   2.140   1.563 -0.5422  0.2252 -0.0513
   28MOL   C56120595   6.644   2.218   1.640 -0.3384  0.1241  0.1650
   28MOL   C56220596   6.537   2.295   1.557  0.1209 -0.9264  0.4476
   28MOL   C56320597   6.446   2.395   1.646  0.0315 -0.4463 -0.4239
   28MOL   C56420598   6.379   2.334   1.770  0.2089  0.9423 -0.1781
   28MOL   C56520599   6.330   2.443   1.866  0.3533 -0.3521 -0.3298
   28MOL   C56620600   6.247   2.386   1.985  0.0142  0.4125 -0.4881
   28MOL   C56720601   6.225   2.504   2.087 -0.6975  0.7498  0.0782
   28MOL   C56820602   6.345   2.546   2.173 -0.3295 -0.4046  0.0006
   28MOL   C56920603   6.322   2.678   2.248 -0.0994 -0.1473  0.6485
   28MOL   N57020604   6.302   2.791   2.158 -0.3209 -0.3222 -0.2246
   28MOL   H57120605   6.898   1.996   1.580 -1.5375 -0.4944  0.7649
   28MOL   H57220606   6.942   2.135   1.678  0.6044 -1.6364 -0.2734
   28MOL   H57320607   6.803   2.207   1.491  0.0112 -3.1273 -2.9237
   28MOL   H57420608   6.709   2.070   1.493  0.0299  0.2130 -0.4212
   28MOL   H57520609   6.711   2.291   1.686  1.0361 -0.1974 -1.2876
   28MOL   H57620610   6.601   2.158   1.719  0.3941 -1.2388 -0.4590
   28MOL   H57720611   6.598   2.345   1.482 -1.6659  0.0938 -0.3442
   28MOL   H57820612   6.480   2.216   1.509  0.9426 -2.1093  1.3683
   28MOL   H57920613   6.369   2.442   1.585 -0.5920  1.2132  1.5711
   28MOL   H58020614   6.507   2.481   1.675 -0.9477  1.2363 -3.1635
   28MOL   H58120615   6.457   2.275   1.818 -0.1678 -0.1981 -0.9612
   28MOL   H58220616   6.305   2.259   1.743  0.0717  1.6185 -1.7383
   28MOL   H58320617   6.283   2.529   1.818  2.3607  0.2951 -1.2197
   28MOL   H58420618   6.421   2.484   1.909  0.2661 -0.3542 -0.1430
   28MOL   H58520619   6.277   2.295   2.037 -0.0561  2.1624  2.7399
   28MOL   H58620620   6.151   2.367   1.937 -1.0296  0.4708  1.5321
   28MOL   H58720621   6.141   2.479   2.153 -0.6526  0.9194  0.1984
   28MOL   H58820622   6.195   2.585   2.021  1.2906 -2.0183 -4.4359
   28MOL   H58920623   6.429   2.571   2.108 -0.5639 -0.0787 -0.1794
   28MOL   H59020624   6.376   2.461   2.233 -3.2550 -0.3364  1.6749
   28MOL   H59120625   6.402   2.698   2.319  1.3492  0.3639 -1.0660
   28MOL   H59220626   6.232   2.666   2.308 -0.6951 -2.3413 -0.6217
   28MOL   H59320627   6.293   2.769   2.060  0.9094 -1.7792 -0.0421
   28MOL   C59420628   6.293   2.915   2.205  0.3983  0.4700 -0.6348
   28MOL   O59520629   6.287   2.946   2.325 -0.5748 -0.8863 -0.7841
   28MOL   C59620630   6.296   3.022   2.103  0.0876  0.2718 -0.0640
   28MOL   C59720631   6.366   3.150   2.141  0.6700  0.0437  0.0677
   28MOL   C59820632   6.369   3.257   2.022 -0.5906  0.3919 -0.3127
   28MOL   C59920633   6.462   3.386   2.041  0.0153 -0.5574  0.0118
   28MOL   C60020634   6.436   3.469   2.168  0.2845  0.1372  0.5364
   28MOL   C60120635   6.542   3.579   2.176 -0.0456 -0.4439  0.8639
   28MOL   C60220636   6.504   3.663   2.303  0.5286 -0.1361  0.0151
   28MOL   C60320637   6.594   3.784   2.325 -0.2505  0.6193  0.2186
   28MOL   C60420638   6.558   3.868   2.446  0.5123  0.4591 -0.2474
   28MOL   C60520639   6.615   3.818   2.583 -0.4895 -0.4438  0.4428
   28MOL   C60620640   6.560   3.688   2.636  0.1109  0.6583  0.3205
   28MOL   N60720641   6.588   3.665   2.778 -0.2004  0.1389 -1.0850
   28MOL   H60820642   6.193   3.048   2.079 -0.4667 -1.1907  0.6683
   28MOL   H60920643   6.328   2.988   2.004 -1.6774  0.5419 -0.7434
   28MOL   H61020644   6.307   3.192   2.222  1.3294 -3.6680  2.5725
   28MOL   H61120645   6.466   3.128   2.177 -0.0403 -1.7553  0.9561
   28MOL   H61220646   6.270   3.299   2.007 -1.3001 -0.7180  1.1828
   28MOL   H61320647   6.414   3.204   1.938  1.0242 -0.7414  1.2313
   28MOL   H61420648   6.568   3.363   2.030  0.2054 -0.3553  1.3763
   28MOL   H61520649   6.442   3.446   1.952 -3.3763 -1.3016  0.1912
   28MOL   H61620650   6.440   3.399   2.251 -3.0959 -3.6238 -2.2397
   28MOL   H61720651   6.338   3.517   2.167 -0.4750 -1.3874 -0.9811
   28MOL   H61820652   6.547   3.650   2.093  3.4454 -2.8216 -1.0713
   28MOL   H61920653   6.638   3.531   2.187  0.1623 -0.1122  0.5223
   28MOL   H62020654   6.501   3.596   2.389 -0.0961 -0.1865 -0.0384
   28MOL   H62120655   6.400   3.697   2.294  0.0602 -1.2756  0.9668
   28MOL   H62220656   6.592   3.853   2.241  1.2259 -0.9810 -1.1522
   28MOL   H62320657   6.695   3.744   2.328 -0.7554 -0.9028 -2.1641
   28MOL   H62420658   6.452   3.892   2.456  0.4571  0.5732 -1.0111
   28MOL   H62520659   6.612   3.961   2.429 -1.1219  1.2241 -1.4636
   28MOL   H62620660   6.597   3.897   2.656 -0.9693 -1.2973  1.2495
   28MOL   H62720661   6.723   3.809   2.576 -0.4941  0.6488 -1.5353
   28MOL   H62820662   6.601   3.610   2.572  0.5992  1.0326  0.1742
   28MOL   H62920663   6.451   3.679   2.632  0.2214 -0.7663  0.3211
   28MOL   H63020664   6.514   3.686   2.843  1.7508 -2.8478  2.2767
   28MOL   C63120665   6.708   3.633   2.827 -0.7225 -0.0572  0.8400
   28MOL   O63220666   6.815   3.640   2.756  0.5359 -0.0533 -0.2531
   28MOL   C63320667   6.715   3.600   2.979 -1.0681  0.5785  0.6258
   28MOL   C63420668   6.653   3.465   3.023 -0.4543  0.0800 -0.3990
   28MOL   C63520669   6.735   3.336   2.978 -0.5309 -0.0307 -0.0466
   28MOL   C63620670   6.663   3.210   2.994 -0.3073  0.0328 -0.1572
   28MOL   C63720671   6.750   3.084   2.969  0.2763 -0.4350 -0.2102
   28MOL   C63820672   6.683   2.948   2.990 -0.3995  0.0552 -0.5141
   28MOL   C63920673   6.775   2.829   3.005 -0.5927  0.7295 -0.1835
   28MOL   C64020674   6.706   2.703   3.065  0.0356 -0.5938  0.2189
   28MOL   C64120675   6.775   2.577   3.007  0.1301  0.0544  0.1387
   28MOL   C64220676   6.717   2.440   3.052  0.4703 -0.4727 -0.2897
   28MOL   C64320677   6.793   2.324   2.988  0.0017 -0.1708  0.2332
   28MOL   N64420678   6.925   2.311   3.046 -0.1549 -0.9463 -0.7393
   28MOL   H64520679   6.651   3.675   3.027 -0.8156 -0.1083  2.0785
   28MOL   H64620680   6.813   3.611   3.026 -0.9551 -1.6283  0.9687
   28MOL   H64720681   6.629   3.467   3.130  1.9025 -2.6328  0.2575
   28MOL   H64820682   6.558   3.454   2.972 -1.2951  0.6148  1.0162
   28MOL   H64920683   6.829   3.333   3.033 -0.4716  1.1024 -0.0806
   28MOL   H65020684   6.754   3.356   2.872 -0.5709  0.0093 -0.0459
   28MOL   H65120685   6.625   3.206   3.096  0.7180 -3.6595  0.1590
   28MOL   H65220686   6.573   3.205   2.934 -0.1304  0.3154 -0.4463
   28MOL   H65320687   6.845   3.073   3.022 -1.1474  0.2632  2.5628
   28MOL   H65420688   6.780   3.088   2.864 -0.2694  2.5641 -0.2933
   28MOL   H65520689   6.622   2.932   2.901  0.1053 -0.2669 -0.8108
   28MOL   H65620690   6.631   2.951   3.085 -1.4043  1.2494 -1.0897
   28MOL   H65720691   6.855   2.846   3.078 -0.8670  1.5670 -0.0754
   28MOL   H65820692   6.827   2.805   2.912 -0.6725  0.0222 -0.0482
   28MOL   H65920693   6.601   2.695   3.034  0.0658 -3.2744  0.6556
   28MOL   H66020694   6.697   2.714   3.173 -0.0651  3.7881 -0.1600
   28MOL   H66120695   6.881   2.583   3.027 -0.1135 -0.6931  1.7364
   28MOL   H66220696   6.770   2.578   2.898  3.7754 -1.1990 -0.0815
   28MOL   H66320697   6.615   2.431   3.015 -1.5813 -0.9053  5.0270
   28MOL   H66420698   6.718   2.431   3.160 -1.2681 -3.5794 -0.4585
   28MOL   H66520699   6.805   2.339   2.881  1.2457 -0.1429  0.3669
   28MOL   H66620700   6.732   2.235   2.999  1.0653 -1.0331 -0.8009
   28MOL   H66720701   6.952   2.351   3.134  1.2355  1.2927 -2.1371
   28MOL   C66820702   7.028   2.259   2.981 -0.3231  0.1180  0.0674
   28MOL   O66920703   7.018   2.193   2.879 -0.2604 -0.2533  0.1394
   28MOL   C67020704   7.163   2.279   3.043  0.0046  0.2616  0.1661
   28MOL   C67120705   7.278   2.228   2.955  0.0035  0.1813  0.5162
   28MOL   C67220706   7.311   2.303   2.825  0.0365 -0.4400  0.2620
   28MOL   C67320707   7.367   2.444   2.838 -0.5316  0.5831  0.1354
   28MOL   C67420708   7.362   2.508   2.699 -0.0432  0.2046  0.8577
   28MOL   C67520709   7.455   2.625   2.696 -0.0510 -0.3149 -0.1514
   28MOL   C67620710   7.461   2.705   2.567 -0.2824  0.5604 -0.2554
   28MOL   C67720711   7.558   2.827   2.585 -0.3952  0.1181  0.7472
   28MOL   C67820712   7.559   2.916   2.465  0.0595 -0.2262 -0.3628
   28MOL   C67920713   7.680   3.011   2.463 -0.0536  0.0850 -0.3192
   28MOL   C68020714   7.677   3.101   2.587  0.0647 -0.3089  0.4873
   28MOL   N68120715   0.099   3.188   2.579 -0.1114 -0.1995  0.6096
   28MOL   H68220716   7.168   2.246   3.146  0.0767  0.7362  0.3128
   28MOL   H68320717   7.175   2.386   3.059  0.6765  0.2883 -0.4380
   28MOL   H68420718   7.371   2.235   3.012 -0.8264  1.2414  1.7570
   28MOL   H68520719   7.270   2.121   2.937 -1.2443  0.6485 -1.8865
   28MOL   H68620720   7.227   2.300   2.756  1.4067  1.0688 -1.5209
   28MOL   H68720721   7.388   2.240   2.780  1.6193  0.2489  1.9103
   28MOL   H68820722   7.305   2.500   2.908  0.4365  1.0707  0.6127
   28MOL   H68920723   7.463   2.458   2.887 -0.4134 -2.3577  0.7954
   28MOL   H69020724   7.261   2.545   2.683 -1.1944 -3.1429 -0.0829
   28MOL   H69120725   7.387   2.435   2.621  2.5015 -1.7540  3.4086
   28MOL   H69220726   7.554   2.588   2.724  0.4742  0.7124 -0.6144
   28MOL   H69320727   7.439   2.695   2.777  0.8597 -0.1593 -0.1025
   28MOL   H69420728   7.362   2.742   2.541  0.2170 -0.0642 -3.1952
   28MOL   H69520729   7.496   2.641   2.486  0.2117  0.0239  0.3795
   28MOL   H69620730   7.656   2.786   2.610  0.0093  2.2142  2.7757
   28MOL   H69720731   7.529   2.892   2.668 -2.1286  0.0607  0.2098
   28MOL   H69820732   7.468   2.976   2.461 -1.4029 -2.3011  1.1193
   28MOL   H69920733   7.560   2.860   2.372 -0.3733 -0.4659 -0.2228
   28MOL   H70020734   7.674   3.071   2.372 -0.7255  0.4367 -0.0534
   28MOL   H70120735   0.083   2.962   2.463  0.7122  1.5722  0.3625
   28MOL   H70220736   7.672   3.034   2.673 -0.2159 -0.3662  0.4303
   28MOL   H70320737   7.592   3.170   2.596  1.8839  1.6756  3.3695
   28MOL   H70420738   0.152   3.201   2.494  0.3093 -4.2935  0.1195
   28MOL   C70520739   0.127   3.270   2.674 -0.1705 -0.8726  0.1625
   28MOL   O70620740   0.066   3.280   2.782 -0.6893 -0.2152  0.2015
   28MOL   C70720741   0.245   3.361   2.639 -0.0193  0.3023  0.6913
   28MOL   C70820742   0.230   3.503   2.690  0.5653  0.2685 -0.4471
   28MOL   C70920743   0.097   3.583   2.668  0.1906  0.2995  0.3415
   28MOL   C71020744   0.092   3.664   2.539  0.5365 -0.1629 -0.1042
   28MOL   C71120745   0.062   3.579   2.415  0.3093  0.3117 -0.5789
   28MOL   C71220746   0.070   3.650   2.282  0.6931 -0.4138 -0.0030
   28MOL   C71320747   0.208   3.694   2.232 -0.3386 -0.2363  0.1620
   28MOL   C71420748   0.281   3.581   2.157  0.0063 -0.7256  0.3520
   28MOL   C71520749   0.428   3.608   2.116 -0.3549 -0.3165 -0.3680
   28MOL   C71620750   0.484   3.493   2.035 -0.1345  0.5478  0.0991
   28MOL   C71720751   0.629   3.506   2.024  0.2700  0.5975  0.2362
   28MOL   N71820752   0.690   3.381   1.981 -0.4016  0.2644 -0.5512
   28MOL   H71920753   0.255   3.370   2.531 -1.9131 -0.5270  0.4149
   28MOL   H72020754   0.336   3.315   2.676 -1.3544 -2.0068  1.2006
   28MOL   H72120755   0.248   3.500   2.797 -0.8322  2.4633 -0.1179
   28MOL   H72220756   0.314   3.567   2.662  1.2132  0.6037  2.1568
   28MOL   H72320757   0.083   3.654   2.750 -2.7845 -0.7381  0.7973
   28MOL   H72420758   0.012   3.515   2.671  0.9649 -0.6221  2.2379
   28MOL   H72520759   0.021   3.747   2.541 -0.3517 -0.9206  0.4003
   28MOL   H72620760   0.191   3.706   2.525  0.6676 -0.6368 -0.6378
   28MOL   H72720761   7.654   3.539   2.413  0.0478  0.9667 -0.8848
   28MOL   H72820762   0.132   3.497   2.403 -0.5159 -0.3350 -1.0113
   28MOL   H72920763   0.006   3.738   2.278  0.0663 -0.9077 -1.4830
   28MOL   H73020764   0.025   3.583   2.209 -0.2699 -0.8858  1.0089
   28MOL   H73120765   0.268   3.721   2.319  1.3607  1.7468 -1.5724
   28MOL   H73220766   0.195   3.780   2.166  0.6891 -1.0105 -1.0842
   28MOL   H73320767   0.224   3.544   2.072 -2.4785 -0.6721  1.9490
   28MOL   H73420768   0.273   3.494   2.222  2.1750 -0.4772  1.0187
   28MOL   H73520769   0.485   3.625   2.207 -0.1263  2.5125 -0.9952
   28MOL   H73620770   0.442   3.698   2.055 -0.0835  0.2704  0.5438
   28MOL   H73720771   0.417   3.481   1.950 -0.8578 -0.2999  0.7848
   28MOL   H73820772   0.476   3.399   2.088 -0.4372  1.0633  0.9642
   28MOL   H73920773   0.674   3.533   2.119 -1.5697  2.0593  0.7327
   28MOL   H74020774   0.656   3.587   1.956  0.2186 -0.5531 -1.1958
   28MOL   H74120775   0.651   3.304   2.034  1.8678  0.1074  0.9820
   28MOL   H74220776   0.655   3.369   1.887 -0.0196  0.4299 -0.7155
   29MOL     C120777   1.298   5.023   2.348 -0.0415 -0.2042 -0.4374
   29MOL     O220778   1.177   5.010   2.355  0.0619  0.2352 -0.4097
   29MOL     C320779   1.377   4.954   2.233  0.9092  0.2065  0.1001
   29MOL     C420780   1.347   4.804   2.219 -0.0879  0.8777  0.4957
   29MOL     C520781   1.391   4.723   2.344 -0.3301 -0.2734 -0.5875
   29MOL     C620782   1.382   4.575   2.334 -0.2417  0.5404  0.2153
   29MOL     C720783   1.239   4.524   2.294 -0.0035 -0.0015  0.0925
   29MOL     C820784   1.134   4.570   2.388  0.3482  0.4478 -0.6055
   29MOL     C920785   1.004   4.499   2.358  0.3049  0.0491  0.0251
   29MOL    C1020786   0.885   4.540   2.445 -0.2852  0.4675  0.6543
   29MOL    C1120787   0.744   4.486   2.394  0.4235 -0.0515  0.4886
   29MOL    C1220788   0.631   4.525   2.489 -0.0780 -0.4727 -0.1061
   29MOL    C1320789   0.504   4.440   2.470 -0.1330 -0.5582 -0.3754
   29MOL    N1420790   0.396   4.477   2.567 -0.3845 -0.4341 -0.6096
   29MOL    H1520791   1.484   4.964   2.253  1.1986 -1.3862 -0.5983
   29MOL    H1620792   1.359   5.008   2.140 -2.8099  0.7236  1.0401
   29MOL    H1720793   1.238   4.797   2.208  0.2297 -1.8773 -1.2890
   29MOL    H1820794   1.399   4.764   2.132 -1.9334 -1.4055  0.3877
   29MOL    H1920795   1.340   4.755   2.434  1.2085 -2.4506  1.0915
   29MOL    H2020796   1.500   4.733   2.346 -0.3130 -0.7399  0.7033
   29MOL    H2120797   1.448   4.549   2.251  0.9669 -0.5524  1.4819
   29MOL    H2220798   1.416   4.523   2.424  0.9220 -0.3008 -0.7018
   29MOL    H2320799   1.245   4.415   2.300 -0.8312 -0.0217  0.6762
   29MOL    H2420800   1.223   4.539   2.188 -2.4321  2.1825  0.7258
   29MOL    H2520801   1.118   4.677   2.392  0.5422  0.4840 -0.8270
   29MOL    H2620802   1.177   4.537   2.483 -2.8049  1.3738  1.2118
   29MOL    H2720803   1.029   4.395   2.379 -0.9790 -0.2042  0.3155
   29MOL    H2820804   0.972   4.512   2.255  1.5600  0.0652 -0.3827
   29MOL    H2920805   0.881   4.649   2.446  0.9207  0.5443 -0.0616
   29MOL    H3020806   0.912   4.519   2.548  0.1207 -1.3945  0.1912
   29MOL    H3120807   0.758   4.378   2.399 -1.3967 -0.2535  1.7044
   29MOL    H3220808   0.728   4.516   2.291 -0.4087 -3.4425 -0.4194
   29MOL    H3320809   0.604   4.631   2.483  1.7559  0.0310  0.2971
   29MOL    H3420810   0.667   4.517   2.591 -1.5691 -2.5275  0.2777
   29MOL    H3520811   0.519   4.333   2.457 -0.0429 -0.4835 -0.9208
   29MOL    H3620812   0.468   4.479   2.375  0.2985  0.5107 -0.1085
   29MOL    H3720813   0.313   4.524   2.534 -1.1588 -1.3388  0.0353
   29MOL    H3820814   1.359   5.088   2.411  2.6017 -0.2301 -2.8798
   29MOL    C3920815   0.397   4.433   2.693 -0.0522  0.3383  0.4264
   29MOL    O4020816   0.480   4.366   2.749 -1.1659  0.3887 -0.1134
   29MOL    C4120817   0.270   4.481   2.769 -0.1788  0.2851 -0.3080
   29MOL    C4220818   0.307   4.539   2.909 -0.0428  0.0784 -0.6499
   29MOL    C4320819   0.191   4.531   3.009  0.1407 -0.3937 -0.1211
   29MOL    C4420820   0.236   4.557   3.155 -0.3623  0.3698 -0.7434
   29MOL    C4520821   0.125   4.542   3.268  0.3283  0.4309 -0.6844
   29MOL    C4620822   0.020   4.655   3.261 -1.0308  0.2760 -0.3231
   29MOL    C4720823   7.596   4.643   3.362 -0.1187 -0.5462 -0.3018
   29MOL    C4820824   7.522   4.780   3.390  0.4199  0.3711  0.2480
   29MOL    C4920825   7.380   4.768   3.440  0.3346  1.0123  0.2873
   29MOL    C5020826   7.284   4.891   3.420  0.2718  0.2900  0.0190
   29MOL    C5120827   7.153   4.895   3.503  0.4055  0.3555 -0.4514
   29MOL    N5220828   7.067   4.999   3.457  0.2961 -0.2224 -0.0279
   29MOL    H5320829   0.197   4.400   2.774 -2.6063  2.4703  0.6661
   29MOL    H5420830   0.207   4.557   2.724 -2.5782 -0.5812  1.4879
   29MOL    H5520831   0.396   4.497   2.957 -0.9599  1.0063  1.9563
   29MOL    H5620832   0.325   4.643   2.881 -4.7778  1.0370 -0.5729
   29MOL    H5720833   0.156   4.428   3.013  0.2153 -0.3695  1.3921
   29MOL    H5820834   0.112   4.590   2.961  2.0912  0.8482 -1.8608
   29MOL    H5920835   0.319   4.493   3.184 -1.8724 -0.3633  2.1805
   29MOL    H6020836   0.263   4.662   3.168 -0.6373  0.4784 -1.0537
   29MOL    H6120837   0.161   4.546   3.370 -0.7519  0.0795 -0.2799
   29MOL    H6220838   0.074   4.446   3.276  1.9392 -0.2613  1.5457
   29MOL    H6320839   7.673   4.664   3.160  0.0051 -2.9993 -1.0916
   29MOL    H6420840   0.075   4.748   3.274 -1.2905  0.1563  1.8343
   29MOL    H6520841   7.623   4.602   3.460 -1.1573 -0.1467  0.1611
   29MOL    H6620842   7.534   4.560   3.328  2.1917 -2.4759  0.0407
   29MOL    H6720843   7.522   4.836   3.297  2.4407 -1.6809 -1.0236
   29MOL    H6820844   7.570   4.839   3.468 -3.4051  0.9142  2.3549
   29MOL    H6920845   7.358   4.736   3.542 -0.6393  1.6300  0.2804
   29MOL    H7020846   7.339   4.693   3.372 -0.9816  0.8727  1.2072
   29MOL    H7120847   7.253   4.893   3.315  0.5371  4.2676 -0.0594
   29MOL    H7220848   7.339   4.983   3.442 -1.4790  1.8585 -1.8746
   29MOL    H7320849   7.176   4.916   3.607 -2.4445 -0.3542  0.3621
   29MOL    H7420850   7.112   4.795   3.509 -0.0112  0.4813 -1.1145
   29MOL    H7520851   7.103   5.094   3.451 -0.6365  0.0034 -2.6574
   29MOL    C7620852   6.935   4.994   3.447  0.3412  0.7542 -0.4527
   29MOL    O7720853   6.872   4.891   3.460 -0.3464 -1.0761  0.5092
   29MOL    C7820854   6.861   5.125   3.444 -0.1275 -0.7623 -0.3050
   29MOL    C7920855   6.744   5.116   3.549  0.1346 -0.7157  0.8996
   29MOL    C8020856   6.648   5.230   3.522  0.6348  0.1004 -0.6144
   29MOL    C8120857   6.527   5.220   3.611 -0.1019  0.1766 -0.1449
   29MOL    C8220858   6.541   5.287   3.756  0.3236  1.5704  0.0728
   29MOL    C8320859   6.437   5.261   3.855 -0.2902  0.2587 -0.1163
   29MOL    C8420860   6.466   5.328   3.993 -0.4336 -0.8152 -0.2130
   29MOL    C8520861   6.373   5.290   4.109 -0.6180 -0.2131 -0.5140
   29MOL    C8620862   6.408   5.372   4.230  1.3032 -0.2518  0.4717
   29MOL    C8720863   6.557   5.376   4.274 -0.2762  0.1441  0.1848
   29MOL    C8820864   6.576   5.450   4.401 -0.3396  0.2484 -0.3459
   29MOL    N8920865   6.718   5.454   4.428 -0.3428  0.4431 -0.6458
   29MOL    H9020866   6.826   5.158   3.346  0.6762  0.5929 -0.1389
   29MOL    H9120867   6.928   5.204   3.475 -0.8022  0.1657 -1.1885
   29MOL    H9220868   6.688   5.023   3.555 -1.4294  0.3173  3.3477
   29MOL    H9320869   6.785   5.131   3.649 -1.0739  1.9983  1.0424
   29MOL    H9420870   6.602   5.223   3.423 -2.4988  2.4933  0.5838
   29MOL    H9520871   6.692   5.330   3.524 -0.1100  0.4213 -0.2629
   29MOL    H9620872   6.441   5.271   3.566 -1.3506 -0.7218  1.1793
   29MOL    H9720873   6.494   5.116   3.615  0.6592 -0.0653 -0.0642
   29MOL    H9820874   6.535   5.395   3.754  1.2063  1.6141 -0.4692
   29MOL    H9920875   6.634   5.264   3.808  0.9946  2.2206 -0.8264
   29MOL   H10020876   6.445   5.154   3.873 -0.6663  0.4264  1.0709
   29MOL   H10120877   6.332   5.274   3.828 -0.8071  1.0806  2.2183
   29MOL   H10220878   6.458   5.435   3.974 -1.8077 -1.2429 -2.1745
   29MOL   H10320879   6.566   5.311   4.032 -0.1543 -1.8926 -1.3762
   29MOL   H10420880   6.375   5.191   4.152  0.0078 -0.0858 -0.2538
   29MOL   H10520881   6.269   5.305   4.080 -0.9981 -1.6590  0.0947
   29MOL   H10620882   6.346   5.325   4.306  0.0800 -0.6250 -0.7362
   29MOL   H10720883   6.378   5.476   4.213  0.8059 -0.6986 -1.5428
   29MOL   H10820884   6.607   5.432   4.195 -0.8001  0.0535 -0.2148
   29MOL   H10920885   6.600   5.277   4.286 -2.0960 -0.4345  2.2517
   29MOL   H11020886   6.530   5.399   4.486  0.4245  1.5706  0.8748
   29MOL   H11120887   6.533   5.550   4.394  2.7626  1.7426  1.0845
   29MOL   H11220888   6.774   5.451   4.344 -1.0219 -0.4554 -1.0718
   29MOL   C11320889   6.774   5.423   4.542 -0.2543 -0.5497  1.0360
   29MOL   O11420890   6.708   5.405   4.644  0.7261  0.2867  0.7796
   29MOL   C11520891   6.924   5.416   4.540  0.0471  0.2777  1.1832
   29MOL   C11620892   6.988   5.531   4.611  0.4759 -0.1121  0.6392
   29MOL   C11720893   6.987   5.667   4.542  0.2550  0.0452 -0.0894
   29MOL   C11820894   7.070   5.767   4.621 -0.8325  0.5890 -0.1105
   29MOL   C11920895   7.226   5.747   4.601  0.4912 -0.1626  0.0898
   29MOL   C12020896   7.315   5.862   4.653 -0.5986 -0.6948  0.0357
   29MOL   C12120897   7.464   5.842   4.644 -0.2415 -0.0913  0.4728
   29MOL   C12220898   7.537   5.964   4.699 -0.7501 -0.0241  0.3285
   29MOL   C12320899   7.686   5.959   4.656  0.3378 -0.2216 -0.2105
   29MOL   C12420900   7.694   6.020   4.514  0.4076  0.1796  0.7165
   29MOL   C12520901   0.124   5.993   4.435  0.2883 -0.3559  0.4523
   29MOL   N12620902   0.118   6.073   4.311  0.3050 -0.6363  0.5897
   29MOL   H12720903   6.954   5.413   4.435 -0.0149 -5.6142  1.1777
   29MOL   H12820904   6.962   5.323   4.583  0.2714  0.0434  0.4794
   29MOL   H12920905   6.947   5.541   4.712  0.2574  1.7421  0.3672
   29MOL   H13020906   7.093   5.502   4.602  0.1711 -0.6232 -1.4288
   29MOL   H13120907   6.885   5.706   4.532  0.3580 -0.2589 -2.7427
   29MOL   H13220908   7.027   5.674   4.441  0.1343 -1.2519 -0.2343
   29MOL   H13320909   7.040   5.866   4.586 -0.0072  2.0465  3.1302
   29MOL   H13420910   7.034   5.763   4.724 -0.4027 -1.5319 -0.0263
   29MOL   H13520911   7.255   5.724   4.499  1.2713  1.7419 -0.1402
   29MOL   H13620912   7.256   5.660   4.658 -0.6541  0.1658  1.2360
   29MOL   H13720913   7.290   5.896   4.753  1.3508  0.8600  0.0088
   29MOL   H13820914   7.296   5.951   4.593 -2.5901 -0.1341  1.4506
   29MOL   H13920915   7.483   5.815   4.540 -1.8888 -1.0273  0.3829
   29MOL   H14020916   7.487   5.752   4.701  2.1749 -1.4121 -2.4717
   29MOL   H14120917   7.543   5.949   4.807 -2.1656 -0.9125  0.2798
   29MOL   H14220918   7.484   6.056   4.675  0.0492 -0.1642 -2.1986
   29MOL   H14320919   0.032   5.859   4.639  1.7350  0.4794 -1.2153
   29MOL   H14420920   0.056   6.019   4.720  1.7893 -0.8653 -1.0367
   29MOL   H14520921   7.686   6.126   4.538  1.6053  0.4321 -0.0109
   29MOL   H14620922   7.606   5.996   4.454  0.1781 -0.0869  1.1501
   29MOL   H14720923   0.131   5.887   4.413 -1.5638 -0.7181  1.5695
   29MOL   H14820924   0.216   6.006   4.491  0.2495  0.1614  0.4047
   29MOL   H14920925   0.037   6.132   4.297  0.0469 -1.6635 -2.5572
   29MOL   C15020926   0.197   6.068   4.202  0.1500 -0.0825 -0.0688
   29MOL   O15120927   0.290   5.993   4.189  0.2106  0.2301  0.0604
   29MOL   C15220928   0.164   6.168   4.091  0.6148  0.3038 -0.1642
   29MOL   C15320929   0.163   6.109   3.944  0.5360  0.7882  0.8620
   29MOL   C15420930   0.052   5.998   3.911 -0.2220 -0.0741 -0.1727
   29MOL   C15520931   0.081   5.930   3.782  0.1189 -0.1295  0.4813
   29MOL   C15620932   7.654   5.857   3.718  0.9515  0.5479 -0.1340
   29MOL   C15720933   7.691   5.773   3.594  0.8910 -0.2989 -0.1815
   29MOL   C15820934   7.580   5.798   3.481 -0.3954 -0.3167 -0.1611
   29MOL   C15920935   7.600   5.696   3.367 -0.2050 -0.2608 -0.3486
   29MOL   C16020936   7.489   5.720   3.259 -0.7119  0.0822 -0.3912
   29MOL   C16120937   7.352   5.664   3.285  0.1690 -0.6471 -0.2330
   29MOL   C16220938   7.276   5.648   3.153 -0.4060  0.3207 -0.2246
   29MOL   N16320939   7.228   5.776   3.096 -0.3593  0.6338 -0.5542
   29MOL   H16420940   0.231   6.253   4.104  1.7954 -0.7253  0.5794
   29MOL   H16520941   0.064   6.205   4.114 -0.0843 -2.2426  1.1559
   29MOL   H16620942   0.166   6.192   3.874  0.8089  1.5532  1.7699
   29MOL   H16720943   0.259   6.061   3.927 -1.4952 -3.0444 -0.4486
   29MOL   H16820944   7.645   6.038   3.924 -0.4914 -1.2887  1.5517
   29MOL   H16920945   0.051   5.917   3.983  1.7420  0.5441  0.5643
   29MOL   H17020946   0.112   6.003   3.708 -0.0462  0.1905  0.7247
   29MOL   H17120947   0.156   5.854   3.802 -0.7955 -0.9319  0.9537
   29MOL   H17220948   7.569   5.919   3.687  0.0467 -1.1928 -1.2429
   29MOL   H17320949   7.619   5.787   3.794  1.2892 -0.2814 -0.7343
   29MOL   H17420950   0.009   5.664   3.599  0.7492 -0.3157 -0.1898
   29MOL   H17520951   0.089   5.812   3.553  0.2508  0.3632 -1.0020
   29MOL   H17620952   7.584   5.901   3.446 -1.2135 -0.5491 -0.9643
   29MOL   H17720953   7.479   5.768   3.509 -0.2407 -0.6624  0.0349
   29MOL   H17820954   7.595   5.591   3.396 -3.0200 -0.1691 -0.3687
   29MOL   H17920955   0.007   5.714   3.330  0.3669 -1.1957  0.7302
   29MOL   H18020956   7.524   5.680   3.164 -1.4931 -0.6868 -0.3605
   29MOL   H18120957   7.480   5.826   3.236  0.3146  0.9768  2.9157
   29MOL   H18220958   7.291   5.728   3.347  0.9365  0.2224 -0.3593
   29MOL   H18320959   7.361   5.566   3.331 -0.3503 -1.2169 -1.3085
   29MOL   H18420960   7.196   5.574   3.155  0.3847 -0.6325 -2.6919
   29MOL   H18520961   7.342   5.598   3.082  0.5442 -1.2498  1.7277
   29MOL   H18620962   7.220   5.852   3.162 -1.0736  1.3413 -1.4493
   29MOL   C18720963   7.173   5.794   2.979  0.9221 -0.0601 -0.3153
   29MOL   O18820964   7.112   5.895   2.966 -0.2601 -0.1849  0.3749
   29MOL   C18920965   7.167   5.683   2.864  0.1302  0.2820 -0.8476
   29MOL   C19020966   7.049   5.702   2.765  0.3941 -0.4937 -0.3665
   29MOL   C19120967   6.908   5.674   2.820 -0.2960  0.0469 -0.2601
   29MOL   C19220968   6.869   5.525   2.839  0.1176 -0.2742 -0.3136
   29MOL   C19320969   6.917   5.417   2.736 -0.1205 -0.3697  0.1610
   29MOL   C19420970   6.861   5.438   2.596  0.2820 -0.5815 -0.3464
   29MOL   C19520971   6.944   5.369   2.485  0.6070  0.4793 -0.1042
   29MOL   C19620972   6.982   5.219   2.498 -0.5330 -0.1521  0.2671
   29MOL   C19720973   7.067   5.174   2.380 -0.3878 -0.0861  0.6601
   29MOL   C19820974   7.078   5.018   2.372  0.8675  1.1371 -0.0036
   29MOL   C19920975   7.138   4.946   2.495 -0.6237  1.1556 -0.8461
   29MOL   N20020976   7.152   4.804   2.458  0.2813 -0.4489 -0.1672
   29MOL   H20120977   7.177   5.582   2.903 -2.1165 -0.4566 -2.0690
   29MOL   H20220978   7.263   5.696   2.815  0.2818  2.2217 -0.0694
   29MOL   H20320979   7.050   5.805   2.728 -0.2715 -0.8665 -1.4744
   29MOL   H20420980   7.065   5.638   2.678 -0.9183  1.9023 -2.4695
   29MOL   H20520981   6.838   5.733   2.761  2.5204  2.6133 -1.1588
   29MOL   H20620982   6.898   5.734   2.910  2.8963 -0.5749  0.5906
   29MOL   H20720983   6.913   5.492   2.933 -1.1082  0.8432  0.6706
   29MOL   H20820984   6.763   5.520   2.862  0.2792  1.4390  0.8962
   29MOL   H20920985   6.884   5.317   2.764  0.0792  0.0862  2.0957
   29MOL   H21020986   7.026   5.421   2.746 -0.1387  0.3343  0.1138
   29MOL   H21120987   6.858   5.545   2.574  0.0844 -0.5991 -0.4067
   29MOL   H21220988   6.763   5.394   2.580  0.4186 -1.4629  1.0781
   29MOL   H21320989   7.038   5.424   2.482  1.0915 -0.3853 -1.5054
   29MOL   H21420990   6.899   5.393   2.389  2.2657 -1.9326 -1.5517
   29MOL   H21520991   6.889   5.162   2.500 -1.3961  1.2319 -0.0804
   29MOL   H21620992   7.041   5.190   2.585 -1.6565 -1.9562  0.4639
   29MOL   H21720993   7.163   5.220   2.403 -1.1566  1.2616  1.1740
   29MOL   H21820994   7.030   5.211   2.285 -0.6193  1.2245  1.2521
   29MOL   H21920995   7.148   4.992   2.292 -0.9005  4.4767 -2.7947
   29MOL   H22020996   6.983   4.966   2.359  1.4370  0.3640 -1.1753
   29MOL   H22120997   7.084   4.958   2.589 -0.6474 -1.6079 -0.4659
   29MOL   H22220998   7.239   4.986   2.511 -0.8689  1.4251  0.0386
   29MOL   H22320999   7.193   4.795   2.366 -0.2104  1.3035 -0.5656
   29MOL   C22421000   7.114   4.696   2.526  0.6067 -0.0470 -0.4039
   29MOL   O22521001   7.064   4.706   2.638 -0.2676  0.5315 -0.4150
   29MOL   C22621002   7.130   4.566   2.452 -0.0795 -0.4517  0.4245
   29MOL   C22721003   6.990   4.498   2.436 -0.0601 -0.3953  0.4995
   29MOL   C22821004   7.023   4.351   2.404 -0.1962  0.3313 -0.1956
   29MOL   C22921005   6.889   4.274   2.384  0.0464 -0.0448  0.3297
   29MOL   C23021006   6.809   4.244   2.514  0.7897 -0.0254 -0.0132
   29MOL   C23121007   6.876   4.134   2.605 -0.3473  0.0136  0.1804
   29MOL   C23221008   6.792   4.126   2.730  0.3337 -0.1293 -0.7051
   29MOL   C23321009   6.859   4.034   2.835  0.4047 -0.1733 -0.4619
   29MOL   C23421010   6.801   4.031   2.980  0.3621  0.3380 -0.0276
   29MOL   C23521011   6.884   3.930   3.063  0.0622  1.0945 -0.0477
   29MOL   C23621012   6.816   3.893   3.196  0.2596 -0.3634  0.3223
   29MOL   N23721013   6.875   3.768   3.251  0.2000 -0.7449 -0.2452
   29MOL   H23821014   7.206   4.510   2.507  1.0359  0.4274 -0.1939
   29MOL   H23921015   7.173   4.584   2.354 -0.3407 -1.8399  0.0424
   29MOL   H24021016   6.917   4.509   2.516 -2.0289  0.2736 -1.3530
   29MOL   H24121017   6.945   4.542   2.347  1.3748 -2.9743 -1.6096
   29MOL   H24221018   7.092   4.317   2.481 -1.2171 -1.3452  0.0292
   29MOL   H24321019   7.088   4.340   2.318  1.9205 -1.0109  1.5051
   29MOL   H24421020   6.824   4.334   2.321  0.3801 -0.8697 -0.8158
   29MOL   H24521021   6.909   4.183   2.327  1.1245  0.1178  0.4458
   29MOL   H24621022   6.719   4.192   2.481  1.0998  0.3283 -1.4511
   29MOL   H24721023   6.781   4.336   2.565 -0.2752 -0.3776  0.0506
   29MOL   H24821024   6.980   4.159   2.627  0.3008 -0.0716 -2.5638
   29MOL   H24921025   6.877   4.037   2.554  1.1816  0.7572 -1.2615
   29MOL   H25021026   6.686   4.112   2.709  0.5067  1.6465 -2.9134
   29MOL   H25121027   6.793   4.226   2.775  0.8126  0.2041 -1.4439
   29MOL   H25221028   6.967   4.041   2.833  0.3648  1.1636  1.3021
   29MOL   H25321029   6.841   3.935   2.791 -0.7437 -0.3484  0.3693
   29MOL   H25421030   6.696   4.005   2.989  0.7394 -1.1841 -0.0193
   29MOL   H25521031   6.814   4.126   3.033 -1.7028 -0.1560  1.4217
   29MOL   H25621032   6.991   3.949   3.072 -0.0896  0.4963  3.4727
   29MOL   H25721033   6.879   3.838   3.005  2.1447  0.3274  0.9490
   29MOL   H25821034   6.709   3.888   3.181  0.1062 -0.1651  1.3038
   29MOL   H25921035   6.827   3.984   3.256 -0.4476 -0.7200  0.9966
   29MOL   H26021036   6.975   3.758   3.251  0.2958 -0.8114  3.8015
   29MOL   C26121037   6.802   3.675   3.315 -0.0799 -0.3696 -0.7798
   29MOL   O26221038   6.677   3.669   3.311 -0.0891 -0.3621 -0.0734
   29MOL   C26321039   6.871   3.572   3.400 -0.0521 -0.4078  0.2211
   29MOL   C26421040   6.944   3.468   3.319  0.2997 -0.4334  0.0907
   29MOL   C26521041   7.008   3.356   3.402 -0.4559 -0.8513 -0.0528
   29MOL   C26621042   7.082   3.274   3.299 -0.0365  0.0295 -0.5004
   29MOL   C26721043   7.069   3.126   3.324  0.2368  0.3001  0.2982
   29MOL   C26821044   7.142   3.036   3.225 -0.9432  0.9982  0.0320
   29MOL   C26921045   7.111   2.888   3.263 -0.1145 -0.6029 -0.2757
   29MOL   C27021046   7.206   2.796   3.193  0.1744 -0.1964  0.5542
   29MOL   C27121047   7.201   2.646   3.236 -0.0281  0.9012 -0.1087
   29MOL   C27221048   7.256   2.617   3.382 -0.6598 -0.1158 -0.3939
   29MOL   C27321049   7.227   2.466   3.424 -0.1155  0.2252  0.3553
   29MOL   N27421050   7.307   2.421   3.538  0.5760 -0.0036  0.1066
   29MOL   H27521051   6.801   3.530   3.472 -2.0309  0.7996 -0.9462
   29MOL   H27621052   6.948   3.611   3.467  1.9858 -1.1868 -1.6004
   29MOL   H27721053   6.875   3.425   3.246 -1.0763  1.4766  0.2471
   29MOL   H27821054   7.013   3.521   3.253 -0.6962 -2.5716 -2.7939
   29MOL   H27921055   6.926   3.310   3.456 -1.2459 -1.7129 -1.9274
   29MOL   H28021056   7.074   3.402   3.475 -0.6269  1.5144 -1.3298
   29MOL   H28121057   7.040   3.287   3.199 -4.7359 -1.0673  1.2405
   29MOL   H28221058   7.186   3.307   3.287  0.9776 -1.4073  3.5409
   29MOL   H28321059   6.963   3.102   3.333 -0.2642  1.6262 -1.7892
   29MOL   H28421060   7.107   3.099   3.423  4.2562  0.4710 -1.0970
   29MOL   H28521061   7.247   3.061   3.238 -0.6662  0.3627 -0.8813
   29MOL   H28621062   7.115   3.061   3.122 -1.8036 -0.8474 -0.2241
   29MOL   H28721063   7.006   2.868   3.246 -0.0018 -0.3841 -1.2758
   29MOL   H28821064   7.124   2.869   3.369 -0.7014 -1.7011 -0.3935
   29MOL   H28921065   7.303   2.841   3.214 -0.1321  1.3520 -1.1541
   29MOL   H29021066   7.197   2.785   3.085 -1.5476 -0.6627  0.7194
   29MOL   H29121067   7.255   2.590   3.158 -1.1195 -1.3283  0.6929
   29MOL   H29221068   7.101   2.604   3.227 -0.0496  1.3559 -2.5025
   29MOL   H29321069   7.204   2.685   3.449  0.6380  0.9227 -0.4165
   29MOL   H29421070   7.363   2.640   3.391 -0.7813 -0.5283  2.5623
   29MOL   H29521071   7.243   2.403   3.337 -0.4010 -0.5881  0.8881
   29MOL   H29621072   7.121   2.452   3.446 -0.4604  1.3564 -0.5054
   29MOL   H29721073   7.404   2.403   3.516  0.1246 -1.7498 -0.5286
   29MOL   C29821074   7.272   2.419   3.669 -0.4090 -0.6484 -0.2185
   29MOL   O29921075   7.160   2.443   3.709  0.4478 -0.0474  0.2291
   29MOL   C30021076   7.377   2.386   3.771  0.1468 -0.3736 -0.1436
   29MOL   C30121077   7.396   2.242   3.812 -0.1932  0.5392 -0.0047
   29MOL   C30221078   7.526   2.202   3.878  0.0670  0.0088 -0.1394
   29MOL   C30321079   7.524   2.051   3.912  0.2340 -0.8308 -0.5195
   29MOL   C30421080   7.650   2.012   4.003  0.2164  0.1974 -0.1402
   29MOL   C30521081   7.628   1.903   4.106 -0.1153 -0.5631 -0.2404
   29MOL   C30621082   7.533   1.935   4.218 -0.6000 -0.0472  0.7905
   29MOL   C30721083   7.520   1.823   4.325 -0.4669 -0.6425  1.0607
   29MOL   C30821084   7.435   1.880   4.438 -1.0213 -0.5517 -0.3501
   29MOL   C30921085   7.295   1.922   4.420 -0.2600  0.5994  0.2467
   29MOL   C31021086   7.245   2.035   4.512 -0.8194 -0.5477  0.1590
   29MOL   N31121087   7.108   2.069   4.491 -0.1240  0.3977  0.1227
   29MOL   H31221088   7.358   2.452   3.856  0.0402 -1.5147  0.7261
   29MOL   H31321089   7.474   2.419   3.735 -0.5704  0.8618 -0.9964
   29MOL   H31421090   7.312   2.214   3.876 -0.0318  1.8634  0.8026
   29MOL   H31521091   7.384   2.184   3.720 -1.2174  1.4234 -0.4349
   29MOL   H31621092   7.538   2.258   3.970 -0.6931 -0.0055 -0.0290
   29MOL   H31721093   7.614   2.218   3.815  0.3003 -0.4198  0.0761
   29MOL   H31821094   7.435   2.034   3.973 -0.4393 -0.0652 -1.2730
   29MOL   H31921095   7.519   1.977   3.832 -1.2767  0.3349 -1.5292
   29MOL   H32021096   7.678   2.099   4.063  3.0434 -0.7757 -0.0008
   29MOL   H32121097   0.043   1.986   3.943  0.0710  0.5127 -0.4843
   29MOL   H32221098   0.033   1.876   4.145  0.0897  2.0116  1.0912
   29MOL   H32321099   7.588   1.809   4.066  1.1699 -1.8549  1.4171
   29MOL   H32421100   7.435   1.949   4.174  0.3029  0.2165 -1.1882
   29MOL   H32521101   7.562   2.035   4.251  0.7589  0.1584 -0.9571
   29MOL   H32621102   7.624   1.807   4.356  0.5318  0.7602 -1.4075
   29MOL   H32721103   7.491   1.726   4.285  0.7123 -1.6463  2.5580
   29MOL   H32821104   7.485   1.964   4.487 -3.7260  1.8271 -1.5935
   29MOL   H32921105   7.432   1.801   4.514  2.6478 -0.8105 -0.3730
   29MOL   H33021106   7.236   1.831   4.429  0.8132 -0.1849 -0.5465
   29MOL   H33121107   7.290   1.960   4.318 -0.3457 -0.8091 -0.2841
   29MOL   H33221108   7.314   2.118   4.496  0.0811 -1.5393 -1.2272
   29MOL   H33321109   7.260   2.004   4.616 -0.1594 -1.4561 -0.2013
   29MOL   H33421110   7.082   2.124   4.410  1.4820  0.7641 -0.1649
   29MOL   C33521111   7.010   2.013   4.559  0.9893  0.0674  0.0869
   29MOL   O33621112   7.030   1.969   4.670 -0.4101  0.1801  0.0687
   29MOL   C33721113   6.869   2.014   4.499 -0.7027  0.3173 -0.0311
   29MOL   C33821114   6.748   1.940   4.573 -0.0166  0.1765 -0.1167
   29MOL   C33921115   6.711   1.993   4.716 -0.1969 -0.0343 -0.1254
   29MOL   C34021116   6.594   1.921   4.773 -0.5491 -0.1767  0.2826
   29MOL   C34121117   6.515   1.992   4.884  0.3840  0.2778 -0.6484
   29MOL   C34221118   6.382   1.911   4.899  0.4118  0.6033 -0.1404
   29MOL   C34321119   6.325   1.937   5.037  0.1650  0.2122  0.0124
   29MOL   C34421120   6.211   1.845   5.069  0.8927 -0.5194 -0.2131
   29MOL   C34521121   6.149   1.855   5.213 -0.7837 -0.0222 -0.1243
   29MOL   C34621122   6.028   1.760   5.231  1.0341  0.1531 -0.2611
   29MOL   C34721123   5.958   1.764   5.369 -0.7056 -0.2093 -0.1291
   29MOL   N34821124   5.937   1.902   5.400 -0.2984  0.3115  0.5908
   29MOL   H34921125   6.872   1.974   4.398  0.6266  0.7708 -0.1813
   29MOL   H35021126   6.841   2.120   4.496  1.3438  0.8184 -3.3156
   29MOL   H35121127   6.660   1.939   4.509  0.5322 -2.8493 -0.9240
   29MOL   H35221128   6.785   1.838   4.578  0.6013  0.3019 -1.7643
   29MOL   H35321129   6.693   2.101   4.712  0.2701  0.1516  2.3859
   29MOL   H35421130   6.800   1.994   4.778 -1.3512  4.3973  1.6394
   29MOL   H35521131   6.536   1.887   4.687  1.4754 -2.2111 -0.3304
   29MOL   H35621132   6.625   1.832   4.827  1.9766  0.4407 -0.1041
   29MOL   H35721133   6.501   2.098   4.861 -0.8816 -0.0578 -1.5539
   29MOL   H35821134   6.582   1.984   4.969  0.2784  1.4259 -0.4520
   29MOL   H35921135   6.403   1.805   4.883 -3.4477 -0.3069  0.3989
   29MOL   H36021136   6.317   1.949   4.822  2.1362  3.3016 -0.3275
   29MOL   H36121137   6.300   2.043   5.037  1.2802  0.5036  2.2796
   29MOL   H36221138   6.397   1.919   5.117  0.5099 -0.4627 -0.4458
   29MOL   H36321139   6.247   1.742   5.061  0.5642 -0.5984 -0.7007
   29MOL   H36421140   6.134   1.860   4.993  0.9933  2.4918  0.2324
   29MOL   H36521141   6.113   1.957   5.224 -1.8616 -0.3246 -0.7620
   29MOL   H36621142   6.226   1.839   5.289  0.6513 -1.6634 -1.8813
   29MOL   H36721143   6.068   1.660   5.213 -2.4182 -1.8455  2.4648
   29MOL   H36821144   5.955   1.760   5.151  0.6416 -1.6066  0.0863
   29MOL   H36921145   6.027   1.713   5.437  0.7385  3.5461  1.3622
   29MOL   H37021146   5.858   1.721   5.372 -0.4315 -0.8728 -0.4775
   29MOL   H37121147   5.892   1.949   5.323 -1.8031 -0.9385  0.6910
   29MOL   C37221148   5.952   1.959   5.519  0.6505  0.7041  0.1044
   29MOL   O37321149   5.992   1.894   5.614 -0.0328  0.0777 -0.4798
   29MOL   C37421150   5.923   2.110   5.532 -0.6939 -0.3583 -0.4999
   29MOL   C37521151   5.825   2.150   5.652 -0.2843  0.2401 -0.9056
   29MOL   C37621152   5.676   2.115   5.637  0.9390 -1.0242 -0.2785
   29MOL   C37721153   5.571   2.169   5.735  1.3042 -0.3365  0.0265
   29MOL   C37821154   5.429   2.116   5.714 -0.0686 -0.3087 -0.1584
   29MOL   C37921155   5.314   2.174   5.798  0.1850 -0.6457  0.3298
   29MOL   C38021156   5.176   2.118   5.763  0.7082  0.3047  0.1241
   29MOL   C38121157   5.138   2.117   5.617  0.9544 -0.5528  0.7777
   29MOL   C38221158   5.022   2.015   5.591  1.0789  0.7004 -0.1796
   29MOL   C38321159   4.991   2.009   5.435 -0.5540 -0.6748  0.5922
   29MOL   C38421160   4.922   2.135   5.381  0.3864  0.0772 -0.1231
   29MOL   N38521161   4.866   2.128   5.249 -0.1537 -0.3523  0.3324
   29MOL   H38621162   5.863   2.148   5.450  0.8923  1.9854 -0.6106
   29MOL   H38721163   6.015   2.168   5.538  1.3566 -3.5000  0.1580
   29MOL   H38821164   5.853   2.112   5.750 -0.7598  1.6503 -0.2019
   29MOL   H38921165   5.840   2.258   5.652  0.3351  0.1730  1.5488
   29MOL   H39021166   5.660   2.008   5.646 -2.4361 -0.5856 -0.5200
   29MOL   H39121167   5.651   2.141   5.534  1.4521 -1.7951 -0.5987
   29MOL   H39221168   5.595   2.153   5.840  1.4643  0.6888  0.1440
   29MOL   H39321169   5.569   2.276   5.718  1.2892 -0.8555 -3.7057
   29MOL   H39421170   5.438   2.007   5.721  1.6344 -0.1378  0.4963
   29MOL   H39521171   5.400   2.140   5.612 -1.6023 -2.7265 -0.3372
   29MOL   H39621172   5.319   2.282   5.788  1.6169 -0.8260 -1.0369
   29MOL   H39721173   5.334   2.152   5.904  0.6458 -1.0323  0.1678
   29MOL   H39821174   5.096   2.163   5.822  0.8361  2.4482 -1.3072
   29MOL   H39921175   5.187   2.015   5.799  0.3564  1.7579  4.7754
   29MOL   H40021176   5.214   2.083   5.547 -0.7916  0.3750 -1.6314
   29MOL   H40121177   5.101   2.215   5.585  0.4372 -1.4518 -1.4914
   29MOL   H40221178   4.935   2.054   5.644  0.1182 -1.0673 -0.4260
   29MOL   H40321179   5.046   1.917   5.633 -0.5679  0.5350  0.4191
   29MOL   H40421180   4.922   1.927   5.420 -3.0933  1.5096 -0.0072
   29MOL   H40521181   5.081   1.987   5.378 -1.5004  1.5921 -1.8617
   29MOL   H40621182   4.994   2.217   5.378  2.4379 -1.6911 -1.3729
   29MOL   H40721183   4.849   2.168   5.454  0.8868  2.9678 -0.8919
   29MOL   H40821184   4.907   2.176   5.170 -1.6415  0.3337 -0.0388
   29MOL   C40921185   4.737   2.097   5.229  0.4327 -0.3281  0.0486
   29MOL   O41021186   4.668   2.057   5.320 -0.0177  0.4866 -0.2083
   29MOL   C41121187   4.683   2.121   5.087  0.5558 -0.5860  0.3216
   29MOL   C41221188   4.602   2.002   5.025  0.3258  0.0082  0.1311
   29MOL   C41321189   4.453   2.029   5.015 -0.6592 -0.1881  0.0087
   29MOL   C41421190   4.376   1.899   4.999 -0.8232  0.2239  0.5790
   29MOL   C41521191   4.231   1.922   4.972  0.3362 -0.1290 -0.1931
   29MOL   C41621192   4.153   1.785   4.953 -0.8571  0.1841  0.4658
   29MOL   C41721193   4.144   1.732   4.808  0.0125  0.4069  0.1993
   29MOL   C41821194   4.085   1.590   4.794 -0.3781 -0.8072  0.0554
   29MOL   C41921195   4.085   1.539   4.647 -0.0670  0.5820 -0.1702
   29MOL   C42021196   3.995   1.420   4.627 -0.5235 -0.8007 -0.2427
   29MOL   C42121197   4.010   1.367   4.482  0.0326  0.0823 -0.0292
   29MOL   N42221198   3.970   1.459   4.374 -0.8704  0.0133  0.2402
   29MOL   H42321199   4.767   2.141   5.020  3.0923 -1.2598  3.2108
   29MOL   H42421200   4.625   2.213   5.099  0.4900 -0.9423  3.0823
   29MOL   H42521201   4.660   1.971   4.937  3.3734 -0.9587  2.3765
   29MOL   H42621202   4.611   1.911   5.085  2.9330 -0.2680 -0.6120
   29MOL   H42721203   4.449   2.095   4.928  2.8688 -3.3015 -2.6461
   29MOL   H42821204   4.409   2.085   5.098 -1.6880 -0.8690 -0.0717
   29MOL   H42921205   4.424   1.850   4.915 -0.0751  0.7182  0.7103
   29MOL   H43021206   4.389   1.839   5.089  0.0948  0.7501  0.8056
   29MOL   H43121207   4.219   1.987   4.886 -2.9471  0.4403  0.5964
   29MOL   H43221208   4.182   1.974   5.055  2.3447  1.7623 -0.1456
   29MOL   H43321209   4.050   1.801   4.987 -0.4847  0.4990  1.4632
   29MOL   H43421210   4.209   1.719   5.018 -1.0122  0.7329  1.1611
   29MOL   H43521211   4.244   1.741   4.765 -0.4383  1.1921 -0.6973
   29MOL   H43621212   4.081   1.804   4.756 -0.4549  1.7645  2.5829
   29MOL   H43721213   3.985   1.607   4.835  0.4374 -0.3567  1.8986
   29MOL   H43821214   4.140   1.527   4.864  2.8139  2.0222  0.2237
   29MOL   H43921215   4.187   1.503   4.635 -0.7237 -1.8612  1.2101
   29MOL   H44021216   4.051   1.619   4.581 -2.0897 -2.3299 -2.8093
   29MOL   H44121217   3.894   1.457   4.644 -1.4481 -1.7017 -3.4880
   29MOL   H44221218   4.006   1.350   4.709 -0.1588  0.5718  0.9025
   29MOL   H44321219   3.959   1.271   4.471  0.7478 -0.6431  2.6564
   29MOL   H44421220   4.114   1.339   4.466 -0.3779 -1.1495 -0.5690
   29MOL   H44521221   3.927   1.544   4.408 -2.4147 -0.4840 -0.4245
   29MOL   C44621222   4.000   1.444   4.240 -1.5453  0.2568 -0.2566
   29MOL   O44721223   4.071   1.357   4.193  0.7977  0.2682  0.0838
   29MOL   C44821224   3.943   1.545   4.149  0.0272 -0.2384  0.3789
   29MOL   C44921225   4.032   1.664   4.113  0.0994  0.4387  0.1527
   29MOL   C45021226   4.140   1.631   4.004 -0.1481  0.6135 -0.1361
   29MOL   C45121227   4.206   1.759   3.954 -0.6326  0.0943 -0.2815
   29MOL   C45221228   4.288   1.740   3.829 -0.3076 -0.7649 -0.8655
   29MOL   C45321229   4.203   1.720   3.705  1.6038  0.8464  0.3964
   29MOL   C45421230   4.298   1.733   3.581  0.3870 -0.2943  0.0240
   29MOL   C45521231   4.241   1.653   3.466  0.4521 -0.0692 -0.1687
   29MOL   C45621232   4.339   1.644   3.350 -0.1934  0.0469  0.0840
   29MOL   C45721233   4.294   1.539   3.248  0.5365 -0.6912  0.0838
   29MOL   C45821234   4.380   1.547   3.117  0.0478 -0.8530 -0.3893
   29MOL   N45921235   4.337   1.447   3.014 -0.1552  0.4874  0.0816
   29MOL   H46021236   3.847   1.585   4.184  0.1973 -2.4330  3.6781
   29MOL   H46121237   3.916   1.492   4.057 -3.2661  2.4395 -0.3149
   29MOL   H46221238   3.969   1.747   4.082 -0.1822  1.2563  2.7386
   29MOL   H46321239   4.079   1.697   4.206  0.8200  0.4023 -0.1951
   29MOL   H46421240   4.099   1.573   3.922 -0.0676  0.7455 -0.2697
   29MOL   H46521241   4.219   1.566   4.042 -0.5991 -0.3034 -0.7498
   29MOL   H46621242   4.129   1.837   3.957 -1.1710 -0.4680  1.2162
   29MOL   H46721243   4.282   1.788   4.027  1.1296  1.2725 -2.5227
   29MOL   H46821244   4.348   1.651   3.842 -0.5132 -0.4330  3.0503
   29MOL   H46921245   4.354   1.827   3.825  1.6922 -2.1729  0.7259
   29MOL   H47021246   4.135   1.804   3.697 -0.7802 -1.2386 -2.1184
   29MOL   H47121247   4.138   1.633   3.707 -0.6170  2.4811  0.3638
   29MOL   H47221248   4.401   1.707   3.605  0.7613 -0.9882 -2.2443
   29MOL   H47321249   4.296   1.841   3.565  1.6894 -0.2380  0.2206
   29MOL   H47421250   4.149   1.705   3.438 -0.2629 -1.1175  0.1643
   29MOL   H47521251   4.209   1.554   3.501  0.7128 -0.1139 -0.0592
   29MOL   H47621252   4.437   1.608   3.382  0.6929 -0.5304 -3.1117
   29MOL   H47721253   4.350   1.745   3.310  0.7320  0.2269  0.7806
   29MOL   H47821254   4.188   1.546   3.227  0.9220  0.9051 -1.4809
   29MOL   H47921255   4.314   1.447   3.302  0.8979 -1.0899 -0.7136
   29MOL   H48021256   4.482   1.516   3.141 -0.7678 -0.3290  4.2355
   29MOL   H48121257   4.384   1.651   3.081 -1.3962 -0.0323  1.7572
   29MOL   H48221258   4.307   1.357   3.048  1.9726  0.7896  2.9664
   29MOL   C48321259   4.343   1.469   2.883 -0.1643 -0.2538  0.5373
   29MOL   O48421260   4.383   1.577   2.841  0.3827  0.3352  0.3151
   29MOL   C48521261   4.296   1.360   2.785 -0.1080 -0.7611  0.5611
   29MOL   C48621262   4.408   1.311   2.684 -0.6842 -0.2568 -0.3535
   29MOL   C48721263   4.537   1.251   2.752 -0.1221 -0.4291 -0.6089
   29MOL   C48821264   4.516   1.110   2.820  0.3922 -0.4611  0.3578
   29MOL   C48921265   4.457   1.000   2.722  0.5199  0.7883  0.5378
   29MOL   C49021266   4.446   0.860   2.788 -0.4335  0.5181  0.2754
   29MOL   C49121267   4.385   0.751   2.705 -0.0540 -0.4340  0.3996
   29MOL   C49221268   4.477   0.701   2.589 -0.6259 -0.5163  0.2148
   29MOL   C49321269   4.405   0.652   2.461  0.5820  0.1673 -0.3279
   29MOL   C49421270   4.489   0.639   2.334  0.1614 -0.0761 -0.6357
   29MOL   C49521271   4.389   0.630   2.213  0.0419 -1.0307  1.0439
   29MOL   N49621272   4.453   0.615   2.075 -0.5288 -0.2093 -0.3392
   29MOL   H49721273   4.212   1.401   2.728 -0.4439 -0.3021  1.3729
   29MOL   H49821274   4.245   1.283   2.842  0.6508 -1.3158  0.4921
   29MOL   H49921275   4.367   1.234   2.619 -0.6300  0.3124 -1.0654
   29MOL   H50021276   4.441   1.386   2.613 -2.8575 -0.7385 -1.9248
   29MOL   H50121277   4.589   1.323   2.815 -1.1556  1.0710 -1.4491
   29MOL   H50221278   4.611   1.233   2.675 -0.7144 -0.3116 -1.2042
   29MOL   H50321279   4.619   1.081   2.842  0.6048 -0.7016 -0.9087
   29MOL   H50421280   4.454   1.113   2.910 -0.8721  2.6627 -0.5431
   29MOL   H50521281   4.517   1.003   2.631  0.4955  0.6439  0.5156
   29MOL   H50621282   4.355   1.037   2.712  1.1156  2.2549 -0.2122
   29MOL   H50721283   4.371   0.867   2.867 -0.0743 -0.4886  0.7173
   29MOL   H50821284   4.536   0.823   2.837 -1.0072  0.8236  1.6027
   29MOL   H50921285   4.292   0.787   2.659 -0.4993 -1.6491  0.3299
   29MOL   H51021286   4.354   0.666   2.766  0.1332  0.3993  1.6733
   29MOL   H51121287   4.552   0.632   2.628  0.0386  0.2976  0.3797
   29MOL   H51221288   4.514   0.799   2.560 -0.6488 -0.2879  0.9344
   29MOL   H51321289   4.317   0.714   2.440 -1.1133 -1.3229  2.0800
   29MOL   H51421290   4.356   0.559   2.491  0.2428  0.2763 -0.5336
   29MOL   H51521291   4.552   0.550   2.341 -1.2358 -1.1262 -1.1076
   29MOL   H51621292   4.563   0.718   2.333  2.4920 -2.1734  0.4376
   29MOL   H51721293   4.330   0.722   2.214  0.2454 -0.9105  3.5606
   29MOL   H51821294   4.314   0.551   2.217 -2.4473  1.1935  0.2285
   29MOL   H51921295   4.511   0.534   2.060  0.7375  1.0087 -2.2003
   29MOL   C52021296   4.441   0.703   1.975 -0.9414 -0.1031 -0.4791
   29MOL   O52121297   4.367   0.801   1.979  0.1438 -0.4240 -0.6515
   29MOL   C52221298   4.524   0.671   1.849 -0.1438  0.2249  0.6096
   29MOL   C52321299   4.450   0.698   1.711  0.5737 -0.2161 -0.4505
   29MOL   C52421300   4.477   0.593   1.607  0.0710 -0.1562  0.1197
   29MOL   C52521301   4.605   0.612   1.530 -0.6795 -0.3360 -0.5104
   29MOL   C52621302   4.644   0.484   1.451 -0.3479 -0.2503  0.3082
   29MOL   C52721303   4.755   0.510   1.356 -0.5805 -0.0792  0.1667
   29MOL   C52821304   4.813   0.380   1.300  0.4458  0.0533  0.0753
   29MOL   C52921305   4.712   0.308   1.209  0.1765 -0.1216 -0.0555
   29MOL   C53021306   4.767   0.168   1.160  0.4133 -0.1367  0.8849
   29MOL   C53121307   4.655   0.081   1.092  0.1240 -0.3281 -0.5070
   29MOL   C53221308   4.639   0.121   0.946 -0.5859 -0.1342  0.3079
   29MOL   N53321309   4.604   0.261   0.926  0.2318  0.2486  0.1156
   29MOL   H53421310   4.558   0.568   1.846 -0.9888 -0.0321 -0.0831
   29MOL   H53521311   4.618   0.725   1.839  0.7194 -1.5984 -1.5846
   29MOL   H53621312   4.341   0.695   1.723  0.8351  0.1971  2.3785
   29MOL   H53721313   4.474   0.800   1.680  0.2380 -0.2982 -0.9851
   29MOL   H53821314   4.390   0.595   1.542 -0.7619 -1.8607  1.1566
   29MOL   H53921315   4.479   0.494   1.651 -0.9035  0.2107  0.9858
   29MOL   H54021316   4.594   0.694   1.459  2.0167  1.0060  0.5845
   29MOL   H54121317   4.678   0.656   1.598 -2.7734  0.1898  1.5159
   29MOL   H54221318   4.556   0.459   1.391 -0.4130  1.9137 -0.5805
   29MOL   H54321319   4.662   0.414   1.532  0.5036  2.2353  2.3169
   29MOL   H54421320   4.834   0.547   1.421  2.1038 -1.3834 -2.2326
   29MOL   H54521321   4.717   0.574   1.277 -0.8560  1.2643  1.3570
   29MOL   H54621322   4.827   0.311   1.383 -0.9739  0.5074  0.7157
   29MOL   H54721323   4.907   0.385   1.245 -0.1223  1.3444 -0.8295
   29MOL   H54821324   4.695   0.376   1.126 -1.2315 -0.9754 -0.4809
   29MOL   H54921325   4.615   0.306   1.259 -0.3095 -0.0226 -0.9820
   29MOL   H55021326   4.799   0.115   1.250  2.6963 -0.7557 -0.2544
   29MOL   H55121327   4.854   0.181   1.096  1.2167  1.7318  2.2961
   29MOL   H55221328   4.564   0.078   1.151  0.1318 -1.1908 -0.5362
   29MOL   H55321329   4.694   7.673   1.097 -0.7382 -0.5970  1.0901
   29MOL   H55421330   4.561   0.056   0.906  0.0991  0.2245 -1.6795
   29MOL   H55521331   4.728   0.093   0.890 -0.4661 -1.6292  1.2025
   29MOL   H55621332   4.677   0.328   0.905 -0.3075  1.2067  1.2387
   29MOL   C55721333   4.487   0.318   0.953  0.9214  0.5712 -0.2311
   29MOL   O55821334   4.393   0.248   0.985  0.4981 -0.1537 -0.0854
   29MOL   C55921335   4.469   0.468   0.931 -0.2329 -0.0989 -0.7259
   29MOL   C56021336   4.321   0.497   0.892 -0.3027 -0.3670 -0.4885
   29MOL   C56121337   4.309   0.641   0.826 -0.3345  0.5201  0.0726
   29MOL   C56221338   4.174   0.658   0.760  0.2492  0.0992  0.5025
   29MOL   C56321339   4.178   0.759   0.646 -0.2755 -0.2641 -0.5031
   29MOL   C56421340   4.040   0.787   0.588 -0.1622 -0.0636  0.4989
   29MOL   C56521341   3.953   0.877   0.679 -0.0957 -0.3184  0.1048
   29MOL   C56621342   4.020   0.992   0.749 -0.5160 -0.2898 -0.6509
   29MOL   C56721343   3.919   1.085   0.824 -0.4859 -0.0527  0.7593
   29MOL   C56821344   3.994   1.189   0.915  0.0468  0.6576 -0.3734
   29MOL   C56921345   3.915   1.318   0.945  0.2528 -0.6318  0.3000
   29MOL   N57021346   3.790   1.288   0.995  0.4120  0.4095 -0.2589
   29MOL   H57121347   4.548   0.510   0.868 -0.6459  1.4921 -0.2145
   29MOL   H57221348   4.479   0.506   1.033  1.2194  0.1392 -0.9425
   29MOL   H57321349   4.289   0.410   0.834  0.9334 -1.4948  0.4697
   29MOL   H57421350   4.254   0.491   0.978 -0.0412  0.1969 -0.2441
   29MOL   H57521351   4.389   0.649   0.753  0.5051 -0.2890  0.8920
   29MOL   H57621352   4.312   0.728   0.892 -0.0244  0.2515  0.4157
   29MOL   H57721353   4.131   0.560   0.743  1.5699 -1.0098  3.1474
   29MOL   H57821354   4.098   0.675   0.836  2.0316  2.5236  1.8085
   29MOL   H57921355   4.256   0.718   0.582  0.5584  0.6399 -0.0845
   29MOL   H58021356   4.219   0.850   0.689 -2.7746  0.7537 -0.2000
   29MOL   H58121357   3.991   0.690   0.575 -2.1534  1.0611 -0.6443
   29MOL   H58221358   4.054   0.826   0.487  0.4915 -0.4709  0.4261
   29MOL   H58321359   3.898   0.811   0.746 -1.7970  0.9900  0.0115
   29MOL   H58421360   3.869   0.919   0.624  1.0845 -0.0483 -1.5404
   29MOL   H58521361   4.074   1.059   0.681  0.2722  2.3487  2.4485
   29MOL   H58621362   4.096   0.964   0.822  0.0953  0.4985 -0.9722
   29MOL   H58721363   3.836   1.039   0.876 -2.4206  1.0013 -1.3114
   29MOL   H58821364   3.860   1.136   0.748 -1.0305 -0.0764  1.1676
   29MOL   H58921365   4.084   1.223   0.864  0.6832 -0.8845 -0.2823
   29MOL   H59021366   4.030   1.139   1.005 -1.6766  1.2662  0.6854
   29MOL   H59121367   3.921   1.379   0.855 -0.8102 -0.4740  0.3249
   29MOL   H59221368   3.971   1.378   1.017  0.1999  2.0805 -1.8383
   29MOL   H59321369   3.773   1.196   1.034 -1.4869  1.1927  0.8553
   29MOL   C59421370   3.680   1.365   1.018 -0.0768 -0.5520  0.6886
   29MOL   O59521371   3.672   1.483   0.979  0.4874 -0.5569 -0.1496
   29MOL   C59621372   3.553   1.304   1.081  0.5564  0.3150  0.3955
   29MOL   C59721373   3.475   1.403   1.175  0.5121 -0.1798 -0.3707
   29MOL   C59821374   3.349   1.333   1.239 -0.1461  0.3463 -0.0684
   29MOL   C59921375   3.242   1.417   1.310  0.0803 -0.3389  0.0697
   29MOL   C60021376   3.135   1.327   1.373  0.1876 -0.7775 -0.6100
   29MOL   C60121377   3.011   1.409   1.413  0.4439  0.1416 -0.2480
   29MOL   C60221378   2.894   1.337   1.478 -0.4572 -0.3017 -0.0654
   29MOL   C60321379   2.767   1.425   1.495  0.3620  0.0698 -0.0192
   29MOL   C60421380   2.649   1.372   1.582  0.0082 -0.0577 -0.3245
   29MOL   C60521381   2.537   1.485   1.591  0.5136  0.0979  0.7270
   29MOL   C60621382   2.399   1.444   1.643  0.2039 -0.3878 -0.0598
   29MOL   N60721383   2.410   1.394   1.775 -0.3009 -0.4050 -0.0113
   29MOL   H60821384   3.590   1.220   1.139  0.1679 -1.4941 -1.9083
   29MOL   H60921385   3.490   1.269   0.998  2.0550  0.0230 -0.6353
   29MOL   H61021386   3.535   1.458   1.249 -0.7633  0.3499  0.2933
   29MOL   H61121387   3.439   1.486   1.115  0.6906  1.3228  1.5356
   29MOL   H61221388   3.382   1.250   1.302 -2.9373 -0.5113  0.3376
   29MOL   H61321389   3.296   1.286   1.156  0.4258 -0.6568  0.1211
   29MOL   H61421390   3.283   1.479   1.391 -0.5675 -0.0171  0.1529
   29MOL   H61521391   3.210   1.491   1.237  0.9547  1.3222  1.3258
   29MOL   H61621392   3.189   1.288   1.460  2.4069  0.9235 -1.1974
   29MOL   H61721393   3.109   1.251   1.298 -3.6074  1.9867 -2.2548
   29MOL   H61821394   2.965   1.449   1.323 -1.9272 -1.4417  0.2385
   29MOL   H61921395   3.051   1.495   1.468 -1.1639  0.5883  0.2404
   29MOL   H62021396   2.925   1.293   1.573 -0.3460 -0.4259 -0.1589
   29MOL   H62121397   2.862   1.253   1.417 -1.0011 -0.1454 -0.0001
   29MOL   H62221398   2.721   1.432   1.396  0.1975  0.2985  0.0720
   29MOL   H62321399   2.795   1.529   1.513  0.7742 -0.1808  0.7887
   29MOL   H62421400   2.669   1.342   1.685 -0.4835  1.8950  0.3669
   29MOL   H62521401   2.614   1.276   1.545  3.2999 -2.2728  2.1046
   29MOL   H62621402   2.519   1.526   1.492 -0.2660 -1.4827  0.1937
   29MOL   H62721403   2.572   1.560   1.663  1.3964  0.3408  0.0586
   29MOL   H62821404   2.356   1.372   1.574  0.2555  1.1063 -1.6995
   29MOL   H62921405   2.338   1.534   1.637  1.7859  0.6040 -2.0294
   29MOL   H63021406   2.496   1.349   1.802  0.9180  0.6775 -1.9248
   29MOL   C63121407   2.303   1.387   1.850 -0.3404 -0.1672  0.6135
   29MOL   O63221408   2.201   1.456   1.829  0.5092 -0.0038  0.1012
   29MOL   C63321409   2.314   1.306   1.979 -0.5283  0.3768  0.6115
   29MOL   C63421410   2.186   1.233   2.005  0.3909  0.1575  0.5484
   29MOL   C63521411   2.148   1.133   1.889 -0.3338 -0.1907 -0.4128
   29MOL   C63621412   2.049   1.029   1.941 -0.5970 -0.0343 -0.7940
   29MOL   C63721413   1.981   0.954   1.827  0.3409 -0.0122 -0.4241
   29MOL   C63821414   1.891   0.842   1.884 -0.2694 -0.6257  0.1221
   29MOL   C63921415   1.850   0.750   1.767  0.1513  0.5810  0.7783
   29MOL   C64021416   1.773   0.629   1.823  0.0708  0.3237 -0.1515
   29MOL   C64121417   1.653   0.576   1.736 -0.6640 -0.0742  0.0375
   29MOL   C64221418   1.703   0.503   1.613 -0.3477 -0.0025  0.2895
   29MOL   C64321419   1.595   0.460   1.520 -0.1527  0.1248 -0.0075
   29MOL   N64421420   1.528   0.570   1.445 -0.6305  0.4767 -0.4187
   29MOL   H64521421   2.341   1.365   2.067  0.6301 -2.1178  1.9682
   29MOL   H64621422   2.392   1.231   1.968 -0.5892  0.2222  1.2399
   29MOL   H64721423   2.202   1.179   2.098  0.5999 -0.9374 -0.1244
   29MOL   H64821424   2.111   1.306   2.037  0.0826  0.7623 -1.4968
   29MOL   H64921425   2.239   1.087   1.850  1.5526  1.3039  2.0706
   29MOL   H65021426   2.106   1.182   1.801  0.6427  0.3212 -0.6025
   29MOL   H65121427   2.102   0.956   2.003 -1.1943  0.6694  0.5622
   29MOL   H65221428   1.975   1.079   2.002  1.0277  1.7252 -0.2172
   29MOL   H65321429   2.053   0.905   1.762  0.4020  1.1487 -1.2435
   29MOL   H65421430   1.929   1.025   1.763  1.0465  0.3511 -0.6017
   29MOL   H65521431   1.801   0.889   1.925 -0.6031 -1.6366  0.5732
   29MOL   H65621432   1.938   0.779   1.960  2.4458  2.0646  0.7307
   29MOL   H65721433   1.931   0.708   1.707  0.1590  2.3613 -0.5001
   29MOL   H65821434   1.792   0.801   1.690  0.2338  0.2907  0.5204
   29MOL   H65921435   1.732   0.663   1.919 -1.2092  0.1190 -0.6082
   29MOL   H66021436   1.841   0.546   1.839 -0.0886  0.1584 -0.3412
   29MOL   H66121437   1.596   0.662   1.703  0.8143  0.5968 -0.8166
   29MOL   H66221438   1.584   0.514   1.794 -0.4296  0.1053  0.5072
   29MOL   H66321439   1.759   0.418   1.651  1.8337  0.9353 -0.7613
   29MOL   H66421440   1.773   0.554   1.546 -2.3344 -0.2635 -2.0396
   29MOL   H66521441   1.522   0.410   1.584 -1.7009  1.9661 -0.3020
   29MOL   H66621442   1.650   0.399   1.448 -0.4284  0.1267 -0.2210
   29MOL   H66721443   1.430   0.586   1.461 -0.6634  0.5718 -0.7119
   29MOL   C66821444   1.573   0.657   1.357 -0.5344  0.6668  1.0229
   29MOL   O66921445   1.686   0.646   1.302 -0.0485  0.0726  0.0271
   29MOL   C67021446   1.476   0.769   1.318  0.1399 -0.3148 -0.3572
   29MOL   C67121447   1.494   0.841   1.186  0.4010  0.0517  0.4831
   29MOL   C67221448   1.486   0.741   1.069 -0.3546  0.0944 -0.5145
   29MOL   C67321449   1.559   0.794   0.942  0.6373  0.1066  0.1778
   29MOL   C67421450   1.586   0.688   0.835 -0.3517 -0.3416  0.0363
   29MOL   C67521451   1.458   0.625   0.773 -0.0921 -0.5571  0.3136
   29MOL   C67621452   1.368   0.703   0.679  0.3311 -0.1974 -0.0127
   29MOL   C67721453   1.231   0.633   0.659  0.1626 -0.0003  0.0300
   29MOL   C67821454   1.127   0.734   0.607  0.3814  0.1982 -0.4939
   29MOL   C67921455   0.979   0.695   0.586  0.1262  0.2689  0.2567
   29MOL   C68021456   0.897   0.663   0.709 -0.5316  0.4016 -0.7888
   29MOL   N68121457   0.755   0.631   0.667 -0.0427 -0.2048 -0.1664
   29MOL   H68221458   1.492   0.836   1.402  0.4948 -1.0110  0.1396
   29MOL   H68321459   1.372   0.737   1.329  0.5084 -0.6748  2.4456
   29MOL   H68421460   1.414   0.912   1.167  2.2255  1.3940 -2.6258
   29MOL   H68521461   1.591   0.889   1.193  0.1958  0.6843 -0.8446
   29MOL   H68621462   1.383   0.716   1.046  0.1934 -0.3553 -2.5087
   29MOL   H68721463   1.535   0.644   1.083 -1.6484 -0.6315 -1.0000
   29MOL   H68821464   1.510   0.887   0.913 -0.0619  0.2753  1.8516
   29MOL   H68921465   1.661   0.823   0.967  0.8838 -1.4025  0.9705
   29MOL   H69021466   1.645   0.612   0.886  2.4603  1.8906  0.2434
   29MOL   H69121467   1.634   0.738   0.751 -2.2554  0.7090 -0.4513
   29MOL   H69221468   1.390   0.583   0.848 -0.2390 -0.3215  0.3093
   29MOL   H69321469   1.495   0.546   0.707 -1.2089  0.6201 -1.7580
   29MOL   H69421470   1.425   0.706   0.586  3.7233 -0.9912  1.9343
   29MOL   H69521471   1.360   0.807   0.711  3.0060 -0.4573  1.6586
   29MOL   H69621472   1.190   0.592   0.751  0.1625 -0.3058 -0.1025
   29MOL   H69721473   1.234   0.541   0.601  1.9707  0.1570 -0.1370
   29MOL   H69821474   1.171   0.778   0.518 -2.2534  0.7033 -1.5955
   29MOL   H69921475   1.120   0.814   0.681  1.4681 -0.6774  0.5644
   29MOL   H70021476   0.982   0.612   0.515 -0.1694  0.3092  0.1992
   29MOL   H70121477   0.930   0.780   0.540 -1.1322 -0.4300  0.2687
   29MOL   H70221478   0.908   0.740   0.785  1.3998 -0.1671 -0.4563
   29MOL   H70321479   0.933   0.576   0.764 -0.4004  2.0585  1.7853
   29MOL   H70421480   0.699   0.715   0.660  2.6305  1.5452 -1.3404
   29MOL   C70521481   0.726   0.525   0.597  0.8300  0.4090  0.2907
   29MOL   O70621482   0.800   0.424   0.594  0.0696 -0.6431 -0.5483
   29MOL   C70721483   0.606   0.530   0.505  0.2578  0.1218  0.3088
   29MOL   C70821484   0.635   0.464   0.376  0.8990 -0.6168 -0.0922
   29MOL   C70921485   0.734   0.546   0.279 -0.9227 -0.8321 -0.0386
   29MOL   C71021486   0.715   0.505   0.136 -0.2692  0.1693  0.3546
   29MOL   C71121487   0.779   0.606   0.032  0.0660 -0.3369 -0.1918
   29MOL   C71221488   0.934   0.625   0.055 -0.2074 -0.3079 -0.3137
   29MOL   C71321489   0.999   0.735   7.657  0.0402  0.2063  0.1527
   29MOL   C71421490   1.147   0.759   7.681  0.1343 -0.4101 -0.3636
   29MOL   C71521491   1.212   0.825   7.551  0.1375  0.6644 -0.1148
   29MOL   C71621492   1.363   0.853   7.559  0.0585  0.2932 -0.0339
   29MOL   C71721493   1.397   0.932   7.435  0.6247  0.0038  0.1097
   29MOL   N71821494   1.541   0.945   7.429 -0.0590  0.2359 -0.1095
   29MOL   H71921495   0.569   0.631   0.487 -0.4130  0.0220  1.0814
   29MOL   H72021496   0.543   0.459   0.558  1.0154 -2.0606 -1.6621
   29MOL   H72121497   0.654   0.360   0.399 -1.0204 -0.6613  1.4004
   29MOL   H72221498   0.540   0.450   0.323  0.3813 -1.6583  1.0781
   29MOL   H72321499   0.838   0.538   0.312 -0.9745 -2.0721 -0.1392
   29MOL   H72421500   0.700   0.649   0.277 -0.1999 -0.6169 -1.2183
   29MOL   H72521501   0.747   0.403   0.120  0.6926  0.6131 -0.5954
   29MOL   H72621502   0.608   0.506   0.113  0.3836 -0.5998 -2.9723
   29MOL   H72721503   0.719   0.697   0.040  1.3038  0.3627  1.5838
   29MOL   H72821504   0.760   0.561   7.628  2.1556 -0.8239 -0.3857
   29MOL   H72921505   0.983   0.530   0.031 -0.8771 -0.1135 -2.6110
   29MOL   H73021506   0.943   0.652   0.160  0.8308  1.6824 -0.8714
   29MOL   H73121507   0.946   0.829   7.672 -2.4291 -1.2862  1.0376
   29MOL   H73221508   0.988   0.705   7.552  1.6229 -1.5247  0.4484
   29MOL   H73321509   1.181   0.659   0.013 -0.5536 -0.5950 -0.1697
   29MOL   H73421510   1.167   0.817   0.077 -1.2908 -0.6305  0.1065
   29MOL   H73521511   1.157   0.917   7.529 -0.3089  0.5581  0.5508
   29MOL   H73621512   1.182   0.769   7.462 -0.6128 -0.4515  0.8324
   29MOL   H73721513   1.417   0.760   7.577  0.5177  0.5860  0.0962
   29MOL   H73821514   1.379   0.904   7.654  1.1703 -0.1393  0.0224
   29MOL   H73921515   1.359   1.032   7.457  2.0847  0.7592 -0.7190
   29MOL   H74021516   1.356   0.894   7.342  1.0621  0.1767 -0.1549
   29MOL   H74121517   1.581   0.857   7.401  0.4425 -0.2025  1.9194
   29MOL   H74221518   1.566   1.010   7.355  0.1339 -0.4984 -0.6979
   30MOL     C121519   0.081   5.196   2.430 -0.3011  0.9190 -0.0328
   30MOL     O221520   0.037   5.300   2.464  0.1506  1.1046 -0.6256
   30MOL     C321521   0.008   5.105   2.327 -0.2380 -0.9697 -0.6758
   30MOL     C421522   7.577   5.036   2.378  1.2567  0.4722 -0.0444
   30MOL     C521523   7.613   4.940   2.491 -0.1395 -0.2836  0.1701
   30MOL     C621524   7.507   4.846   2.547  0.0082  0.4217  0.7296
   30MOL     C721525   7.560   4.739   2.639  0.1532  0.1402 -0.1557
   30MOL     C821526   7.453   4.642   2.688  0.5074  0.2278  0.6939
   30MOL     C921527   7.508   4.518   2.763  0.4831 -0.2653  0.5250
   30MOL    C1021528   7.414   4.397   2.764  0.3050  0.0755  0.6540
   30MOL    C1121529   7.296   4.413   2.866  0.3901  0.5621  0.7023
   30MOL    C1221530   7.206   4.286   2.882  0.8324 -0.3081  0.7434
   30MOL    C1321531   7.098   4.299   2.998  0.6125  0.3985  0.2723
   30MOL    N1421532   7.162   4.319   3.124  0.3634 -0.7935  0.2161
   30MOL    H1521533   0.075   5.023   2.303  2.4930  0.8431  0.5047
   30MOL    H1621534   7.682   5.170   2.241  4.0186  0.3835 -0.7670
   30MOL    H1721535   7.492   5.099   2.404  0.5016 -0.7556  0.5282
   30MOL    H1821536   7.529   4.981   2.297  1.5787  1.3646 -0.8375
   30MOL    H1921537   7.637   5.004   2.575  0.1335 -1.7262  1.2188
   30MOL    H2021538   0.011   4.891   2.458  0.1631  0.4936 -0.1323
   30MOL    H2121539   7.424   4.901   2.592 -0.1189 -0.8046  2.0295
   30MOL    H2221540   7.466   4.785   2.467  0.4267 -1.9333  2.2523
   30MOL    H2321541   7.606   4.785   2.726  0.5279  1.4015 -1.0046
   30MOL    H2421542   7.617   4.663   2.584 -0.6220 -0.2853 -0.3725
   30MOL    H2521543   7.385   4.615   2.607  0.6306 -0.7497  0.9081
   30MOL    H2621544   7.389   4.705   2.750 -0.9721  0.1161 -0.6743
   30MOL    H2721545   7.522   4.538   2.870  0.2504  1.6181  0.2322
   30MOL    H2821546   7.610   4.492   2.736  1.0166 -0.6610  2.7961
   30MOL    H2921547   7.466   4.307   2.797  1.4337  0.3588 -0.3446
   30MOL    H3021548   7.374   4.388   2.663  1.4367 -0.5241  0.2476
   30MOL    H3121549   7.246   4.509   2.854 -1.7809 -0.3665  1.9125
   30MOL    H3221550   7.344   4.436   2.962  0.9817  1.8974  0.0986
   30MOL    H3321551   7.259   4.191   2.875 -1.3765 -1.4272 -1.5540
   30MOL    H3421552   7.157   4.291   2.785  0.5606  2.5012  0.9903
   30MOL    H3521553   7.047   4.203   2.995 -2.1904  1.8648 -1.0225
   30MOL    H3621554   7.026   4.374   2.967  0.7788  0.4081 -0.0856
   30MOL    H3721555   7.163   4.415   3.155  0.4398 -1.2212  1.5534
   30MOL    H3821556   0.171   5.153   2.472 -0.8292 -0.2001 -0.0389
   30MOL    C3921557   7.239   4.223   3.179  0.6219 -0.6046 -0.2825
   30MOL    O4021558   7.243   4.107   3.136 -0.2809  0.1128  1.3101
   30MOL    C4121559   7.334   4.279   3.289  0.0606  0.1604 -0.1851
   30MOL    C4221560   7.469   4.211   3.304 -0.1667  0.0159 -0.3127
   30MOL    C4321561   7.549   4.211   3.171 -0.4316 -0.1292  0.6749
   30MOL    C4421562   7.692   4.151   3.191  0.2975 -0.2850  0.1677
   30MOL    C4521563   0.011   4.012   3.267  0.0523  0.4633 -0.1887
   30MOL    C4621564   7.672   3.892   3.177 -0.1030 -0.2375 -0.3615
   30MOL    C4721565   7.676   3.758   3.239  0.0146  0.1754  0.0968
   30MOL    C4821566   0.017   3.653   3.139 -0.5595  0.0196  0.3009
   30MOL    C4921567   7.691   3.512   3.185 -0.7675 -0.5928 -0.1371
   30MOL    C5021568   0.017   3.414   3.071  0.2520  0.6717  0.3424
   30MOL    C5121569   7.647   3.273   3.110 -0.2288 -0.2543  0.2926
   30MOL    N5221570   7.642   3.183   2.992  0.5403  0.2265 -0.1112
   30MOL    H5321571   7.280   4.262   3.382  0.8521  0.7312  0.3896
   30MOL    H5421572   7.326   4.388   3.283  2.9527  0.5448  1.4269
   30MOL    H5521573   7.522   4.276   3.373 -2.0211  1.1713  0.0421
   30MOL    H5621574   7.459   4.118   3.359  0.7529  0.9585  1.4838
   30MOL    H5721575   7.557   4.305   3.116 -0.7891 -0.3541  0.2356
   30MOL    H5821576   7.500   4.148   3.097 -0.9436 -0.8655  1.6304
   30MOL    H5921577   0.035   4.146   3.089 -0.7857 -1.0531 -0.1941
   30MOL    H6021578   0.048   4.225   3.254  0.7301  0.1568 -0.6740
   30MOL    H6121579   7.652   4.017   3.362  0.1019  0.8166 -0.1803
   30MOL    H6221580   0.109   3.995   3.312  0.1022  1.0962 -0.0536
   30MOL    H6321581   0.049   3.888   3.095 -0.3259  1.2723 -0.6341
   30MOL    H6421582   7.571   3.908   3.138 -0.4279  2.2202  1.3925
   30MOL    H6521583   7.590   3.737   3.302  0.3950 -2.1143 -0.0881
   30MOL    H6621584   0.060   3.763   3.316 -1.5504  0.5983  1.6818
   30MOL    H6721585   0.112   3.662   3.085 -0.6776 -0.3983  0.0203
   30MOL    H6821586   7.644   3.668   3.054  0.2879  1.1872 -0.1742
   30MOL    H6921587   7.592   3.490   3.226 -0.8408  2.9806  1.8827
   30MOL    H7021588   0.064   3.494   3.269 -1.2832  0.3121  0.4836
   30MOL    H7121589   0.120   3.402   3.036  0.6020 -0.7839  1.8085
   30MOL    H7221590   7.652   3.453   2.988  0.0816 -1.4793 -0.5941
   30MOL    H7321591   7.542   3.284   3.139 -0.5366 -0.2675 -0.7722
   30MOL    H7421592   7.689   3.231   3.201 -1.3043  0.9019  1.3510
   30MOL    H7521593   7.691   3.211   2.908  1.1097  0.1888  0.2037
   30MOL    C7621594   7.602   3.055   3.002  0.0842  0.4476 -0.0060
   30MOL    O7721595   7.596   2.987   2.895  0.1435  0.0493 -0.2628
   30MOL    C7821596   7.557   2.990   3.135 -0.5116 -0.0974 -0.4341
   30MOL    C7921597   7.615   2.853   3.171  0.1859 -0.6970  0.0977
   30MOL    C8021598   7.567   2.732   3.087 -0.4144  0.2881  0.3889
   30MOL    C8121599   7.603   2.590   3.138 -0.2216 -0.9322  0.2461
   30MOL    C8221600   0.044   2.529   3.101  0.1012 -0.1184 -0.3968
   30MOL    C8321601   0.065   2.497   2.961 -0.7249 -0.0775 -0.9085
   30MOL    C8421602   0.057   2.351   2.931 -0.2753  0.0450 -0.1909
   30MOL    C8521603   0.069   2.328   2.780 -0.3152  0.4916 -0.7977
   30MOL    C8621604   0.049   2.180   2.732 -0.3386  0.1651  0.2075
   30MOL    C8721605   0.144   2.065   2.792  0.3340  0.1294 -0.5072
   30MOL    C8821606   0.113   1.927   2.735  0.7820  0.3060  0.1205
   30MOL    N8921607   0.205   1.830   2.801  0.6809 -0.5800 -0.7498
   30MOL    H9021608   7.449   2.982   3.131 -0.6847  1.5840  0.1767
   30MOL    H9121609   7.558   3.060   3.219  2.9990 -0.4878 -0.0748
   30MOL    H9221610   0.030   2.857   3.176  0.2348 -1.3487 -0.3060
   30MOL    H9321611   7.587   2.831   3.274 -1.6025 -1.0174 -0.4521
   30MOL    H9421612   7.598   2.746   2.983  1.3208 -0.4793  0.7930
   30MOL    H9521613   7.458   2.735   3.090 -0.4383 -0.9743  0.7064
   30MOL    H9621614   7.585   2.581   3.245  0.5840 -2.9303  0.2343
   30MOL    H9721615   7.527   2.517   3.110 -1.0763 -1.1760  3.0266
   30MOL    H9821616   0.078   2.448   3.164 -1.3673  1.5160  2.5991
   30MOL    H9921617   0.115   2.605   3.134 -0.5549  1.5373 -2.6210
   30MOL   H10021618   0.169   2.520   2.939  0.6720 -3.1255  1.9911
   30MOL   H10121619   0.006   2.558   2.893 -0.5532 -0.1613 -1.1333
   30MOL   H10221620   7.658   2.309   2.968 -0.9189 -1.6698 -3.5790
   30MOL   H10321621   0.142   2.299   2.974  0.9864  1.0831 -1.3561
   30MOL   H10421622   0.171   2.358   2.753  0.3083 -1.1930 -0.3943
   30MOL   H10521623   7.691   2.395   2.734 -3.4032 -0.4744  2.4299
   30MOL   H10621624   0.069   2.184   2.625 -0.3050  0.3448  0.2204
   30MOL   H10721625   7.635   2.166   2.742 -0.6958  1.5321 -1.4298
   30MOL   H10821626   0.141   2.056   2.901  0.6463 -0.8214 -0.5778
   30MOL   H10921627   0.250   2.082   2.775  0.8952 -2.0098  0.6318
   30MOL   H11021628   0.137   1.925   2.629  0.1944 -1.6747  0.0082
   30MOL   H11121629   0.007   1.902   2.748  0.3822  1.3926 -0.9095
   30MOL   H11221630   0.290   1.868   2.841 -0.1646  2.5337 -1.7514
   30MOL   C11321631   0.175   1.699   2.795  0.2988 -0.0459  0.2128
   30MOL   O11421632   0.081   1.657   2.740  0.1754 -0.0179  0.5023
   30MOL   C11521633   0.270   1.605   2.872  1.1458  0.7821 -0.3914
   30MOL   C11621634   0.206   1.532   2.992 -0.2688 -0.2242  0.1698
   30MOL   C11721635   0.163   1.623   3.103  0.0448 -0.4746 -0.3830
   30MOL   C11821636   0.066   1.563   3.202 -0.0521  0.1305 -0.0274
   30MOL   C11921637   0.104   1.432   3.269  0.1905  0.2741 -0.1044
   30MOL   C12021638   0.041   1.401   3.402 -0.6962  0.1440 -0.3575
   30MOL   C12121639   0.012   1.246   3.427 -0.1518 -0.4992 -0.3297
   30MOL   C12221640   7.639   1.235   3.563  0.4183  0.2131  0.0741
   30MOL   C12321641   7.590   1.100   3.610 -0.1169 -0.0533  0.1273
   30MOL   C12421642   7.581   1.087   3.764  0.4293  0.3775  0.3146
   30MOL   C12521643   7.494   0.961   3.817  0.0427 -0.8690  0.0143
   30MOL   N12621644   7.559   0.833   3.782  0.2555 -0.3801  0.5500
   30MOL   H12721645   0.366   1.653   2.891  1.4465  0.1208 -0.2174
   30MOL   H12821646   0.297   1.530   2.797  0.4965  0.1261  0.0322
   30MOL   H12921647   0.125   1.477   2.946  0.4699  1.4082 -3.2614
   30MOL   H13021648   0.279   1.459   3.026  1.9802  2.3098  1.0386
   30MOL   H13121649   0.126   1.717   3.061  0.7837  0.1777  0.3984
   30MOL   H13221650   0.259   1.655   3.144  0.3715 -1.4036 -0.4234
   30MOL   H13321651   0.049   1.641   3.276  0.2630 -0.0037  0.1868
   30MOL   H13421652   7.665   1.546   3.150 -0.6591 -0.2837  1.2086
   30MOL   H13521653   0.210   1.408   3.270  0.6776  2.3266  0.7745
   30MOL   H13621654   0.055   1.359   3.203 -0.6805 -0.5843  1.4472
   30MOL   H13721655   7.638   1.451   3.399 -0.7104  0.1010 -0.7404
   30MOL   H13821656   0.095   1.454   3.480  0.4309 -0.9058 -0.4045
   30MOL   H13921657   0.111   1.201   3.435 -0.4653 -1.6620 -2.5089
   30MOL   H14021658   7.653   1.195   3.347  0.3103 -0.3858 -0.7098
   30MOL   H14121659   7.560   1.310   3.567  0.5204  0.2751  1.2098
   30MOL   H14221660   0.007   1.267   3.647  0.3700  1.0268 -0.1940
   30MOL   H14321661   7.652   1.016   3.579  0.0683  0.5294 -1.1351
   30MOL   H14421662   7.491   1.088   3.568  0.9914 -4.4488 -1.4559
   30MOL   H14521663   7.538   1.178   3.806  0.0827 -0.2026  1.2412
   30MOL   H14621664   7.678   1.093   3.812 -0.6549 -1.1448  2.7794
   30MOL   H14721665   7.391   0.950   3.783  0.0201  0.3396 -0.3125
   30MOL   H14821666   7.483   0.963   3.926  2.0453 -1.8678  0.2751
   30MOL   H14921667   7.599   0.824   3.689 -0.9100  1.4762 -0.1436
   30MOL   C15021668   7.527   0.722   3.845  0.0196  0.1612  0.3525
   30MOL   O15121669   7.474   0.724   3.959 -0.1768  0.0077  0.0959
   30MOL   C15221670   7.548   0.587   3.767  0.2769  0.4420 -0.2163
   30MOL   C15321671   7.419   0.530   3.695  0.2636 -0.1580 -0.0330
   30MOL   C15421672   7.375   0.621   3.586 -0.2270 -0.4401 -0.1967
   30MOL   C15521673   7.276   0.559   3.490 -0.4009 -0.0135 -0.0179
   30MOL   C15621674   7.227   0.668   3.386  0.2157  0.1488  0.2706
   30MOL   C15721675   7.114   0.616   3.301  0.5269 -0.0364  0.1491
   30MOL   C15821676   7.057   0.718   3.199  1.0495  0.3505  0.5000
   30MOL   C15921677   6.926   0.669   3.130 -0.4375 -0.2996 -0.3784
   30MOL   C16021678   6.895   0.743   3.005  0.3680 -0.1648  0.1812
   30MOL   C16121679   6.746   0.715   2.964 -0.4269 -0.6429 -0.3645
   30MOL   C16221680   6.718   0.749   2.816  0.2591  0.4118  0.4271
   30MOL   N16321681   6.769   0.883   2.765  0.0082  0.1393 -0.4224
   30MOL   H16421682   7.598   0.518   3.836 -1.3413  1.9047  2.5169
   30MOL   H16521683   7.624   0.608   3.692  2.3768  0.8052  1.9577
   30MOL   H16621684   7.444   0.434   3.650  0.3055 -0.3280  0.3583
   30MOL   H16721685   7.346   0.505   3.771 -2.4095  0.2389 -2.3614
   30MOL   H16821686   7.459   0.660   3.528 -0.8432  1.0288 -0.0953
   30MOL   H16921687   7.334   0.711   3.630  2.3100 -0.1722  1.7289
   30MOL   H17021688   7.317   0.470   3.442  1.8585  2.1432 -2.2596
   30MOL   H17121689   7.188   0.525   3.545 -0.9510  0.2911 -0.7009
   30MOL   H17221690   7.314   0.704   3.330  0.3425  0.5997  0.7468
   30MOL   H17321691   7.182   0.746   3.448 -0.1910 -1.0106  1.4443
   30MOL   H17421692   7.036   0.581   3.370 -0.1162 -2.0724 -1.5621
   30MOL   H17521693   7.157   0.531   3.247  1.8163  1.5464 -1.3417
   30MOL   H17621694   7.128   0.728   3.117 -1.7341  1.7425 -1.8328
   30MOL   H17721695   7.031   0.815   3.240  1.0291 -0.2533  1.9385
   30MOL   H17821696   6.841   0.682   3.197 -0.5727 -0.0062 -0.6106
   30MOL   H17921697   6.927   0.561   3.114 -1.7484 -0.1997 -1.1618
   30MOL   H18021698   6.970   0.712   2.932  0.1974 -1.8372  0.7024
   30MOL   H18121699   6.903   0.852   3.004  0.7084 -0.1878 -0.4418
   30MOL   H18221700   6.681   0.777   3.026  0.2645  0.4809 -0.7473
   30MOL   H18321701   6.718   0.613   2.988  1.1915 -0.6426  1.6347
   30MOL   H18421702   6.610   0.754   2.801  0.1705 -1.1554  0.3979
   30MOL   H18521703   6.752   0.669   2.750 -0.9152  1.0792 -1.0250
   30MOL   H18621704   6.762   0.962   2.829 -0.5332 -1.1825  1.1732
   30MOL   C18721705   6.846   0.890   2.653  0.4450 -0.6415 -0.3443
   30MOL   O18821706   6.848   0.803   2.564  0.0172 -0.4468 -0.4666
   30MOL   C18921707   6.930   1.019   2.634  0.0752  0.3373 -0.1039
   30MOL   C19021708   6.933   1.078   2.483 -0.2924  0.0542  0.4387
   30MOL   C19121709   6.800   1.144   2.434 -0.0736 -0.0501 -0.0371
   30MOL   C19221710   6.801   1.233   2.308  0.5038 -0.2531  0.1216
   30MOL   C19321711   6.659   1.276   2.256  0.1523 -1.0520  0.2703
   30MOL   C19421712   6.592   1.392   2.340  0.1958  0.5018 -0.2831
   30MOL   C19521713   6.628   1.534   2.292 -0.0380  0.4080  0.6986
   30MOL   C19621714   6.531   1.643   2.343 -0.2695  0.8090  0.7929
   30MOL   C19721715   6.610   1.776   2.354  0.2149 -0.8771 -0.2448
   30MOL   C19821716   6.520   1.888   2.416  0.6138 -0.3995  0.3087
   30MOL   C19921717   6.602   2.019   2.442  0.2219 -0.2312 -0.1371
   30MOL   N20021718   6.512   2.128   2.454 -0.4957  0.1667 -0.1234
   30MOL   H20121719   7.027   0.987   2.674 -0.3006  0.8420  1.2416
   30MOL   H20221720   6.892   1.095   2.702 -1.7997  0.7799 -1.6064
   30MOL   H20321721   7.022   1.136   2.457 -0.7262  0.1541 -0.8562
   30MOL   H20421722   6.959   1.001   2.410  1.1465  0.5631  0.3972
   30MOL   H20521723   6.759   1.202   2.517  0.4493  1.3040 -0.7097
   30MOL   H20621724   6.725   1.066   2.420 -2.3730  1.9558  0.5662
   30MOL   H20721725   6.865   1.321   2.317  0.5413 -0.3086  0.4030
   30MOL   H20821726   6.852   1.174   2.232  0.9667 -1.3807  1.2952
   30MOL   H20921727   6.588   1.194   2.247  0.4060 -1.3815  1.2177
   30MOL   H21021728   6.687   1.316   2.158 -1.2711 -0.3883  0.1274
   30MOL   H21121729   6.616   1.380   2.446  1.7513 -2.0642 -0.8733
   30MOL   H21221730   6.484   1.400   2.329 -0.1286 -3.2255 -0.4454
   30MOL   H21321731   6.627   1.548   2.184 -1.3503 -0.6126  0.5761
   30MOL   H21421732   6.730   1.559   2.321  0.4150  0.5556 -0.9307
   30MOL   H21521733   6.490   1.613   2.439  0.4013 -2.4838  0.1076
   30MOL   H21621734   6.449   1.650   2.272 -0.0218  2.8757  0.6558
   30MOL   H21721735   6.625   1.816   2.254 -1.8391  0.4251 -0.0699
   30MOL   H21821736   6.699   1.770   2.416 -0.0794  3.2170  0.7126
   30MOL   H21921737   6.475   1.854   2.509  1.7215 -0.3418  0.8872
   30MOL   H22021738   6.438   1.905   2.347 -2.4690 -2.4393  3.3165
   30MOL   H22121739   6.662   2.042   2.354  0.8874 -1.0489  0.0977
   30MOL   H22221740   6.676   2.013   2.522  1.5531 -1.3828 -1.4259
   30MOL   H22321741   6.456   2.143   2.372 -0.0946 -0.3125 -0.4921
   30MOL   C22421742   6.490   2.202   2.566  0.0287 -0.3898 -0.3225
   30MOL   O22521743   6.573   2.202   2.661  0.3098  0.8370 -0.4976
   30MOL   C22621744   6.360   2.283   2.560  0.4961  0.4686  0.0444
   30MOL   C22721745   6.382   2.439   2.572 -0.4398 -1.0374  0.0764
   30MOL   C22821746   6.251   2.520   2.592  0.5893 -0.6551  0.4174
   30MOL   C22921747   6.287   2.666   2.618 -0.2900 -0.6552 -0.5098
   30MOL   C23021748   6.176   2.761   2.674  0.2286  0.2196 -0.1872
   30MOL   C23121749   6.215   2.905   2.671  0.0079  0.2503  0.3330
   30MOL   C23221750   6.111   3.004   2.731 -0.3380 -0.4575 -0.9065
   30MOL   C23321751   6.155   3.150   2.719  0.5434 -0.2115  0.3258
   30MOL   C23421752   6.215   3.205   2.845 -0.8606  1.2898  0.6046
   30MOL   C23521753   6.244   3.355   2.854  0.0565 -0.2545  0.2938
   30MOL   C23621754   6.297   3.412   2.987  0.3630  0.8068 -0.4368
   30MOL   N23721755   6.190   3.395   3.095 -0.6539  0.5040  0.2904
   30MOL   H23821756   6.290   2.245   2.634 -0.2466  0.4679 -0.6480
   30MOL   H23921757   6.312   2.273   2.462 -1.4771  0.5491  0.9907
   30MOL   H24021758   6.455   2.464   2.649 -0.0687 -1.0159 -0.2847
   30MOL   H24121759   6.438   2.472   2.485  1.4614 -2.8026  0.5708
   30MOL   H24221760   6.194   2.487   2.679  2.0540 -0.8010  1.3354
   30MOL   H24321761   6.185   2.521   2.505  0.4235  0.5277  0.5504
   30MOL   H24421762   6.369   2.666   2.690 -1.4814  0.7158  0.8784
   30MOL   H24521763   6.336   2.709   2.531 -0.2843  0.6898  0.1487
   30MOL   H24621764   6.150   2.723   2.773  1.0234 -2.3631 -0.9177
   30MOL   H24721765   6.078   2.749   2.627  1.0679 -1.2571 -1.5906
   30MOL   H24821766   6.232   2.925   2.565 -0.7565 -0.3535  0.0931
   30MOL   H24921767   6.312   2.917   2.719 -0.5939  0.3488  1.5462
   30MOL   H25021768   6.086   2.974   2.833  0.6967  0.5410 -0.3446
   30MOL   H25121769   6.013   2.990   2.686 -0.3148  0.4504 -1.2503
   30MOL   H25221770   6.063   3.205   2.699  0.2138 -0.3065  1.5744
   30MOL   H25321771   6.226   3.167   2.638  0.6733  2.1262  0.9075
   30MOL   H25421772   6.306   3.151   2.869 -1.1773  0.8183  0.7617
   30MOL   H25521773   6.152   3.174   2.929 -0.5579 -2.6090 -0.5194
   30MOL   H25621774   6.150   3.408   2.837 -1.6515 -2.5431  2.3235
   30MOL   H25721775   6.319   3.381   2.780  0.6655  2.2254  1.7240
   30MOL   H25821776   6.338   3.512   2.980  0.2737  0.8192 -0.7834
   30MOL   H25921777   6.388   3.364   3.022  0.2753  0.4954 -0.6283
   30MOL   H26021778   6.154   3.304   3.120 -0.9552  0.0358 -1.7363
   30MOL   C26121779   6.150   3.484   3.183  0.0790 -0.2222  0.0696
   30MOL   O26221780   6.169   3.605   3.172 -0.2897 -0.0763 -0.1749
   30MOL   C26321781   6.069   3.430   3.305  0.0479  0.4885  0.1919
   30MOL   C26421782   6.019   3.532   3.408 -0.5378  0.6733  0.1155
   30MOL   C26521783   5.936   3.458   3.525 -0.4898 -0.2092  0.2657
   30MOL   C26621784   5.852   3.546   3.604 -0.2602  0.0774  0.0530
   30MOL   C26721785   5.762   3.455   3.702 -0.7738 -0.6700 -0.5340
   30MOL   C26821786   5.645   3.519   3.762 -1.2082 -0.3975  0.4595
   30MOL   C26921787   5.560   3.427   3.849  0.2109  0.3182 -0.3989
   30MOL   C27021788   5.426   3.491   3.895 -0.4268  0.6019 -0.6978
   30MOL   C27121789   5.337   3.388   3.967  0.8128 -0.0999 -0.0979
   30MOL   C27221790   5.184   3.428   3.996  0.0612  0.5322 -0.0230
   30MOL   C27321791   5.099   3.305   4.043 -0.3634  0.0604  0.5595
   30MOL   N27421792   4.958   3.335   4.050 -0.5431 -0.3457  0.0163
   30MOL   H27521793   6.116   3.346   3.357 -0.8828 -1.3497 -1.8341
   30MOL   H27621794   5.981   3.386   3.259  0.6342 -0.6788  0.1588
   30MOL   H27721795   6.098   3.600   3.440 -0.2894  1.3591 -1.8597
   30MOL   H27821796   5.951   3.597   3.353  1.2756  1.6981 -0.9734
   30MOL   H27921797   6.014   3.404   3.577  0.5890  0.5591 -0.5209
   30MOL   H28021798   5.868   3.391   3.473  0.1077 -0.1507 -0.6090
   30MOL   H28121799   5.916   3.614   3.660  1.3372 -0.4084 -1.1543
   30MOL   H28221800   5.797   3.603   3.528  1.9577  0.7808 -1.0773
   30MOL   H28321801   5.831   3.418   3.778  0.8588  0.2097 -1.5474
   30MOL   H28421802   5.737   3.361   3.653  1.1896 -1.2505 -0.4670
   30MOL   H28521803   5.595   3.537   3.667  1.8965  1.9002 -0.7902
   30MOL   H28621804   5.665   3.616   3.808  0.3094 -0.3375 -0.3272
   30MOL   H28721805   5.622   3.400   3.935  0.3230 -0.3624 -0.6970
   30MOL   H28821806   5.538   3.331   3.803  0.9188  0.1378 -0.3723
   30MOL   H28921807   5.373   3.531   3.809 -0.1622  0.9315 -0.7069
   30MOL   H29021808   5.450   3.571   3.965  2.5612 -0.3736 -0.5412
   30MOL   H29121809   5.390   3.359   4.058 -2.1880 -0.5016  1.5788
   30MOL   H29221810   5.339   3.296   3.908 -1.1937 -0.5537  0.5058
   30MOL   H29321811   5.135   3.493   3.923 -1.8260 -0.9091 -0.0852
   30MOL   H29421812   5.182   3.494   4.083  1.5150  0.3219  0.1735
   30MOL   H29521813   5.138   3.251   4.129 -0.6605  0.5725  1.0116
   30MOL   H29621814   5.110   3.237   3.958 -0.0683  0.1098  0.5575
   30MOL   H29721815   4.926   3.375   4.137  0.5633 -0.6830  0.5845
   30MOL   C29821816   4.883   3.337   3.940 -0.1832 -0.2153 -0.4002
   30MOL   O29921817   4.928   3.307   3.826  0.1220 -0.7442  0.3992
   30MOL   C30021818   4.738   3.396   3.949  0.0606  0.4999  0.3336
   30MOL   C30121819   4.668   3.407   3.816  0.3891 -0.5953  0.5702
   30MOL   C30221820   4.545   3.499   3.830  0.2880  0.8035  0.1134
   30MOL   C30321821   4.444   3.503   3.719  0.4991  0.0802 -0.2826
   30MOL   C30421822   4.337   3.611   3.726  0.1001 -0.8002 -0.1070
   30MOL   C30521823   4.389   3.739   3.674 -0.5427  0.4201  0.0292
   30MOL   C30621824   4.276   3.841   3.642  0.4725  0.3824 -0.4975
   30MOL   C30721825   4.308   3.936   3.530  0.3365 -0.3666  0.6856
   30MOL   C30821826   4.432   4.022   3.545  0.1482  0.4141  0.1102
   30MOL   C30921827   4.452   4.135   3.440 -0.2668 -0.1573  0.5089
   30MOL   C31021828   4.591   4.202   3.466  0.5315 -0.3179 -0.1995
   30MOL   N31121829   4.619   4.313   3.374 -0.0745  0.4159  0.4357
   30MOL   H31221830   4.760   3.493   3.994  3.2460  0.5039 -1.0636
   30MOL   H31321831   4.683   3.331   4.017  0.9450 -0.6939 -0.0865
   30MOL   H31421832   4.724   3.451   3.733 -0.6356  0.2966  0.3395
   30MOL   H31521833   4.632   3.312   3.777 -1.4015  0.3710 -0.2074
   30MOL   H31621834   4.593   3.597   3.828  1.9025  0.0061 -2.1232
   30MOL   H31721835   4.501   3.484   3.929  1.4194 -0.5716  0.4231
   30MOL   H31821836   4.489   3.506   3.620  1.5831 -0.8686  0.1804
   30MOL   H31921837   4.385   3.413   3.736  0.3878  0.8428  4.1314
   30MOL   H32021838   4.300   3.632   3.827  0.4367  0.5682 -0.2599
   30MOL   H32121839   4.264   3.572   3.655  1.2203 -1.1759 -1.0645
   30MOL   H32221840   4.445   3.725   3.581  2.7673 -2.4156  2.3192
   30MOL   H32321841   4.455   3.790   3.743  0.5417 -1.4679  0.4182
   30MOL   H32421842   4.262   3.886   3.740 -0.4550 -0.2778 -0.3160
   30MOL   H32521843   4.180   3.795   3.616  0.2122 -0.1231  1.3030
   30MOL   H32621844   4.227   4.009   3.520 -0.6229 -1.3434  1.2789
   30MOL   H32721845   4.325   3.875   3.442 -0.5859  0.3750 -0.0144
   30MOL   H32821846   4.519   3.957   3.531 -0.2058  0.3608 -2.0147
   30MOL   H32921847   4.436   4.062   3.646  1.3448 -0.2471  0.3338
   30MOL   H33021848   4.372   4.205   3.462 -0.9002 -1.3290  2.0711
   30MOL   H33121849   4.440   4.095   3.339 -3.3439 -0.5401  0.9623
   30MOL   H33221850   4.660   4.118   3.459  0.1665 -0.6885  0.6293
   30MOL   H33321851   4.604   4.249   3.564 -2.0202 -0.8921  0.4565
   30MOL   H33421852   4.576   4.401   3.400 -2.5775 -0.6287  0.0604
   30MOL   C33521853   4.672   4.290   3.252  0.5090 -0.0688 -0.2688
   30MOL   O33621854   4.694   4.175   3.206 -0.0118 -0.2302 -0.2215
   30MOL   C33721855   4.687   4.412   3.162 -0.4397 -0.2204 -0.0796
   30MOL   C33821856   4.698   4.388   3.009 -0.0353 -0.1637  0.1957
   30MOL   C33921857   4.833   4.324   2.968 -0.0164 -0.2247  0.0113
   30MOL   C34021858   4.846   4.298   2.821  0.3121 -0.0441 -0.5485
   30MOL   C34121859   4.956   4.204   2.780 -0.6682 -0.2356 -0.0931
   30MOL   C34221860   4.943   4.063   2.842  0.2215 -0.2509  0.0642
   30MOL   C34321861   5.045   3.964   2.790 -0.0440  0.0680  0.0349
   30MOL   C34421862   5.037   3.819   2.842 -0.7300 -0.2058 -0.0520
   30MOL   C34521863   5.122   3.734   2.745 -0.1157 -0.4127  0.4230
   30MOL   C34621864   5.132   3.591   2.792  0.6426  0.8519  0.1730
   30MOL   C34721865   5.246   3.564   2.902  0.6239  0.8378 -0.1057
   30MOL   N34821866   5.250   3.429   2.950 -0.3563 -0.0649 -0.3458
   30MOL   H34921867   4.769   4.474   3.196  0.0230 -0.1634 -1.2963
   30MOL   H35021868   4.597   4.472   3.175 -0.1813  0.0104  0.6793
   30MOL   H35121869   4.615   4.324   2.978  0.1787 -0.2821 -0.1353
   30MOL   H35221870   4.687   4.483   2.957 -1.5826 -0.6060 -0.3249
   30MOL   H35321871   4.847   4.239   3.034 -0.3631 -0.7127 -0.5366
   30MOL   H35421872   4.915   4.391   2.994  0.7623 -1.4502  0.7300
   30MOL   H35521873   4.751   4.262   2.783 -0.5387  1.9791 -0.3675
   30MOL   H35621874   4.865   4.395   2.776 -0.6601  0.8101  0.8816
   30MOL   H35721875   5.053   4.247   2.805  0.3267 -2.5956  0.2832
   30MOL   H35821876   4.948   4.199   2.671 -2.4354  1.0256 -0.0318
   30MOL   H35921877   4.845   4.016   2.843  0.2594 -0.3685 -1.0087
   30MOL   H36021878   4.951   4.082   2.949 -1.1494  2.9656 -0.3445
   30MOL   H36121879   5.149   3.997   2.794  0.1175 -0.3644 -0.5117
   30MOL   H36221880   5.037   3.956   2.682  1.1517  0.5732 -0.0974
   30MOL   H36321881   4.937   3.776   2.855 -0.0966 -1.3450  1.1955
   30MOL   H36421882   5.082   3.821   2.942  0.2557  3.0800 -0.5142
   30MOL   H36521883   5.226   3.762   2.726 -0.8811  1.5745 -0.9181
   30MOL   H36621884   5.078   3.731   2.646 -0.2536  2.2788  0.3779
   30MOL   H36721885   5.141   3.527   2.705 -0.8583 -0.6840  1.1245
   30MOL   H36821886   5.032   3.570   2.829 -0.2262  1.3724 -1.8442
   30MOL   H36921887   5.227   3.627   2.988  1.4482  1.3072 -0.2544
   30MOL   H37021888   5.350   3.592   2.881  1.0842 -1.2396 -0.8459
   30MOL   H37121889   5.205   3.400   3.036  0.4955 -0.5686 -0.0589
   30MOL   C37221890   5.284   3.320   2.888  0.7112 -0.1260 -0.4699
   30MOL   O37321891   5.318   3.329   2.768 -0.3479 -0.2863 -0.0844
   30MOL   C37421892   5.251   3.192   2.966 -0.0641  0.7155 -0.6316
   30MOL   C37521893   5.281   3.050   2.913  0.3639  0.5647  0.3272
   30MOL   C37621894   5.421   3.019   2.858 -0.5635  0.4455  0.5755
   30MOL   C37721895   5.425   2.883   2.786  0.4401 -0.1626  0.2569
   30MOL   C37821896   5.563   2.837   2.732 -0.1794  0.4459 -0.1971
   30MOL   C37921897   5.623   2.926   2.622  0.5075 -0.1864  0.1678
   30MOL   C38021898   5.757   2.879   2.569  0.1971 -0.4298  0.3239
   30MOL   C38121899   5.790   2.916   2.421 -0.1538  0.7508 -0.6998
   30MOL   C38221900   5.839   3.057   2.404 -0.7778  0.0802 -0.3140
   30MOL   C38321901   5.945   3.075   2.291  0.3472  0.2424  0.0136
   30MOL   C38421902   5.990   3.225   2.271  0.4138 -0.2160  0.1671
   30MOL   N38521903   6.063   3.279   2.385 -0.4792  0.0099 -0.4896
   30MOL   H38621904   5.143   3.193   2.984  0.4771  0.7088  2.8893
   30MOL   H38721905   5.294   3.201   3.066 -2.1427 -0.3248  0.4070
   30MOL   H38821906   5.263   2.977   2.992 -0.0584  0.1880 -0.1103
   30MOL   H38921907   5.209   3.023   2.835  0.6741  0.6579  0.0069
   30MOL   H39021908   5.485   3.013   2.946 -0.5229 -0.6700  0.4779
   30MOL   H39121909   5.465   3.100   2.800 -0.1624  0.3859  0.7900
   30MOL   H39221910   5.396   2.805   2.856  2.0267  1.1042  2.3517
   30MOL   H39321911   5.350   2.889   2.706  0.5286  1.3184  0.2723
   30MOL   H39421912   5.563   2.735   2.692  0.3757  0.4088 -0.1120
   30MOL   H39521913   5.629   2.845   2.819 -1.3322  1.3182  0.6094
   30MOL   H39621914   5.631   3.030   2.654  0.5939  0.1914 -1.0330
   30MOL   H39721915   5.553   2.911   2.540  0.2817 -0.6840  0.4497
   30MOL   H39821916   5.770   2.773   2.593 -0.0548 -0.4598  0.3268
   30MOL   H39921917   5.828   2.923   2.639  0.4721  0.0561 -0.2576
   30MOL   H40021918   5.700   2.900   2.362  0.5277 -2.4600 -0.9608
   30MOL   H40121919   5.865   2.848   2.381 -0.2437  0.8146 -0.9763
   30MOL   H40221920   5.882   3.089   2.498 -1.0179  0.9786 -0.5100
   30MOL   H40321921   5.756   3.118   2.371  1.2368  2.0481 -1.8861
   30MOL   H40421922   5.911   3.040   2.194  1.0105 -3.5152  1.0335
   30MOL   H40521923   6.032   3.011   2.303 -0.6272 -1.7090 -2.6870
   30MOL   H40621924   5.907   3.291   2.248  1.4972  1.5114  1.1144
   30MOL   H40721925   6.060   3.230   2.188  2.1551 -1.6169  1.5026
   30MOL   H40821926   6.101   3.216   2.454 -0.6205  0.0546 -0.3704
   30MOL   C40921927   6.109   3.409   2.393  0.2172  0.2313  0.0379
   30MOL   O41021928   6.079   3.490   2.305  0.0969 -0.7789 -0.0872
   30MOL   C41121929   6.182   3.449   2.526  0.3379  0.1752  0.1229
   30MOL   C41221930   6.189   3.598   2.556  0.0802  0.1843  0.0934
   30MOL   C41321931   6.052   3.665   2.560  0.6203 -0.6642 -0.3093
   30MOL   C41421932   6.060   3.822   2.584  0.6535 -0.3197 -0.9211
   30MOL   C41521933   5.932   3.893   2.616 -0.1414 -0.1824 -0.6919
   30MOL   C41621934   5.941   4.042   2.581 -0.0421  0.0902 -0.2132
   30MOL   C41721935   5.810   4.097   2.520 -0.3294  0.2711 -0.7951
   30MOL   C41821936   5.787   4.071   2.371 -0.1783  0.3199  0.0023
   30MOL   C41921937   5.649   4.111   2.322 -0.2281 -0.5058  0.1384
   30MOL   C42021938   5.642   4.126   2.171  0.0535  0.6800  0.1956
   30MOL   C42121939   5.497   4.160   2.118 -0.7206  0.2538 -0.5154
   30MOL   N42221940   5.497   4.192   1.972 -0.8429  0.1160 -0.5370
   30MOL   H42321941   6.278   3.399   2.516 -0.4450 -1.1862 -0.8245
   30MOL   H42421942   6.130   3.401   2.610  0.0521  1.7390  0.8575
   30MOL   H42521943   6.243   3.610   2.650 -0.7921  1.4594  0.4520
   30MOL   H42621944   6.258   3.644   2.485  1.0655 -0.3786  0.6712
   30MOL   H42721945   5.988   3.620   2.635  0.3762 -1.9602 -1.2752
   30MOL   H42821946   6.004   3.661   2.463 -0.9333 -0.0801  0.4258
   30MOL   H42921947   6.130   3.837   2.667  1.0238  0.2657 -1.3285
   30MOL   H43021948   6.106   3.865   2.494  0.2872 -1.2537 -1.5573
   30MOL   H43121949   5.916   3.884   2.723 -1.6292 -0.0098 -0.8885
   30MOL   H43221950   5.843   3.843   2.578 -0.4411 -0.4403  0.3509
   30MOL   H43321951   6.029   4.072   2.524 -0.2967  1.1923 -0.0519
   30MOL   H43421952   5.955   4.100   2.672  1.7782  1.2045 -1.1785
   30MOL   H43521953   5.808   4.203   2.545 -2.0906 -0.1034  0.8172
   30MOL   H43621954   5.726   4.061   2.579 -0.8560  1.4784 -0.7982
   30MOL   H43721955   5.791   3.962   2.362  0.4515  0.5325 -2.7989
   30MOL   H43821956   5.865   4.114   2.308  1.0608 -0.7469  0.7855
   30MOL   H43921957   5.613   4.198   2.377 -0.3723  0.7897 -1.9870
   30MOL   H44021958   5.580   4.029   2.346 -0.7406 -0.3125 -0.6509
   30MOL   H44121959   5.668   4.030   2.128  0.2682  0.7898  0.0759
   30MOL   H44221960   5.719   4.197   2.140  1.2070 -0.0465  1.3601
   30MOL   H44321961   5.456   4.246   2.171  1.0648  0.5472  0.4324
   30MOL   H44421962   5.421   4.087   2.146 -0.3876  1.0055  2.5473
   30MOL   H44521963   5.463   4.284   1.945  1.8143  2.1825  2.7801
   30MOL   C44621964   5.524   4.104   1.876  0.5334 -0.1603  0.3391
   30MOL   O44721965   5.543   3.987   1.895 -0.1331  0.5195  0.4529
   30MOL   C44821966   5.529   4.163   1.735 -0.1659  0.4689 -0.2449
   30MOL   C44921967   5.556   4.048   1.636  0.0895  0.2283 -0.3529
   30MOL   C45021968   5.604   4.105   1.497 -0.0384 -0.5813  0.3656
   30MOL   C45121969   5.585   3.993   1.389  0.3448 -0.6228  0.0380
   30MOL   C45221970   5.649   4.018   1.249 -0.0840 -0.3954  0.3833
   30MOL   C45321971   5.790   3.967   1.251 -0.6146 -0.4442  0.2692
   30MOL   C45421972   5.875   4.024   1.139  0.3096 -0.0950  0.4712
   30MOL   C45521973   6.024   3.985   1.137  0.0808 -0.0717 -0.4127
   30MOL   C45621974   6.115   4.041   1.026  1.3365 -0.3370  0.2876
   30MOL   C45721975   6.087   3.980   0.890 -0.2047 -0.2248 -0.4066
   30MOL   C45821976   6.145   3.839   0.866 -0.2771  0.7169 -0.0860
   30MOL   N45921977   6.098   3.785   0.739 -0.1398 -0.5030 -0.7343
   30MOL   H46021978   5.608   4.238   1.728 -0.4004  0.7571  0.1933
   30MOL   H46121979   5.434   4.206   1.702 -0.5911  1.3286  2.0313
   30MOL   H46221980   5.637   3.983   1.666 -1.2136 -1.9863 -1.5396
   30MOL   H46321981   5.463   3.996   1.613  1.3078 -0.9023 -2.9542
   30MOL   H46421982   5.707   4.140   1.506 -0.3217  0.0510  1.2473
   30MOL   H46521983   5.534   4.179   1.460 -0.3245 -0.9509  0.1645
   30MOL   H46621984   5.621   3.899   1.432 -0.1352 -0.3979  0.9550
   30MOL   H46721985   5.477   3.983   1.382  0.2090 -0.1898  1.3600
   30MOL   H46821986   5.646   4.125   1.227  1.0695 -0.7100 -1.4404
   30MOL   H46921987   5.589   3.972   1.170 -0.2327  1.6852 -0.7525
   30MOL   H47021988   5.787   3.858   1.249  2.9059 -0.6541  1.8893
   30MOL   H47121989   5.837   3.989   1.347 -1.2716 -1.0344  0.7292
   30MOL   H47221990   5.862   4.132   1.130  1.6988 -0.0539 -1.2353
   30MOL   H47321991   5.830   3.982   1.050 -1.3726 -1.0034  1.7312
   30MOL   H47421992   6.042   3.878   1.145  0.5438  0.1145  1.1926
   30MOL   H47521993   6.068   4.031   1.226 -0.7472  0.8534 -0.4746
   30MOL   H47621994   6.218   4.025   1.055  1.0667 -0.0929  1.4064
   30MOL   H47721995   6.089   4.147   1.021  1.9884 -0.1502  0.8103
   30MOL   H47821996   6.133   4.051   0.822  0.0876 -1.4122 -1.4743
   30MOL   H47921997   5.985   3.981   0.852 -0.1557  1.8361 -0.5183
   30MOL   H48021998   6.113   3.764   0.938  2.1756  0.3995  0.7375
   30MOL   H48121999   6.254   3.840   0.868 -0.2910  1.3937  0.7861
   30MOL   H48222000   6.176   3.766   0.679 -0.0413  0.4171 -0.9030
   30MOL   C48322001   5.985   3.723   0.720  0.6609 -0.2800  0.2643
   30MOL   O48422002   5.901   3.725   0.808  0.4856  0.3171  0.0930
   30MOL   C48522003   5.966   3.648   0.584 -0.3454  0.3992 -0.1537
   30MOL   C48622004   6.033   3.503   0.588 -0.1726 -0.0270  0.4260
   30MOL   C48722005   6.155   3.477   0.507 -0.0649  0.0970 -0.2071
   30MOL   C48822006   6.172   3.336   0.475  0.3705  0.0485 -0.3525
   30MOL   C48922007   6.299   3.296   0.405  0.3403 -0.1749  0.1481
   30MOL   C49022008   6.334   3.142   0.410 -0.1864 -0.7848 -0.1180
   30MOL   C49122009   6.469   3.102   0.342  0.4442 -0.0810 -0.2143
   30MOL   C49222010   6.595   3.144   0.428  0.3095  0.7309 -0.1247
   30MOL   C49322011   6.727   3.080   0.388  0.5021  0.6334 -0.2969
   30MOL   C49422012   6.853   3.119   0.474 -0.0007  0.1457  0.4702
   30MOL   C49522013   6.989   3.047   0.438 -1.1541  0.0372  0.0051
   30MOL   N49622014   7.102   3.106   0.507  0.3093 -0.6204 -0.0894
   30MOL   H49722015   6.026   3.710   0.517  1.0914  1.2175  1.8313
   30MOL   H49822016   5.865   3.651   0.544  0.3410 -0.6317 -2.0152
   30MOL   H49922017   6.038   3.477   0.693  0.1538  1.9616  0.9262
   30MOL   H50022018   5.958   3.430   0.558  1.8010 -1.4916 -1.0405
   30MOL   H50122019   6.242   3.526   0.550  0.7831  1.1051 -2.9893
   30MOL   H50222020   6.143   3.519   0.407 -1.3492  0.4577  0.0865
   30MOL   H50322021   6.167   3.282   0.569  2.0835 -0.3947 -0.5038
   30MOL   H50422022   6.086   3.295   0.421  1.1129 -1.5288 -0.3710
   30MOL   H50522023   6.377   3.350   0.459  1.2377 -1.6999  0.3997
   30MOL   H50622024   6.284   3.341   0.307  1.1305 -1.0310 -0.3594
   30MOL   H50722025   6.255   3.083   0.362  0.3519 -1.6575  0.0530
   30MOL   H50822026   6.326   3.110   0.514 -2.6696  2.1349  0.6692
   30MOL   H50922027   6.466   3.138   0.239 -0.7474 -2.2393 -0.9623
   30MOL   H51022028   6.470   2.993   0.336 -1.6378 -0.0307 -2.8280
   30MOL   H51122029   6.586   3.138   0.536 -0.9446 -0.8658 -0.2985
   30MOL   H51222030   6.604   3.250   0.405 -0.7918  0.8041 -0.2305
   30MOL   H51322031   6.741   3.083   0.280  0.9233 -1.7747 -0.3504
   30MOL   H51422032   6.709   2.973   0.402  0.9689  0.8023  1.8183
   30MOL   H51522033   6.841   3.105   0.582 -0.7057 -1.2760  0.2192
   30MOL   H51622034   6.867   3.227   0.465  1.6762 -0.2139 -1.5132
   30MOL   H51722035   7.006   3.055   0.331 -0.5241 -3.7828 -0.2600
   30MOL   H51822036   6.974   2.940   0.455  0.5366 -0.1636  0.2742
   30MOL   H51922037   7.077   3.177   0.575  0.1403  1.1797 -1.9711
   30MOL   C52022038   7.232   3.067   0.486 -0.1824 -0.0709 -0.5696
   30MOL   O52122039   7.262   2.985   0.403  0.8043 -0.2467  0.7999
   30MOL   C52222040   7.336   3.137   0.577 -0.4729 -0.0447 -0.1007
   30MOL   C52322041   7.469   3.068   0.572 -0.3841 -0.5353 -0.0979
   30MOL   C52422042   7.465   2.913   0.615 -0.1170 -0.2213  0.0881
   30MOL   C52522043   7.601   2.852   0.608 -0.4405  0.2305  0.0383
   30MOL   C52622044   7.603   2.711   0.651 -0.0889  0.6581 -0.6592
   30MOL   C52722045   0.042   2.627   0.615  0.3096  0.0478 -0.4949
   30MOL   C52822046   0.153   2.639   0.727 -0.3716  0.2090  0.2921
   30MOL   C52922047   0.105   2.618   0.880  0.9102 -0.6302 -0.1556
   30MOL   C53022048   0.210   2.638   0.984  0.5352  0.4292 -0.3443
   30MOL   C53122049   0.161   2.642   1.126  0.2921 -0.3261 -0.2963
   30MOL   C53222050   0.276   2.658   1.224 -0.0046  0.7052  0.6927
   30MOL   N53322051   0.215   2.689   1.355 -0.5860 -0.2851 -0.0433
   30MOL   H53422052   7.301   3.133   0.680  1.4637  1.1027  0.6288
   30MOL   H53522053   7.345   3.237   0.533  0.7347 -0.2026 -0.2150
   30MOL   H53622054   7.509   3.078   0.471 -0.1239 -1.0780 -0.0474
   30MOL   H53722055   7.543   3.114   0.638 -0.8803  2.8836 -1.8070
   30MOL   H53822056   7.388   2.853   0.565 -1.5017 -0.0738  1.9998
   30MOL   H53922057   7.436   2.909   0.720 -0.1685 -0.0124  0.0820
   30MOL   H54022058   7.644   2.860   0.509  0.6533  1.3630  0.5885
   30MOL   H54122059   7.674   2.910   0.665 -1.0324  0.5213  0.4987
   30MOL   H54222060   7.517   2.657   0.611 -0.7378 -0.9077  2.6970
   30MOL   H54322061   7.587   2.713   0.759 -0.6043 -2.0971 -0.6389
   30MOL   H54422062   0.080   2.652   0.516  2.0790 -0.1881  0.1034
   30MOL   H54522063   0.009   2.527   0.589  0.2562  0.1243 -0.7223
   30MOL   H54622064   0.193   2.739   0.710 -2.9217  1.7249  2.8564
   30MOL   H54722065   0.227   2.561   0.708  1.2375  1.4631  1.2472
   30MOL   H54822066   0.061   2.520   0.898  0.5660 -0.3733  0.4298
   30MOL   H54922067   0.035   2.698   0.903 -1.0340 -1.5862 -2.4941
   30MOL   H55022068   0.257   2.734   0.962  0.4748  0.5720  0.1450
   30MOL   H55122069   0.288   2.565   0.962 -0.8174 -1.3210  0.4821
   30MOL   H55222070   0.105   2.551   1.146 -1.0813  0.3954 -0.8405
   30MOL   H55322071   0.100   2.729   1.146  1.9999  0.4778  1.6036
   30MOL   H55422072   0.342   2.737   1.192 -1.3953  1.3478 -0.6498
   30MOL   H55522073   0.320   2.560   1.243 -1.5209  0.1101  1.2495
   30MOL   H55622074   0.184   2.615   1.417  0.7401 -0.5304  0.3320
   30MOL   C55722075   0.227   2.807   1.417 -0.1071  0.7794  0.4810
   30MOL   O55822076   0.259   2.907   1.347 -0.2680 -1.3483 -0.4622
   30MOL   C55922077   0.203   2.824   1.566 -0.5455 -0.4233  0.5828
   30MOL   C56022078   0.202   2.691   1.641 -0.1167  0.3755  0.7454
   30MOL   C56122079   0.351   2.627   1.655  0.3732  0.1146  0.0979
   30MOL   C56222080   0.355   2.493   1.720 -0.1033 -0.0461 -0.0125
   30MOL   C56322081   0.289   2.499   1.861  0.2461 -0.6546  0.2651
   30MOL   C56422082   0.294   2.364   1.943 -0.4527  0.4085  0.0224
   30MOL   C56522083   0.438   2.323   1.974  0.3997  0.2554 -0.8079
   30MOL   C56622084   0.453   2.182   2.037 -0.3923  0.5787  0.4699
   30MOL   C56722085   0.427   2.064   1.934  0.7286 -0.4606 -0.1878
   30MOL   C56822086   0.389   1.933   2.008 -0.4007 -1.1827  0.6029
   30MOL   C56922087   0.367   1.820   1.912  0.4800  0.1387  0.3927
   30MOL   N57022088   0.247   1.837   1.828 -0.2882  0.3137  0.8167
   30MOL   H57122089   0.112   2.883   1.572 -0.1950  0.0617  1.2765
   30MOL   H57222090   0.277   2.889   1.613  0.1388 -0.4500 -0.4451
   30MOL   H57322091   0.173   2.727   1.740  0.0192 -1.9921  1.6885
   30MOL   H57422092   0.136   2.613   1.604  1.8780 -1.9530  1.9064
   30MOL   H57522093   0.411   2.700   1.709 -1.8285  0.5041  2.1285
   30MOL   H57622094   0.393   2.607   1.556  0.3566  0.9398 -0.0826
   30MOL   H57722095   0.312   2.421   1.651 -0.0991  1.4128 -1.5655
   30MOL   H57822096   0.461   2.475   1.742 -0.9053 -3.0037  1.7741
   30MOL   H57922097   0.190   2.540   1.839  0.8260 -0.0873 -1.3470
   30MOL   H58022098   0.332   2.582   1.918  1.3804  0.5996 -2.3300
   30MOL   H58122099   0.247   2.288   1.880  0.4372  1.3185 -1.7851
   30MOL   H58222100   0.239   2.389   2.033 -0.5171  2.4284 -0.5593
   30MOL   H58322101   0.469   2.397   2.047 -1.5845 -0.8784  1.2644
   30MOL   H58422102   0.505   2.339   1.890  0.0964  1.7647 -0.7726
   30MOL   H58522103   0.380   2.173   2.118  0.5384  0.2418  1.2869
   30MOL   H58622104   0.551   2.170   2.082  0.6078 -1.5909 -2.2324
   30MOL   H58722105   0.515   2.046   1.871  0.5843 -0.2852 -0.4427
   30MOL   H58822106   0.348   2.077   1.860 -1.0682  0.4882  1.8498
   30MOL   H58922107   0.305   1.949   2.076 -1.9148 -2.1485 -0.9970
   30MOL   H59022108   0.475   1.915   2.072  0.4557 -1.1756 -0.5264
   30MOL   H59122109   0.360   1.739   1.984  3.1267  0.2625  0.8278
   30MOL   H59222110   0.459   1.802   1.857 -0.5135 -2.3788 -0.5330
   30MOL   H59322111   0.163   1.886   1.854 -0.4305 -0.5508  2.0564
   30MOL   C59422112   0.218   1.764   1.718  0.4415 -0.2737  0.0812
   30MOL   O59522113   0.289   1.683   1.664  0.2234  0.3694  0.1943
   30MOL   C59622114   0.080   1.800   1.656  0.3500  0.1371  0.3256
   30MOL   C59722115   0.091   1.836   1.507 -0.1730 -0.5298 -0.0583
   30MOL   C59822116   7.670   1.927   1.463  0.2239  0.0165 -0.1527
   30MOL   C59922117   7.529   1.872   1.498  0.0232  0.1018 -0.8472
   30MOL   C60022118   7.490   1.745   1.430  0.7639  0.3559 -0.4213
   30MOL   C60122119   7.497   1.769   1.276  0.1215  0.2863  0.0804
   30MOL   C60222120   7.495   1.630   1.201  0.8055 -0.1291  0.1986
   30MOL   C60322121   7.603   1.532   1.246 -0.7014 -0.1281 -0.2143
   30MOL   C60422122   7.636   1.429   1.139 -0.9000 -0.0117 -0.4574
   30MOL   C60522123   0.052   1.325   1.194  0.5656  0.1101 -0.0865
   30MOL   C60622124   0.116   1.250   1.074  0.0147 -0.3017 -0.4948
   30MOL   N60722125   0.025   1.157   1.009 -0.4013 -0.6013 -0.7102
   30MOL   H60822126   0.036   1.884   1.709  0.3972  0.3809 -0.0209
   30MOL   H60922127   0.018   1.712   1.674  0.9851 -0.4233 -0.2096
   30MOL   H61022128   0.183   1.890   1.481 -0.3148 -0.3075 -0.0948
   30MOL   H61122129   0.091   1.747   1.444  0.8352  1.5181 -3.0460
   30MOL   H61222130   7.677   1.963   1.360  0.7977 -0.1485 -0.1688
   30MOL   H61322131   7.685   2.014   1.528 -1.2759 -0.1375  0.4207
   30MOL   H61422132   7.533   1.846   1.604  0.9552  0.0981 -0.8719
   30MOL   H61522133   7.451   1.948   1.492  0.5172  0.8093  1.2565
   30MOL   H61622134   7.397   1.709   1.474  1.3567  0.4385  0.9411
   30MOL   H61722135   7.549   1.659   1.463 -1.6091 -0.9464  0.5190
   30MOL   H61822136   7.581   1.826   1.237 -1.5504  1.2673 -2.2086
   30MOL   H61922137   7.411   1.833   1.257 -0.4080 -0.4797 -0.1358
   30MOL   H62022138   7.495   1.652   1.094 -0.7712  1.7127  0.5559
   30MOL   H62122139   7.401   1.577   1.219 -0.4357  1.4323 -1.5053
   30MOL   H62222140   7.572   1.481   1.337  0.8909  0.9942  0.9822
   30MOL   H62322141   7.692   1.584   1.280  0.9888 -1.4766 -2.4416
   30MOL   H62422142   7.665   1.469   1.042 -0.9520 -0.6220 -0.7308
   30MOL   H62522143   7.542   1.378   1.119 -1.1026 -0.2231  1.0345
   30MOL   H62622144   0.012   1.253   1.265  1.8096  0.1882  0.7245
   30MOL   H62722145   0.130   1.372   1.254  0.6903 -0.9001  0.5678
   30MOL   H62822146   0.209   1.199   1.099  1.2473  1.0321 -2.2508
   30MOL   H62922147   0.150   1.319   0.996  0.1329 -1.8244 -1.8053
   30MOL   H63022148   7.627   1.138   1.048  0.0135 -2.2102 -0.4986
   30MOL   C63122149   0.053   1.084   0.908 -0.0015  0.7685  0.0664
   30MOL   O63222150   0.168   1.078   0.864  0.2427  0.5700  0.0424
   30MOL   C63322151   7.635   0.997   0.857  0.3598 -0.2767  0.8814
   30MOL   C63422152   7.629   0.978   0.703  0.1201  0.7312 -0.0740
   30MOL   C63522153   7.591   1.118   0.636 -1.1385  0.5490  0.1197
   30MOL   C63622154   7.571   1.122   0.489  0.1872  0.2296  0.6912
   30MOL   C63722155   7.493   1.246   0.442 -0.2322 -0.1067 -0.6388
   30MOL   C63822156   7.481   1.255   0.292  0.3132  0.2415  0.2750
   30MOL   C63922157   7.374   1.159   0.217  0.0348 -0.3194 -0.2928
   30MOL   C64022158   7.230   1.214   0.223 -0.7059  0.2124  0.0545
   30MOL   C64122159   7.130   1.126   0.142  0.1587  0.7685  0.6400
   30MOL   C64222160   6.987   1.156   0.166  0.4930 -0.2510  0.0082
   30MOL   C64322161   6.947   1.292   0.098  0.4133  0.1611  0.1618
   30MOL   N64422162   6.817   1.335   0.152  0.8243 -0.0008  0.2229
   30MOL   H64522163   7.540   1.044   0.881 -0.3634 -0.1479 -2.0699
   30MOL   H64622164   7.653   0.900   0.903  1.2013 -0.2868  0.5450
   30MOL   H64722165   0.032   0.958   0.657 -0.4328 -0.1229 -0.8879
   30MOL   H64822166   7.568   0.896   0.667  0.1988  0.3588  0.6417
   30MOL   H64922167   7.665   1.196   0.653  0.0558 -0.1092 -1.9141
   30MOL   H65022168   7.509   1.160   0.695 -1.4819  1.1360 -0.7720
   30MOL   H65122169   7.668   1.121   0.440 -1.4467 -0.3017 -2.7034
   30MOL   H65222170   7.507   1.040   0.455 -0.5927  1.1962 -0.2345
   30MOL   H65322171   7.550   1.329   0.483  1.1961 -1.0629 -0.6616
   30MOL   H65422172   7.392   1.253   0.482  0.5501  1.7268  1.1212
   30MOL   H65522173   7.579   1.231   0.252  1.5740 -1.5073  4.2333
   30MOL   H65622174   7.446   1.354   0.259  1.0406 -0.0527 -1.4309
   30MOL   H65722175   7.369   1.063   0.268  0.8605 -0.5800 -0.7022
   30MOL   H65822176   7.411   1.162   0.114 -1.8686 -0.3641 -0.9913
   30MOL   H65922177   7.228   1.319   0.194  0.0681  0.4344  0.7862
   30MOL   H66022178   7.202   1.218   0.328  3.2350  0.0401  1.1912
   30MOL   H66122179   7.143   1.028   0.189 -0.7480  0.1764 -0.3094
   30MOL   H66222180   7.157   1.122   0.036  2.4037  1.0874  1.1776
   30MOL   H66322181   6.979   1.152   0.275 -2.0860  1.5621 -0.0692
   30MOL   H66422182   6.929   1.076   0.122  1.9106 -1.2385 -0.1038
   30MOL   H66522183   6.954   1.264   7.686  1.9283  2.0213 -0.2406
   30MOL   H66622184   7.031   1.354   0.127  2.6383 -0.4951 -4.4521
   30MOL   H66722185   6.776   1.278   0.224 -0.3433 -1.0959 -1.2678
   30MOL   C66822186   6.740   1.437   0.108 -0.2204  0.1075 -0.0189
   30MOL   O66922187   6.773   1.511   0.013  0.0268  0.0671 -0.4769
   30MOL   C67022188   6.620   1.474   0.199 -0.0896 -0.3722 -0.0387
   30MOL   C67122189   6.597   1.622   0.226 -0.4415 -0.6098  0.8491
   30MOL   C67222190   6.468   1.650   0.300 -0.2232  0.3718  0.0354
   30MOL   C67322191   6.345   1.621   0.216 -0.5267 -0.4649 -0.0971
   30MOL   C67422192   6.216   1.679   0.270 -0.4082 -0.5774  0.4326
   30MOL   C67522193   6.207   1.832   0.268 -0.1819  0.0685  0.7233
   30MOL   C67622194   6.084   1.904   0.321  0.1896 -0.6674 -0.7015
   30MOL   C67722195   6.070   1.905   0.472  0.5075  0.6458 -0.4878
   30MOL   C67822196   6.167   2.016   0.524  0.1324 -0.0528  0.5152
   30MOL   C67922197   6.160   2.044   0.673 -0.2022  0.0008 -0.4651
   30MOL   C68022198   6.232   2.164   0.729 -0.1156  0.8700  0.8520
   30MOL   N68122199   6.224   2.175   0.875 -0.3016  0.0864 -0.4424
   30MOL   H68222200   6.621   1.435   0.301  0.1639 -0.0520  0.0855
   30MOL   H68322201   6.532   1.425   0.157  0.8963  1.2768 -4.2741
   30MOL   H68422202   6.681   1.636   0.295  0.1564 -1.8072  0.3795
   30MOL   H68522203   6.623   1.693   0.148  2.1045 -0.6928  1.5874
   30MOL   H68622204   6.474   1.756   0.326  0.0485  0.4979 -0.5280
   30MOL   H68722205   6.463   1.595   0.393  0.3420 -1.5634 -1.0422
   30MOL   H68822206   6.355   1.665   0.117 -0.2015 -0.9984 -0.3030
   30MOL   H68922207   6.326   1.515   0.199  0.8903 -0.6531 -0.5912
   30MOL   H69022208   6.217   1.651   0.375  0.9397  1.7120  1.0491
   30MOL   H69122209   6.130   1.634   0.220 -0.2542  1.2270 -1.5589
   30MOL   H69222210   6.237   1.873   0.171  2.2243 -1.6779  0.7014
   30MOL   H69322211   6.287   1.874   0.330 -1.1519 -1.8286  3.3485
   30MOL   H69422212   5.996   1.856   0.279 -1.3858  1.7630 -0.3017
   30MOL   H69522213   6.069   2.007   0.287 -0.9298 -0.6257 -0.1029
   30MOL   H69622214   6.091   1.809   0.520 -2.2093  1.3174  2.1960
   30MOL   H69722215   5.967   1.926   0.499  0.0843 -0.6657 -1.0493
   30MOL   H69822216   6.135   2.111   0.480 -0.5511 -1.1489 -1.4195
   30MOL   H69922217   6.274   2.008   0.504  0.4508  0.3772  1.9846
   30MOL   H70022218   6.194   1.947   0.709 -2.6567 -0.4054  0.8484
   30MOL   H70122219   6.056   2.053   0.705  0.1600  0.9011  0.5054
   30MOL   H70222220   6.205   2.260   0.683  0.5192  1.0285  0.8037
   30MOL   H70322221   6.337   2.163   0.701 -0.0902  0.0004  0.9760
   30MOL   H70422222   6.308   2.140   0.920 -0.1321 -0.6664 -1.3161
   30MOL   C70522223   6.123   2.238   0.938 -0.1402 -0.9636 -0.9711
   30MOL   O70622224   6.025   2.289   0.879 -0.1468 -0.2256 -0.1413
   30MOL   C70722225   6.132   2.251   1.089  0.2203 -0.0960 -0.7580
   30MOL   C70822226   6.003   2.205   1.160  0.2436  0.8359  0.4940
   30MOL   C70922227   5.979   2.059   1.147 -0.1043 -0.5064  0.0752
   30MOL   C71022228   5.851   2.020   1.210 -0.5962 -0.2918 -0.2603
   30MOL   C71122229   5.828   1.869   1.219 -0.5205 -0.2947  0.4016
   30MOL   C71222230   5.690   1.822   1.233  0.3125 -0.4325 -0.1930
   30MOL   C71322231   5.681   1.675   1.259  0.3655 -0.3775 -0.7893
   30MOL   C71422232   5.706   1.588   1.138  0.4046 -0.5621 -0.3762
   30MOL   C71522233   5.675   1.441   1.162  0.1637  0.2199  0.0859
   30MOL   C71622234   5.686   1.377   1.023 -0.4451 -0.1553  0.3610
   30MOL   C71722235   5.671   1.224   1.052  0.0758 -0.4639 -0.6118
   30MOL   N71822236   5.790   1.161   1.114 -0.1103 -0.1005  0.1739
   30MOL   H71922237   6.142   2.358   1.101 -1.9455  0.0327  0.1889
   30MOL   H72022238   6.218   2.205   1.138 -0.6446  1.9264  2.8049
   30MOL   H72122239   6.016   2.221   1.267  3.4378 -1.2974  0.4568
   30MOL   H72222240   5.919   2.268   1.128  0.3513  0.3151 -0.7954
   30MOL   H72322241   6.066   2.003   1.182  3.2996  3.3030 -1.8909
   30MOL   H72422242   5.961   2.020   1.047  1.9527 -0.3409 -0.3720
   30MOL   H72522243   5.823   2.075   1.300  3.0120  0.5114  0.4194
   30MOL   H72622244   5.791   2.069   1.133  1.8544  3.3706  0.0483
   30MOL   H72722245   5.898   1.829   1.292  2.2786 -0.5762 -2.3443
   30MOL   H72822246   5.867   1.826   1.126  0.1253 -0.7678  0.8932
   30MOL   H72922247   5.633   1.838   1.143  0.8961  1.1500 -0.2995
   30MOL   H73022248   5.643   1.878   1.314  0.8128  0.5359 -0.5620
   30MOL   H73122249   5.574   1.662   1.280  0.3237  3.5462  1.9162
   30MOL   H73222250   5.753   1.637   1.331  0.2863  0.8839 -0.0286
   30MOL   H73322251   5.809   1.589   1.102  0.4483  0.1120 -0.2390
   30MOL   H73422252   5.646   1.610   1.049  3.1695 -2.0212 -2.6856
   30MOL   H73522253   5.580   1.418   1.211  0.1894  1.4258  0.7451
   30MOL   H73622254   5.760   1.401   1.217  0.3242 -1.6296 -1.4788
   30MOL   H73722255   5.783   1.408   0.984 -0.4164  0.9362  1.2701
   30MOL   H73822256   5.610   1.422   0.959  1.9071  1.8309 -1.1558
   30MOL   H73922257   5.647   1.167   0.962 -0.5285 -1.3634  0.0936
   30MOL   H74022258   5.583   1.213   1.117  1.2204 -1.6439  0.7797
   30MOL   H74122259   5.809   1.176   1.212 -1.6481  1.6497  0.2507
   30MOL   H74222260   5.873   1.174   1.057 -0.2760  2.6039  0.4796
   31MOL     C122261   3.652   4.668   4.549  0.0119  1.0509 -0.1342
   31MOL     O222262   3.586   4.565   4.520 -0.1920 -0.1494 -0.6671
   31MOL     C322263   3.800   4.655   4.556 -0.4289 -0.1699 -0.2731
   31MOL     C422264   3.864   4.581   4.436 -0.2263 -0.3776  0.6002
   31MOL     C522265   4.014   4.568   4.467  0.3655  0.4522  0.5250
   31MOL     C622266   4.086   4.511   4.350 -1.3989 -0.4196  0.3810
   31MOL     C722267   4.238   4.505   4.370  0.1798 -0.2588  0.8136
   31MOL     C822268   4.306   4.459   4.238  0.0264  0.1456 -0.3366
   31MOL     C922269   4.453   4.439   4.265 -0.1199 -0.0191 -0.1193
   31MOL    C1022270   4.475   4.301   4.300 -0.8228 -0.1547 -0.0803
   31MOL    C1122271   4.617   4.268   4.354 -0.5018 -0.0438  0.0536
   31MOL    C1222272   4.648   4.124   4.365 -0.2559 -0.5382 -0.4265
   31MOL    C1322273   4.802   4.110   4.401 -0.2383 -0.5589  0.3206
   31MOL    N1422274   4.858   3.980   4.386  0.8068 -0.3058 -0.0047
   31MOL    H1522275   3.827   4.602   4.648  1.0284  1.6673  0.3962
   31MOL    H1622276   3.841   4.754   4.574  0.7115 -0.7417  0.3578
   31MOL    H1722277   3.818   4.482   4.430 -0.9389 -0.0811  1.0711
   31MOL    H1822278   3.845   4.629   4.340  0.2115  0.5264  0.9683
   31MOL    H1922279   4.051   4.516   4.555 -0.5728 -0.7571  0.2165
   31MOL    H2022280   4.052   4.668   4.489  0.9211  0.7787 -1.7543
   31MOL    H2122281   4.048   4.417   4.311 -0.8844 -1.4000  2.1947
   31MOL    H2222282   4.079   4.581   4.265  0.9821  0.1757  0.6550
   31MOL    H2322283   4.277   4.439   4.448 -0.9296 -1.1908  0.5852
   31MOL    H2422284   4.270   4.604   4.405 -0.6219  0.0072  0.8171
   31MOL    H2522285   4.292   4.536   4.161 -2.2177 -0.7617 -0.8883
   31MOL    H2622286   4.270   4.371   4.185  1.3351 -0.6423  0.0685
   31MOL    H2722287   4.497   4.502   4.342  2.2609  0.0179 -1.4389
   31MOL    H2822288   4.514   4.462   4.177  0.6035 -0.2009  0.3318
   31MOL    H2922289   4.472   4.247   4.205 -0.9549 -1.6100  0.7377
   31MOL    H3022290   4.398   4.269   4.370 -0.3637 -0.2528  0.3844
   31MOL    H3122291   4.643   4.307   4.452  1.4479 -1.9667  0.3356
   31MOL    H3222292   4.691   4.305   4.283 -1.5189  0.3060 -0.8501
   31MOL    H3322293   4.637   4.079   4.267 -0.6996  1.1940 -1.1944
   31MOL    H3422294   4.587   4.066   4.434 -2.1320  2.6427  0.7473
   31MOL    H3522295   4.806   4.138   4.506  1.8212  0.4153  0.0198
   31MOL    H3622296   4.864   4.165   4.329 -0.0646  0.0187  0.9079
   31MOL    H3722297   4.794   3.913   4.346  0.8656 -0.5492  0.3035
   31MOL    H3822298   3.612   4.769   4.560 -2.1978  0.3032 -1.1622
   31MOL    C3922299   4.976   3.942   4.418 -0.2574 -0.0936 -0.0860
   31MOL    O4022300   5.051   4.024   4.477  0.7254  0.1051 -0.4190
   31MOL    C4122301   5.007   3.793   4.382 -0.4896 -0.6978  0.4111
   31MOL    C4222302   5.117   3.765   4.272  0.0511 -0.3698 -0.0365
   31MOL    C4322303   5.259   3.789   4.325  0.2465  1.0161  0.1192
   31MOL    C4422304   5.359   3.777   4.209  1.2187 -0.1810  0.3482
   31MOL    C4522305   5.497   3.832   4.247 -0.3147  0.0375  0.1173
   31MOL    C4622306   5.606   3.808   4.147  0.4286 -0.0535 -0.0508
   31MOL    C4722307   5.755   3.855   4.196  0.0294  0.0801  0.5005
   31MOL    C4822308   5.748   4.003   4.262  0.2006  0.5359  0.2497
   31MOL    C4922309   5.888   4.056   4.300  0.3282  0.2395 -0.7167
   31MOL    C5022310   5.892   4.189   4.375 -0.1350  0.2822  0.4418
   31MOL    C5122311   6.018   4.205   4.460 -0.6450 -0.6561 -0.5418
   31MOL    N5222312   6.041   4.107   4.568 -0.1354  0.4833  0.6117
   31MOL    H5322313   4.920   3.733   4.355 -0.2911 -1.8997  2.2892
   31MOL    H5422314   5.022   3.742   4.478 -1.0298 -1.3249  0.1622
   31MOL    H5522315   5.120   3.661   4.240  0.3675 -0.3654 -0.0176
   31MOL    H5622316   5.106   3.830   4.185  2.1973 -0.9326 -0.7377
   31MOL    H5722317   5.289   3.725   4.408 -0.9700 -0.4279 -0.5353
   31MOL    H5822318   5.270   3.893   4.358  1.7871 -0.0608  3.2282
   31MOL    H5922319   5.354   3.674   4.176 -0.2928 -0.3899  1.1485
   31MOL    H6022320   5.321   3.831   4.123 -0.1028  0.8601  1.5479
   31MOL    H6122321   5.524   3.775   4.335 -0.7363 -0.9667 -0.3997
   31MOL    H6222322   5.485   3.940   4.261  1.0719  0.0637  1.1866
   31MOL    H6322323   5.571   3.865   4.061 -2.8324 -0.9260  0.6153
   31MOL    H6422324   5.607   3.701   4.123 -2.1626 -0.8890  3.2255
   31MOL    H6522325   5.825   3.847   4.113 -0.8444  1.7503 -0.4416
   31MOL    H6622326   5.789   3.796   4.280 -1.2239  1.5905  2.1142
   31MOL    H6722327   5.681   4.007   4.348  0.6042 -1.5179  0.6912
   31MOL    H6822328   5.703   4.079   4.199 -1.1740 -0.3680  0.1214
   31MOL    H6922329   5.956   4.067   4.215 -0.5007 -0.7703 -1.5264
   31MOL    H7022330   5.927   3.983   4.371 -0.9473  1.2191  1.0266
   31MOL    H7122331   5.805   4.193   4.441  0.6216  1.3058  1.3942
   31MOL    H7222332   5.887   4.280   4.314 -1.0398 -0.3477 -0.4469
   31MOL    H7322333   6.023   4.305   4.503  0.6139 -0.0850 -1.9677
   31MOL    H7422334   6.097   4.198   4.385  0.3723 -0.4054  0.4982
   31MOL    H7522335   6.127   4.055   4.571 -1.0338 -1.2435 -1.8282
   31MOL    C7622336   5.959   4.073   4.670 -0.3422 -0.0759 -0.2036
   31MOL    O7722337   5.845   4.118   4.679 -0.2854 -0.1954 -0.1581
   31MOL    C7822338   6.012   3.994   4.779  1.2928 -0.4520  1.0524
   31MOL    C7922339   6.015   3.843   4.740 -0.1133 -0.0090 -0.2221
   31MOL    C8022340   5.884   3.787   4.707  0.3093 -0.8166 -0.1700
   31MOL    C8122341   5.861   3.644   4.688 -0.3179 -0.0431 -0.2164
   31MOL    C8222342   5.722   3.616   4.628  0.7584 -0.2070 -0.3858
   31MOL    C8322343   5.707   3.466   4.600 -0.5812 -0.4290 -0.1266
   31MOL    C8422344   5.602   3.441   4.492  0.7616  0.3477  0.7283
   31MOL    C8522345   5.462   3.428   4.541  0.1692 -0.9405 -0.0077
   31MOL    C8622346   5.353   3.395   4.433  0.1204 -0.0548  0.5256
   31MOL    C8722347   5.211   3.383   4.488  0.3296  0.2091  0.7184
   31MOL    C8822348   5.098   3.347   4.393  0.3653 -0.2503  0.4719
   31MOL    N8922349   4.980   3.305   4.461 -0.2691  0.5822  0.6401
   31MOL    H9022350   5.950   4.001   4.869  0.1410  0.4867  0.1930
   31MOL    H9122351   6.110   4.036   4.797  1.8656 -0.7460 -1.2758
   31MOL    H9222352   6.091   3.827   4.663  1.1210  0.7112  0.8250
   31MOL    H9322353   6.065   3.778   4.812 -1.2936 -1.6882 -0.8912
   31MOL    H9422354   5.850   3.844   4.621 -1.2217 -1.7592 -0.2088
   31MOL    H9522355   5.813   3.815   4.785 -0.4506 -1.2695 -0.6817
   31MOL    H9622356   5.937   3.612   4.617 -0.4920  2.1535 -1.4212
   31MOL    H9722357   5.879   3.597   4.785  0.3630  1.3432  0.3330
   31MOL    H9822358   5.727   3.664   4.530  0.8928  0.4832 -0.0408
   31MOL    H9922359   5.645   3.661   4.690  1.3168 -0.8423  0.7835
   31MOL   H10022360   5.682   3.412   4.691  0.5733  0.6879  0.8780
   31MOL   H10122361   5.803   3.428   4.564  0.1823  1.3233 -0.0164
   31MOL   H10222362   5.616   3.339   4.455  0.5993  0.6450 -0.1535
   31MOL   H10322363   5.598   3.495   4.398 -1.5911 -2.2300 -0.7508
   31MOL   H10422364   5.433   3.526   4.579  0.6079 -0.7941 -0.0456
   31MOL   H10522365   5.453   3.357   4.623 -2.8732  0.7604  1.2325
   31MOL   H10622366   5.392   3.305   4.385  4.5818  1.5412  0.9230
   31MOL   H10722367   5.355   3.473   4.357  1.5221 -0.5488  0.0322
   31MOL   H10822368   5.177   3.482   4.518  0.2114  0.6158 -0.7523
   31MOL   H10922369   5.214   3.313   4.572  1.3698  1.8331  2.0427
   31MOL   H11022370   5.123   3.266   4.324 -2.0464 -0.4704 -0.2186
   31MOL   H11122371   5.069   3.430   4.328 -1.4640 -2.7126 -1.9954
   31MOL   H11222372   4.994   3.256   4.549 -2.4053  0.4655  0.9485
   31MOL   C11322373   4.859   3.335   4.418 -0.4827 -0.6522  0.0859
   31MOL   O11422374   4.837   3.387   4.310 -0.2580 -0.3579  0.1279
   31MOL   C11522375   4.743   3.306   4.517  0.1017  0.5250  0.5774
   31MOL   C11622376   4.649   3.187   4.474 -0.3434  0.4771 -0.1926
   31MOL   C11722377   4.566   3.224   4.348 -0.8143 -0.1104  0.4800
   31MOL   C11822378   4.457   3.112   4.324 -0.2520  0.5866 -0.2783
   31MOL   C11922379   4.361   3.142   4.206 -0.4187  0.7094 -0.0838
   31MOL   C12022380   4.238   3.044   4.195 -0.3291  0.0867  0.3146
   31MOL   C12122381   4.276   2.904   4.141  0.1330  0.0793  0.1234
   31MOL   C12222382   4.172   2.792   4.166  0.5056  0.1751  0.1054
   31MOL   C12322383   4.157   2.774   4.317 -0.2421  0.2910  0.2336
   31MOL   C12422384   4.047   2.671   4.361 -0.2762 -0.0401 -0.8168
   31MOL   C12522385   4.035   2.647   4.518 -0.0410  0.0873  0.5318
   31MOL   N12622386   4.036   2.772   4.597  0.9160  0.7438  0.6607
   31MOL   H12722387   4.684   3.396   4.540 -2.7562 -1.2518  0.4580
   31MOL   H12822388   4.796   3.280   4.609 -1.1714  0.8935  1.4318
   31MOL   H12922389   4.710   3.099   4.454  0.1289 -0.0387  3.1062
   31MOL   H13022390   4.580   3.174   4.557 -0.0877 -1.8748 -0.3255
   31MOL   H13122391   4.635   3.251   4.268  0.0874 -2.4649  0.4457
   31MOL   H13222392   4.511   3.317   4.362 -0.1452  0.4636 -0.5515
   31MOL   H13322393   4.503   3.018   4.294 -1.9307 -0.7153  1.1610
   31MOL   H13422394   4.389   3.102   4.408 -0.8547 -1.4291 -0.9887
   31MOL   H13522395   4.414   3.157   4.113 -0.8815  0.9221 -0.3160
   31MOL   H13622396   4.321   3.238   4.241 -1.8141 -0.6133  2.0974
   31MOL   H13722397   4.154   3.080   4.135 -0.0714  0.5257  0.2215
   31MOL   H13822398   4.198   3.039   4.296 -0.1906 -0.3994  0.3493
   31MOL   H13922399   4.370   2.873   4.187  0.0997  0.8640  0.7306
   31MOL   H14022400   4.295   2.918   4.035  0.6495  0.2629  0.2379
   31MOL   H14122401   4.200   2.697   4.118  1.6406  1.0851 -1.0706
   31MOL   H14222402   4.084   2.815   4.105  0.0110 -1.6319  0.0962
   31MOL   H14322403   4.121   2.867   4.360 -0.8871 -0.5737  1.5998
   31MOL   H14422404   4.251   2.755   4.370 -0.3568 -0.4817  0.1667
   31MOL   H14522405   4.077   2.578   4.313  2.1008 -0.6490  1.7210
   31MOL   H14622406   3.954   2.690   4.307 -0.6428 -0.3699 -0.3021
   31MOL   H14722407   4.122   2.590   4.549  2.0671  2.2572 -1.1883
   31MOL   H14822408   3.939   2.600   4.541  0.7324 -1.5092  0.5117
   31MOL   H14922409   3.947   2.820   4.606 -0.7380 -2.2694  0.9170
   31MOL   C15022410   4.141   2.825   4.657 -0.2684 -0.1802  0.0517
   31MOL   O15122411   4.253   2.770   4.657 -0.3590  0.1574  0.0030
   31MOL   C15222412   4.119   2.953   4.737  0.0354  0.4525 -0.0194
   31MOL   C15322413   4.236   2.975   4.834  0.6821 -0.3288 -0.1586
   31MOL   C15422414   4.230   3.104   4.910  0.7401  0.8870 -0.1397
   31MOL   C15522415   4.100   3.133   4.978 -0.8372 -0.1078 -0.2972
   31MOL   C15622416   4.105   3.254   5.068 -0.3848  0.9543 -1.0353
   31MOL   C15722417   3.969   3.304   5.109 -0.2822  0.5659 -0.3185
   31MOL   C15822418   3.897   3.208   5.210 -0.4237 -0.3268  0.6829
   31MOL   C15922419   3.768   3.273   5.265  0.2642  0.4092 -0.0340
   31MOL   C16022420   3.682   3.187   5.353  0.2111 -0.6022  0.4040
   31MOL   C16122421   3.621   3.073   5.286  0.3472 -0.0035  0.7333
   31MOL   C16222422   3.525   3.116   5.171  0.2181 -0.1849 -0.7732
   31MOL   N16322423   3.428   3.015   5.152  0.3012 -0.0580 -0.2931
   31MOL   H16422424   4.034   2.942   4.804  0.9048  1.9970  1.3548
   31MOL   H16522425   4.095   3.032   4.667 -0.4682  1.7723  1.6314
   31MOL   H16622426   4.216   2.903   4.913 -0.4424 -1.0350 -1.0651
   31MOL   H16722427   4.336   2.960   4.794  2.3924  1.0349  3.3613
   31MOL   H16822428   4.240   3.190   4.842 -1.8988  1.0961 -0.3251
   31MOL   H16922429   4.323   3.106   4.966  2.1327  0.1413 -2.3334
   31MOL   H17022430   4.026   3.144   4.899  0.5195  1.5916 -1.3689
   31MOL   H17122431   4.079   3.052   5.048  2.6870  0.6745  1.8089
   31MOL   H17222432   4.152   3.336   5.014  1.1120  0.9505  0.2408
   31MOL   H17322433   4.159   3.223   5.157  0.4231 -0.2146 -1.9029
   31MOL   H17422434   3.908   3.347   5.030 -1.2870  1.3207  0.8293
   31MOL   H17522435   3.982   3.393   5.171  1.0967 -0.3532  0.7575
   31MOL   H17622436   3.946   3.181   5.303  0.0762 -1.6332  0.0512
   31MOL   H17722437   3.867   3.114   5.164 -3.2061  1.1552 -0.7289
   31MOL   H17822438   3.713   3.328   5.189  0.7003  0.9238  0.0175
   31MOL   H17922439   3.797   3.359   5.325  0.3476  1.1122 -1.0692
   31MOL   H18022440   3.608   3.256   5.393  1.0543  0.7140 -0.2584
   31MOL   H18122441   3.733   3.155   5.443  1.1196 -0.5021 -0.0662
   31MOL   H18222442   3.567   3.022   5.366 -0.3240  3.6932  2.7398
   31MOL   H18322443   3.702   3.004   5.264  1.2626  1.5937 -1.1355
   31MOL   H18422444   3.576   3.150   5.081 -1.0018  0.6648 -1.1543
   31MOL   H18522445   3.481   3.208   5.208  0.2689 -0.8874  1.1010
   31MOL   H18622446   3.404   2.958   5.232  3.3649 -1.7199 -0.4762
   31MOL   C18722447   3.351   2.994   5.046  0.7013  0.5435  0.6572
   31MOL   O18822448   3.346   3.070   4.949  0.4623 -0.0275 -0.1219
   31MOL   C18922449   3.278   2.859   5.050 -0.3912 -0.2320  0.0955
   31MOL   C19022450   3.179   2.833   4.934 -0.1195 -0.1165 -0.3859
   31MOL   C19122451   3.243   2.809   4.792  0.1017  0.0879  0.0566
   31MOL   C19222452   3.166   2.722   4.692  0.2009  0.4166  0.1370
   31MOL   C19322453   3.220   2.687   4.553 -0.4021 -0.1250  1.5771
   31MOL   C19422454   3.119   2.602   4.476  0.5152  0.1767 -0.0494
   31MOL   C19522455   3.162   2.542   4.341  0.2699  0.3407 -0.2323
   31MOL   C19622456   3.216   2.657   4.247  0.1991 -0.4154  0.3530
   31MOL   C19722457   3.305   2.593   4.142  0.5842  0.1834 -0.2241
   31MOL   C19822458   3.341   2.699   4.040  0.6698  0.4922 -0.0660
   31MOL   C19922459   3.467   2.660   3.959  0.8686 -0.1168 -0.7352
   31MOL   N20022460   3.431   2.558   3.860  0.3633 -0.2994 -0.6325
   31MOL   H20122461   3.223   2.866   5.145 -1.1265 -0.0790 -0.3363
   31MOL   H20222462   3.361   2.789   5.058 -1.7995 -1.9606 -0.2124
   31MOL   H20322463   3.120   2.745   4.955 -1.9466  1.0396 -0.6101
   31MOL   H20422464   3.094   2.901   4.932 -1.1534 -1.4310 -1.2888
   31MOL   H20522465   3.340   2.763   4.806  0.9974  2.1402  0.7920
   31MOL   H20622466   3.270   2.910   4.762 -1.2072  0.0005 -1.4920
   31MOL   H20722467   3.152   2.623   4.737 -0.9229 -1.0518 -3.2162
   31MOL   H20822468   3.060   2.747   4.690  0.4310  1.2836 -2.7555
   31MOL   H20922469   3.317   2.638   4.563  0.4198  1.3057  0.8020
   31MOL   H21022470   3.238   2.782   4.503  0.8374 -1.1920 -0.0731
   31MOL   H21122471   3.025   2.655   4.456  1.5842  1.1978 -2.5767
   31MOL   H21222472   3.085   2.516   4.534 -2.3424 -0.3653 -2.4031
   31MOL   H21322473   3.087   2.477   4.295 -0.6926  1.0553  0.3170
   31MOL   H21422474   3.235   2.468   4.376 -0.9613 -0.4569  0.6791
   31MOL   H21522475   3.284   2.729   4.294  0.7922  0.3554 -1.6376
   31MOL   H21622476   3.132   2.707   4.200 -0.3336 -1.0452  0.6252
   31MOL   H21722477   3.239   2.518   4.099  0.4653  1.1554 -1.7806
   31MOL   H21822478   3.398   2.553   4.183  1.0732  2.1390  0.6093
   31MOL   H21922479   3.346   2.792   4.097 -1.4222  0.4326  0.2764
   31MOL   H22022480   3.261   2.708   3.966  2.7234  1.2751 -2.2329
   31MOL   H22122481   3.547   2.614   4.016  0.9770  2.7934  1.5755
   31MOL   H22222482   3.499   2.758   3.924  0.3675  0.6845  0.9906
   31MOL   H22322483   3.333   2.550   3.838  0.4245 -0.1500 -0.9593
   31MOL   C22422484   3.525   2.499   3.778  0.0269  0.0330  0.8194
   31MOL   O22522485   3.645   2.510   3.802 -0.4034 -0.6642 -0.2738
   31MOL   C22622486   3.484   2.399   3.663  0.0317 -0.1039 -0.8317
   31MOL   C22722487   3.555   2.423   3.529 -0.2208  0.4804  0.1150
   31MOL   C22822488   3.528   2.326   3.413 -0.1876  0.3414  0.1182
   31MOL   C22922489   3.620   2.353   3.297  0.0178  0.3174 -0.8288
   31MOL   C23022490   3.678   2.227   3.236  0.6857  0.1083 -0.1079
   31MOL   C23122491   3.760   2.255   3.105  0.0065 -0.2620  0.0982
   31MOL   C23222492   3.677   2.270   2.981  0.6897  0.0559 -1.2272
   31MOL   C23322493   3.763   2.255   2.854 -0.1895  0.2834 -0.0221
   31MOL   C23422494   3.694   2.306   2.726 -0.0104  0.1845  0.4436
   31MOL   C23522495   3.789   2.305   2.595  0.2000 -1.1528 -0.6708
   31MOL   C23622496   3.785   2.166   2.519  0.1894  0.5537  0.0037
   31MOL   N23722497   3.656   2.126   2.471 -0.1228  0.6297  0.0558
   31MOL   H23822498   3.382   2.423   3.633  0.6279  0.5309 -2.4639
   31MOL   H23922499   3.498   2.295   3.690  1.2620  0.8273  2.4038
   31MOL   H24022500   3.539   2.523   3.488 -0.0833  0.7640  0.7497
   31MOL   H24122501   3.660   2.432   3.555 -0.4002 -1.5699  1.6720
   31MOL   H24222502   3.428   2.343   3.372 -0.3465  0.6565  0.6321
   31MOL   H24322503   3.537   2.224   3.448 -2.0922 -0.4277 -1.4851
   31MOL   H24422504   3.570   2.415   3.222 -0.5274  1.6901  0.6527
   31MOL   H24522505   3.708   2.407   3.330 -0.1562 -0.5007  1.0618
   31MOL   H24622506   3.597   2.157   3.215 -0.2268  1.0211  0.2605
   31MOL   H24722507   3.726   2.165   3.311 -1.5486 -1.7175 -0.1295
   31MOL   H24822508   3.826   2.169   3.093 -0.1542 -0.3794  0.0517
   31MOL   H24922509   3.817   2.348   3.103  0.2847 -0.4313  0.1473
   31MOL   H25022510   3.631   2.369   2.988  0.7077 -0.0401  0.4472
   31MOL   H25122511   3.605   2.188   2.982  1.3272 -0.5070  1.2025
   31MOL   H25222512   3.798   2.154   2.835  2.5594  0.7314  2.3152
   31MOL   H25322513   3.851   2.316   2.872  1.0053 -1.2198 -0.7331
   31MOL   H25422514   3.677   2.414   2.734 -1.2480 -0.0787  1.6391
   31MOL   H25522515   3.594   2.266   2.711  0.1163  0.4325 -1.1203
   31MOL   H25622516   3.889   2.345   2.613 -0.4993 -0.0633  0.9036
   31MOL   H25722517   3.754   2.382   2.526  1.4235 -0.3620 -0.4337
   31MOL   H25822518   3.832   2.097   2.589  0.4878 -0.1006 -0.8360
   31MOL   H25922519   3.858   2.163   2.438 -0.1328  1.0501 -0.3123
   31MOL   H26022520   3.611   2.057   2.530 -0.7119  1.3165  0.4126
   31MOL   C26122521   3.585   2.171   2.367 -0.4262  0.5244 -0.9090
   31MOL   O26222522   3.614   2.270   2.298 -0.5005  0.3969 -0.4267
   31MOL   C26322523   3.454   2.104   2.350 -0.3971 -0.1700  0.6205
   31MOL   C26422524   3.334   2.198   2.346 -0.0264 -0.0580 -0.0230
   31MOL   C26522525   3.321   2.295   2.469  0.5560 -0.7500  0.0760
   31MOL   C26622526   3.305   2.209   2.602 -0.2658  0.1452  0.0991
   31MOL   C26722527   3.284   2.281   2.727 -0.1708  0.3411 -0.3097
   31MOL   C26822528   3.291   2.190   2.846  0.1748 -0.0360 -0.4454
   31MOL   C26922529   3.231   2.250   2.973 -0.5776 -0.4740  0.4881
   31MOL   C27022530   3.234   2.152   3.090 -0.6711  0.0624 -0.2656
   31MOL   C27122531   3.184   2.203   3.228  0.7201  0.6668 -0.0513
   31MOL   C27222532   3.029   2.232   3.235 -0.2878 -0.0235  0.2860
   31MOL   C27322533   2.979   2.253   3.381  0.1191 -0.7765 -0.1119
   31MOL   N27422534   2.835   2.261   3.387  0.2711 -0.0857 -0.6286
   31MOL   H27522535   3.439   2.037   2.435  1.1865 -1.4007 -0.0427
   31MOL   H27622536   3.458   2.044   2.260  1.7809  1.5773 -0.4987
   31MOL   H27722537   3.347   2.259   2.256 -0.7742  0.4010  0.1737
   31MOL   H27822538   3.237   2.149   2.333 -0.6251  1.3403 -0.9555
   31MOL   H27922539   3.234   2.360   2.465  1.4618  0.5573  1.0577
   31MOL   H28022540   3.414   2.350   2.485  0.8801 -1.2776  0.0306
   31MOL   H28122541   3.231   2.131   2.584 -1.0883  0.7103  0.9657
   31MOL   H28222542   3.397   2.152   2.607 -0.1307  0.5245  2.1521
   31MOL   H28322543   3.185   2.327   2.727 -0.9612 -1.2572  1.7277
   31MOL   H28422544   3.352   2.366   2.736  0.1130  0.3834 -2.6345
   31MOL   H28522545   3.397   2.172   2.861 -0.1564 -1.1191  0.6727
   31MOL   H28622546   3.241   2.094   2.831 -0.0087 -0.1095  0.6574
   31MOL   H28722547   3.128   2.281   2.960 -0.4350  1.3835  3.3225
   31MOL   H28822548   3.276   2.346   3.000  1.0436 -0.5890 -1.6764
   31MOL   H28922549   3.339   2.136   3.115 -0.8583 -1.6018 -0.4656
   31MOL   H29022550   3.189   2.056   3.066  0.1983 -0.1333 -1.1791
   31MOL   H29122551   3.232   2.294   3.262  1.0134  0.2913  0.5550
   31MOL   H29222552   3.203   2.128   3.305  2.2194 -1.2651 -2.2164
   31MOL   H29322553   2.972   2.147   3.197 -0.3631  0.4934 -0.7696
   31MOL   H29422554   2.996   2.321   3.182 -3.3058 -0.2057  1.7690
   31MOL   H29522555   3.025   2.333   3.440 -1.4757  1.3736 -1.7244
   31MOL   H29622556   3.009   2.166   3.441  1.3387  0.0437  0.4885
   31MOL   H29722557   2.786   2.271   3.300  0.3145  0.8526 -0.5534
   31MOL   C29822558   2.759   2.268   3.497 -0.5230  0.2248  0.6712
   31MOL   O29922559   2.815   2.272   3.603  0.8312  0.6917 -0.2699
   31MOL   C30022560   2.604   2.247   3.491 -0.4617  0.4648 -0.2659
   31MOL   C30122561   2.558   2.120   3.417 -0.1981  0.1109 -0.0645
   31MOL   C30222562   2.619   1.993   3.478  0.4775  0.4800 -0.0501
   31MOL   C30322563   2.538   1.865   3.446 -0.1766  0.6255 -0.3890
   31MOL   C30422564   2.554   1.742   3.547 -0.5449  0.1723  0.5084
   31MOL   C30522565   2.484   1.610   3.513 -0.2513 -0.2737 -0.0811
   31MOL   C30622566   2.555   1.544   3.387  0.2306  0.3765 -0.6773
   31MOL   C30722567   2.501   1.403   3.356 -0.0300  0.2429 -0.2421
   31MOL   C30822568   2.621   1.300   3.337  0.0641 -0.2231 -0.9681
   31MOL   C30922569   2.592   1.189   3.243  0.1527 -0.0440 -0.6997
   31MOL   C31022570   2.711   1.093   3.219 -0.2769 -0.2878 -0.3992
   31MOL   N31122571   2.701   1.024   3.094  0.9676 -0.1062  0.4144
   31MOL   H31222572   2.556   2.333   3.445 -0.2622  1.6690  1.7020
   31MOL   H31322573   2.572   2.247   3.596  2.3585  0.1420  0.6194
   31MOL   H31422574   2.451   2.101   3.432 -0.5334  1.5629 -0.5095
   31MOL   H31522575   2.575   2.123   3.309 -0.7051 -2.7858 -0.2741
   31MOL   H31622576   2.611   1.996   3.587  0.7255  1.7776 -0.0587
   31MOL   H31722577   2.725   1.974   3.460  0.5620  0.9610 -0.0571
   31MOL   H31822578   2.432   1.886   3.455  0.2477  2.6380 -0.0050
   31MOL   H31922579   2.557   1.819   3.349 -0.7870 -2.8872  1.0756
   31MOL   H32022580   2.515   1.773   3.644  1.8870 -0.6701  1.7803
   31MOL   H32122581   2.660   1.717   3.553  0.0481  1.5557 -3.0834
   31MOL   H32222582   2.378   1.624   3.494 -0.7578 -2.1035  1.2880
   31MOL   H32322583   2.485   1.551   3.604 -0.1536  1.6955  1.2169
   31MOL   H32422584   2.664   1.543   3.387  0.2659  1.0550  1.3355
   31MOL   H32522585   2.536   1.595   3.293 -1.8536  0.6443 -0.1356
   31MOL   H32622586   2.450   1.413   3.260 -0.7823 -2.0914 -0.1309
   31MOL   H32722587   2.428   1.362   3.427 -0.9811  2.1204 -0.1037
   31MOL   H32822588   2.643   1.256   3.434 -0.2371 -1.1487 -1.3143
   31MOL   H32922589   2.714   1.350   3.307  0.8049 -1.6311 -1.0374
   31MOL   H33022590   2.564   1.229   3.145 -1.3606 -0.8927 -0.6361
   31MOL   H33122591   2.511   1.124   3.278  1.4887 -1.0378  0.5620
   31MOL   H33222592   2.730   1.015   3.292 -2.2033 -1.2796 -0.8989
   31MOL   H33322593   2.801   1.154   3.223  0.4059 -1.3183  0.0125
   31MOL   H33422594   2.652   0.937   3.110 -1.7012  1.1239 -0.7681
   31MOL   C33522595   2.718   1.079   2.976  0.1236  0.2569 -0.1803
   31MOL   O33622596   2.753   1.196   2.959 -0.2731 -0.0230 -0.0916
   31MOL   C33722597   2.695   0.984   2.855 -0.3233  0.6446 -0.2559
   31MOL   C33822598   2.832   0.940   2.782 -0.3037 -0.1361  1.0804
   31MOL   C33922599   2.903   0.825   2.858 -0.0943 -0.2038 -0.3504
   31MOL   C34022600   3.038   0.790   2.787 -0.3711  0.6971  0.2352
   31MOL   C34122601   3.110   0.686   2.867  0.7749  0.5431 -0.5733
   31MOL   C34222602   3.248   0.665   2.796  0.3107 -0.0836 -0.7294
   31MOL   C34322603   3.337   0.556   2.865 -0.0371  0.4553  0.3212
   31MOL   C34422604   3.477   0.548   2.796  0.0298 -0.4879  0.8050
   31MOL   C34522605   3.565   0.447   2.864 -0.4649  0.1191 -0.2128
   31MOL   C34622606   3.711   0.459   2.816  0.1045 -0.5812 -0.6100
   31MOL   C34722607   3.792   0.340   2.871 -0.2010  0.3509 -0.3459
   31MOL   N34822608   3.924   0.357   2.818 -0.1662  0.0108 -1.0305
   31MOL   H34922609   2.622   1.042   2.799 -0.8742 -0.8612 -1.1384
   31MOL   H35022610   2.650   0.892   2.895 -0.5133  0.0651 -1.7911
   31MOL   H35122611   2.817   0.922   2.676  0.4139  3.4540  0.2742
   31MOL   H35222612   2.883   1.037   2.774 -1.9288  0.5505 -1.7477
   31MOL   H35322613   2.840   0.737   2.853 -5.6716  3.5226  0.1615
   31MOL   H35422614   2.918   0.847   2.964  0.5560 -1.9969 -0.0548
   31MOL   H35522615   3.017   0.750   2.688 -0.6121  0.7926  0.2459
   31MOL   H35622616   3.104   0.876   2.774 -1.2868  0.9462 -3.0567
   31MOL   H35722617   3.047   0.597   2.867  0.3068  0.8697 -0.3347
   31MOL   H35822618   3.119   0.717   2.972  1.7472  1.3022 -0.8670
   31MOL   H35922619   3.299   0.761   2.795  0.0625  0.0742  0.6987
   31MOL   H36022620   3.230   0.655   2.689 -1.4152  0.8313 -0.5311
   31MOL   H36122621   3.280   0.463   2.863 -0.7095  0.7757  2.9068
   31MOL   H36222622   3.345   0.574   2.972  0.3738 -0.7971  0.5208
   31MOL   H36322623   3.532   0.636   2.830 -1.1704  0.7202 -0.3344
   31MOL   H36422624   3.485   0.545   2.688 -2.7579  2.1259  0.4706
   31MOL   H36522625   3.536   0.344   2.847 -0.6430  0.3791 -1.5750
   31MOL   H36622626   3.559   0.459   2.972 -0.7438 -1.1012 -0.0942
   31MOL   H36722627   3.763   0.550   2.846 -0.4003 -0.4354 -0.1685
   31MOL   H36822628   3.710   0.447   2.708 -1.9915  1.9625 -0.9013
   31MOL   H36922629   3.752   0.242   2.845 -1.4143  1.3217 -2.2795
   31MOL   H37022630   3.788   0.342   2.980 -2.1001 -2.2083 -0.3205
   31MOL   H37122631   3.940   0.322   2.725  0.5477 -1.8258 -0.2470
   31MOL   C37222632   4.033   0.398   2.891  0.3284  0.9724  0.5097
   31MOL   O37322633   4.027   0.423   3.013  0.2051  0.8102  0.2401
   31MOL   C37422634   4.163   0.425   2.828 -0.5762 -0.1426  0.0499
   31MOL   C37522635   4.267   0.309   2.845 -0.0961 -0.5124  0.2240
   31MOL   C37622636   4.397   0.342   2.777  0.4574  0.2056  0.2352
   31MOL   C37722637   4.501   0.229   2.785 -0.7427  0.1601 -0.1000
   31MOL   C37822638   4.632   0.257   2.722  0.2663 -0.9216 -0.3840
   31MOL   C37922639   4.705   0.124   2.690 -0.3652 -0.6531  0.4583
   31MOL   C38022640   4.834   0.141   2.608  0.4378  1.1968 -0.2899
   31MOL   C38122641   4.871   0.045   2.498 -0.0143 -0.0089 -0.1259
   31MOL   C38222642   4.922   7.602   2.554  0.1740 -0.1469  0.6935
   31MOL   C38322643   4.817   7.495   2.586 -0.5495  0.2006  0.0802
   31MOL   C38422644   4.892   7.357   2.574  0.4846 -0.0171  0.8183
   31MOL   N38522645   4.812   7.242   2.604  0.1534 -0.5554  0.2591
   31MOL   H38622646   4.205   0.515   2.873  1.6224 -0.9689 -0.2747
   31MOL   H38722647   4.145   0.450   2.724 -2.5043 -0.2723  0.3456
   31MOL   H38822648   4.284   0.276   2.948 -1.4486 -0.6039  0.4257
   31MOL   H38922649   4.231   0.220   2.794  1.4159 -0.5029 -0.8787
   31MOL   H39022650   4.442   0.425   2.832  1.4007 -2.4220  3.6057
   31MOL   H39122651   4.384   0.375   2.674 -0.6013  1.9964  0.9097
   31MOL   H39222652   4.507   0.204   2.890  1.8628  2.2034  0.2896
   31MOL   H39322653   4.456   0.158   2.716  0.7525  2.2016 -3.3115
   31MOL   H39422654   4.696   0.317   2.786 -2.2176  0.4228  0.9320
   31MOL   H39522655   4.605   0.316   2.634 -0.0107 -0.5052 -0.0225
   31MOL   H39622656   4.638   0.056   2.637 -2.5675  0.6594  1.4883
   31MOL   H39722657   4.730   0.069   2.781 -0.0342 -0.7607  0.3033
   31MOL   H39822658   4.910   0.172   2.679 -0.2507  1.7140  0.2246
   31MOL   H39922659   4.819   0.234   2.553 -0.2222  0.8478 -0.7200
   31MOL   H40022660   4.955   0.100   2.455  2.2473 -0.2863  3.6244
   31MOL   H40122661   4.793   0.039   2.423 -2.3572  2.3029  2.0198
   31MOL   H40222662   4.981   7.621   2.645 -0.7643  0.0809  1.2583
   31MOL   H40322663   4.983   7.561   2.473 -0.5470 -1.2723  0.7029
   31MOL   H40422664   4.731   7.516   2.522 -0.7372  0.2018  0.3294
   31MOL   H40522665   4.787   7.505   2.691 -0.6298  3.3032 -0.2113
   31MOL   H40622666   4.983   7.357   2.634  1.0522  0.9265 -0.0178
   31MOL   H40722667   4.924   7.347   2.471  0.2513  2.3423  0.4858
   31MOL   H40822668   4.837   7.205   2.695 -0.5785  0.7685  1.0064
   31MOL   C40922669   4.705   7.198   2.532  0.0626  0.9054 -0.0885
   31MOL   O41022670   4.668   7.258   2.430  0.1726  0.2701  0.4536
   31MOL   C41122671   4.636   7.076   2.573 -0.4900  0.0736 -0.0511
   31MOL   C41222672   4.488   7.109   2.600  0.2642 -0.0428 -0.1542
   31MOL   C41322673   4.455   7.180   2.735 -0.1322 -0.5570 -0.0023
   31MOL   C41422674   4.480   7.330   2.749  0.2600 -0.5046  0.0770
   31MOL   C41522675   4.427   7.389   2.882 -0.2191  0.1080  0.6258
   31MOL   C41622676   4.433   7.545   2.899  0.3924  0.2474 -0.2354
   31MOL   C41722677   4.349   7.599   3.023 -0.2339 -0.1125 -0.0635
   31MOL   C41822678   4.202   7.627   2.990  0.2908  0.6759 -0.4990
   31MOL   C41922679   4.134   7.685   3.106 -0.1551 -0.0670 -0.1939
   31MOL   C42022680   3.995   0.042   3.065 -0.1430  0.1699  0.3326
   31MOL   C42122681   3.915   0.105   3.183  0.3296  0.1660  0.3528
   31MOL   N42222682   3.879   7.680   3.273  0.0923  0.3635 -0.3055
   31MOL   H42322683   4.676   7.026   2.661  3.0750  0.7278 -1.2427
   31MOL   H42422684   4.636   7.011   2.485 -0.7872  1.6077 -1.2107
   31MOL   H42522685   4.462   7.180   2.521  2.1314 -0.1284 -0.8581
   31MOL   H42622686   4.418   7.027   2.583  0.7489 -0.5066  0.0742
   31MOL   H42722687   4.511   7.123   2.809  1.0830  0.2689 -0.2509
   31MOL   H42822688   4.349   7.180   2.758  0.0014  0.3524  0.6474
   31MOL   H42922689   4.586   7.349   2.734  0.6020 -1.6672  0.9607
   31MOL   H43022690   4.433   7.380   2.664  1.2414 -0.1392 -0.2495
   31MOL   H43122691   4.490   7.351   2.963  0.7736  0.0696 -0.1521
   31MOL   H43222692   4.324   7.366   2.906  0.1369 -0.5544  1.5624
   31MOL   H43322693   4.413   7.590   2.802  1.0713  0.6823 -0.1693
   31MOL   H43422694   4.534   7.578   2.923  0.2007 -1.3116  3.0308
   31MOL   H43522695   4.392   0.001   3.052 -2.0739  0.9091 -0.5795
   31MOL   H43622696   4.361   7.525   3.102  2.9837  0.3774 -0.0530
   31MOL   H43722697   4.143   7.542   2.956  0.7269 -0.0154  0.4565
   31MOL   H43822698   4.210   7.691   2.902 -0.9946 -1.3411 -2.1088
   31MOL   H43922699   4.193   0.074   3.146 -1.0199  0.7004 -0.4608
   31MOL   H44022700   4.137   7.623   3.196  1.0469 -0.5785 -0.5838
   31MOL   H44122701   3.941   7.654   3.018 -1.1838  0.9843  0.1127
   31MOL   H44222702   4.015   0.121   2.992  2.2116 -1.9642 -1.4219
   31MOL   H44322703   3.824   0.152   3.145  0.1096 -0.6314 -0.1279
   31MOL   H44422704   3.973   0.180   3.237 -0.8432  0.3646  1.3722
   31MOL   H44522705   3.825   7.609   3.226 -0.1880  0.6745 -0.4598
   31MOL   C44622706   3.930   7.657   3.396 -0.1217  0.2670  0.4615
   31MOL   O44722707   4.017   0.026   3.454  0.2143 -0.6178  0.7814
   31MOL   C44822708   3.854   7.543   3.459 -0.3263  0.2373 -0.2951
   31MOL   C44922709   3.944   7.436   3.534 -0.0655 -0.2770 -0.2693
   31MOL   C45022710   3.869   7.316   3.599  0.2431  0.6045  0.0472
   31MOL   C45122711   3.944   7.228   3.699 -0.3956 -0.7099 -0.0960
   31MOL   C45222712   4.074   7.166   3.632 -0.0608 -0.1309 -0.6676
   31MOL   C45322713   4.200   7.230   3.695  0.0606 -0.0089 -0.5880
   31MOL   C45422714   4.331   7.199   3.626  0.4179  0.7764  0.2809
   31MOL   C45522715   4.378   7.057   3.656  0.2840 -0.0316 -0.2628
   31MOL   C45622716   4.323   6.932   3.571  0.2521  0.0854 -0.2343
   31MOL   C45722717   4.403   6.809   3.613 -0.0489  0.3405 -0.0392
   31MOL   C45822718   4.411   6.691   3.522  0.1205 -0.0018 -0.4437
   31MOL   N45922719   4.486   6.582   3.576  0.7627 -0.3449 -0.4382
   31MOL   H46022720   3.798   7.490   3.382  0.8529 -0.8305 -0.4442
   31MOL   H46122721   3.777   7.571   3.531 -1.9532 -1.6161 -1.2439
   31MOL   H46222722   4.017   7.396   3.463  3.0840  0.6791  2.3272
   31MOL   H46322723   3.995   7.498   3.608 -1.5119  0.3113  0.2531
   31MOL   H46422724   3.812   7.258   3.526 -2.0559  1.5035  1.0808
   31MOL   H46522725   3.797   7.363   3.666 -0.2955 -0.9696  0.5976
   31MOL   H46622726   3.965   7.291   3.785 -0.0816 -0.1258 -0.5948
   31MOL   H46722727   3.872   7.153   3.732  0.6681 -1.5177  0.4081
   31MOL   H46822728   4.057   7.176   3.525 -0.4965  1.1995 -0.4749
   31MOL   H46922729   4.088   7.058   3.643 -1.8729 -0.2994  0.2006
   31MOL   H47022730   4.212   7.198   3.798 -1.9753 -0.2160 -0.3990
   31MOL   H47122731   4.194   7.338   3.705 -1.2864 -0.2480  1.3525
   31MOL   H47222732   4.408   7.272   3.652 -0.5970  2.9438 -2.5542
   31MOL   H47322733   4.333   7.220   3.519  3.0810  1.9927  0.5044
   31MOL   H47422734   4.389   7.027   3.760  0.6690 -0.8702 -0.5395
   31MOL   H47522735   4.479   7.070   3.617  1.2454  1.7025  2.6313
   31MOL   H47622736   4.339   6.956   3.466 -0.4599  2.2003  0.1158
   31MOL   H47722737   4.218   6.918   3.595  0.3835 -0.0970  0.2490
   31MOL   H47822738   4.369   6.764   3.706 -3.6442  0.2317 -1.3286
   31MOL   H47922739   4.505   6.841   3.634  0.4512  0.8435 -3.0237
   31MOL   H48022740   4.463   6.716   3.430 -1.6766  1.3524 -1.1269
   31MOL   H48122741   4.308   6.661   3.498  0.0799  0.0375 -0.3176
   31MOL   H48222742   4.556   6.611   3.643  1.5230  1.3680 -1.9297
   31MOL   C48322743   4.469   6.457   3.552  0.5861  0.3815 -0.1923
   31MOL   O48422744   4.390   6.418   3.468 -0.2016 -0.1560  0.3044
   31MOL   C48522745   4.560   6.362   3.631 -0.3639  0.8441  0.0248
   31MOL   C48622746   4.555   6.220   3.575 -0.1002 -0.0628 -0.0361
   31MOL   C48722747   4.594   6.112   3.678 -0.6207 -0.5511 -0.8451
   31MOL   C48822748   4.610   5.971   3.625  0.6909 -0.4674 -0.0610
   31MOL   C48922749   4.730   5.954   3.534  0.4141 -0.3966  0.0054
   31MOL   C49022750   4.763   5.804   3.523 -0.2634 -0.0840  0.3352
   31MOL   C49122751   4.869   5.780   3.413  0.1579  0.0281 -0.2828
   31MOL   C49222752   4.935   5.646   3.425 -0.3262 -0.3027  0.5022
   31MOL   C49322753   5.036   5.620   3.316  0.5489 -0.3981  0.2092
   31MOL   C49422754   5.122   5.493   3.329 -0.2201  0.2676 -0.4489
   31MOL   C49522755   5.227   5.482   3.215  0.5495 -0.2819 -0.2565
   31MOL   N49622756   5.308   5.356   3.222 -0.3712  0.2581  0.0636
   31MOL   H49722757   4.531   6.362   3.736  0.9338 -0.2738  0.3971
   31MOL   H49822758   4.661   6.401   3.614  0.6091 -1.7883 -0.5682
   31MOL   H49922759   4.452   6.204   3.542 -1.0262  2.1568  1.6533
   31MOL   H50022760   4.637   6.211   3.504 -1.0883  1.3329 -1.3730
   31MOL   H50122761   4.516   6.113   3.754 -0.0932 -1.2860 -0.2830
   31MOL   H50222762   4.690   6.129   3.728 -0.2675 -1.0261 -1.3547
   31MOL   H50322763   4.631   5.903   3.707  1.1395 -0.1191  0.1123
   31MOL   H50422764   4.519   5.927   3.583 -0.3351 -0.4223  2.0356
   31MOL   H50522765   4.823   5.998   3.570  1.0927 -1.8207  0.0196
   31MOL   H50622766   4.708   5.984   3.432  1.2674  1.1279  0.2475
   31MOL   H50722767   4.680   5.738   3.497  2.0564 -3.1615  0.4575
   31MOL   H50822768   4.790   5.766   3.621 -0.8602 -1.0509  0.1377
   31MOL   H50922769   4.942   5.861   3.413  0.6031 -0.3745  1.2381
   31MOL   H51022770   4.824   5.789   3.313  2.3404 -0.8364 -1.3769
   31MOL   H51122771   4.849   5.579   3.430 -0.2657 -0.3068  1.5022
   31MOL   H51222772   4.991   5.633   3.517 -1.1128  2.1024  1.3615
   31MOL   H51322773   5.106   5.704   3.322  0.9419 -0.6817 -0.3486
   31MOL   H51422774   4.987   5.631   3.219 -0.8818 -0.0739  0.9670
   31MOL   H51522775   5.061   5.406   3.304  0.4914  0.1493 -1.8724
   31MOL   H51622776   5.172   5.491   3.425  1.0776  1.2394 -1.0889
   31MOL   H51722777   5.287   5.573   3.211  1.3822 -0.8152 -0.0163
   31MOL   H51822778   5.178   5.471   3.118  0.5277 -0.0240 -0.2763
   31MOL   H51922779   5.273   5.280   3.166 -1.2412  1.4522 -1.0437
   31MOL   C52022780   5.426   5.334   3.285 -0.1591  0.6319 -0.5552
   31MOL   O52122781   5.475   5.418   3.361  0.4691 -0.0780 -0.0819
   31MOL   C52222782   5.492   5.197   3.255  0.3863  0.6589 -0.0795
   31MOL   C52322783   5.603   5.216   3.150  0.2679  0.2148 -0.9790
   31MOL   C52422784   5.724   5.289   3.206  0.2215  0.2469 -0.9425
   31MOL   C52522785   5.845   5.271   3.111 -0.5015 -0.2162 -0.2683
   31MOL   C52622786   5.826   5.347   2.981  0.0919  0.0649 -0.3583
   31MOL   C52722787   5.943   5.315   2.885  0.4318  0.2666  0.1905
   31MOL   C52822788   5.913   5.351   2.741 -0.0888 -0.5073  0.3512
   31MOL   C52922789   6.016   5.332   2.644 -0.0807 -0.4952 -0.1683
   31MOL   C53022790   5.963   5.348   2.503 -0.2153 -0.3362 -0.3565
   31MOL   C53122791   6.065   5.309   2.401  0.2150 -0.1261  0.3201
   31MOL   C53222792   6.016   5.336   2.254 -0.6435  0.1880  0.0673
   31MOL   N53322793   6.117   5.286   2.157  0.6263 -0.2049 -0.1686
   31MOL   H53422794   5.418   5.138   3.200 -1.1269  2.3713  0.0535
   31MOL   H53522795   5.520   5.153   3.350  0.0777  1.3074  0.3094
   31MOL   H53622796   5.633   5.117   3.115 -2.2429 -1.1011  0.4154
   31MOL   H53722797   5.561   5.270   3.066  0.1391  3.3420  1.0192
   31MOL   H53822798   5.762   5.261   3.305 -0.7864  0.2704 -0.5423
   31MOL   H53922799   5.698   5.393   3.227 -0.8012 -0.0776 -0.5824
   31MOL   H54022800   5.923   5.321   3.167 -2.0074  1.5875  0.2721
   31MOL   H54122801   5.889   5.171   3.101  3.4955  1.3065  1.3219
   31MOL   H54222802   5.812   5.455   2.985  0.2378  0.0122  2.2929
   31MOL   H54322803   5.733   5.315   2.935 -0.6462  0.3772  0.9124
   31MOL   H54422804   5.961   5.208   2.894 -0.3399  0.0771 -0.5479
   31MOL   H54522805   6.035   5.364   2.918  2.2513 -1.0321 -2.7679
   31MOL   H54622806   5.894   5.457   2.723 -2.5746 -1.0104 -0.1763
   31MOL   H54722807   5.823   5.294   2.720 -0.6100  0.5858 -0.4302
   31MOL   H54822808   6.070   5.238   2.660  3.3323  1.1575 -1.4715
   31MOL   H54922809   6.099   5.402   2.648 -1.7109  1.7912 -3.6846
   31MOL   H55022810   5.929   5.451   2.489 -2.1029 -1.2318 -2.6888
   31MOL   H55122811   5.879   5.280   2.491  0.4099 -0.7421 -2.8444
   31MOL   H55222812   6.084   5.203   2.413  0.4660 -0.0241  0.8082
   31MOL   H55322813   6.159   5.360   2.421  0.1200  1.7083 -3.4620
   31MOL   H55422814   6.007   5.442   2.231  0.1201  0.7231  2.0836
   31MOL   H55522815   5.918   5.294   2.230 -0.5783  0.6249 -0.9899
   31MOL   H55622816   6.208   5.254   2.188 -0.7886 -3.6345  0.6412
   31MOL   C55722817   6.096   5.273   2.026 -0.6064  0.4106  0.5585
   31MOL   O55822818   5.989   5.310   1.975 -0.1398  0.5809 -0.0886
   31MOL   C55922819   6.221   5.239   1.944  0.0843 -0.4639  0.3523
   31MOL   C56022820   6.201   5.192   1.806  0.5313  0.4575 -0.2919
   31MOL   C56122821   6.154   5.288   1.699  0.7050 -0.2163 -0.3615
   31MOL   C56222822   6.154   5.232   1.555  0.1467  0.2085  0.1008
   31MOL   C56322823   6.150   5.341   1.445  0.0464  0.1983 -0.6518
   31MOL   C56422824   6.118   5.272   1.311  0.6910  0.4942  0.3543
   31MOL   C56522825   6.153   5.368   1.192  0.2791  0.0710  0.3501
   31MOL   C56622826   6.081   5.322   1.062 -0.5316  0.5418  0.1641
   31MOL   C56722827   6.099   5.424   0.943  0.3206  1.3843  0.2774
   31MOL   C56822828   6.245   5.439   0.907 -0.6362  0.4788 -0.9199
   31MOL   C56922829   6.260   5.536   0.795 -0.8183 -0.3935  0.0365
   31MOL   N57022830   6.393   5.575   0.756  0.7419 -0.1529  0.3383
   31MOL   H57122831   6.259   5.156   2.004  0.2396 -0.9117 -0.3691
   31MOL   H57222832   6.296   5.318   1.949 -0.9797  0.5316  0.7990
   31MOL   H57322833   6.286   5.131   1.775 -0.4572 -0.6158 -0.9448
   31MOL   H57422834   6.125   5.114   1.804 -0.4902  1.4800 -3.0187
   31MOL   H57522835   6.216   5.378   1.696  1.0766 -0.3780  2.0518
   31MOL   H57622836   6.053   5.324   1.717 -0.0030 -0.9892 -2.6432
   31MOL   H57722837   6.241   5.166   1.551  0.3256  0.5075 -1.5471
   31MOL   H57822838   6.084   5.153   1.530 -1.7134  1.9141 -0.1768
   31MOL   H57922839   6.239   5.403   1.437  0.3627 -0.3638 -1.5725
   31MOL   H58022840   6.071   5.411   1.471  0.7190  1.2959 -1.5428
   31MOL   H58122841   6.015   5.241   1.328  0.8952 -0.1717  0.3618
   31MOL   H58222842   6.186   5.188   1.297  0.9845  0.6572  0.8013
   31MOL   H58322843   6.261   5.361   1.179  0.3651  1.5747  0.0744
   31MOL   H58422844   6.131   5.471   1.220 -2.4677 -0.1766 -0.7190
   31MOL   H58522845   5.978   5.326   1.098 -0.8638  1.7792 -0.8883
   31MOL   H58622846   6.101   5.217   1.043 -1.2591 -0.1038  2.7710
   31MOL   H58722847   6.053   5.516   0.979 -1.9715  0.6978 -0.7977
   31MOL   H58822848   6.044   5.383   0.858 -0.4275  2.7926  0.0541
   31MOL   H58922849   6.285   5.339   0.892  1.2462  0.3613  3.9098
   31MOL   H59022850   6.299   5.489   0.988  1.3455 -0.4695 -1.6282
   31MOL   H59122851   6.209   5.629   0.821 -1.2307 -0.1868 -1.4583
   31MOL   H59222852   6.203   5.498   0.710 -1.1123  0.6373 -0.2327
   31MOL   H59322853   6.440   5.608   0.839  1.8037  2.2270 -1.1521
   31MOL   C59422854   6.453   5.572   0.638  0.4590 -0.2412 -0.2055
   31MOL   O59522855   6.405   5.501   0.553  0.2402 -0.2704 -0.1048
   31MOL   C59622856   6.589   5.636   0.623 -0.7064 -0.1268  0.0648
   31MOL   C59722857   6.701   5.544   0.679  0.6708  0.1996  0.3934
   31MOL   C59822858   6.837   5.608   0.653 -0.2791 -0.0648 -0.2094
   31MOL   C59922859   6.956   5.527   0.705  0.2540 -0.1323 -0.1953
   31MOL   C60022860   6.977   5.402   0.621  0.2894 -0.1009 -0.2942
   31MOL   C60122861   7.081   5.304   0.694  0.3952  0.3556  0.7636
   31MOL   C60222862   7.071   5.152   0.666  0.4035 -0.4492  0.4404
   31MOL   C60322863   6.938   5.085   0.705 -0.2084  0.1467  0.1020
   31MOL   C60422864   6.946   4.932   0.679 -0.7613  0.2325  0.0676
   31MOL   C60522865   6.832   4.859   0.744  0.2980  0.1401 -0.6362
   31MOL   C60622866   6.824   4.864   0.898  0.2469  0.3107 -0.2724
   31MOL   N60722867   6.699   4.815   0.949  0.5133 -0.1515  0.3144
   31MOL   H60822868   6.579   5.729   0.680 -0.3002 -0.9348  1.5008
   31MOL   H60922869   6.613   5.681   0.527  2.0023  1.3656  1.3687
   31MOL   H61022870   6.679   5.507   0.779 -0.4466 -2.2406 -0.7156
   31MOL   H61122871   6.690   5.454   0.618  0.2817  1.4013 -1.3631
   31MOL   H61222872   6.828   5.698   0.715  0.5819 -0.1761  0.0833
   31MOL   H61322873   6.848   5.641   0.550  2.5810  1.4220  0.5364
   31MOL   H61422874   7.042   5.594   0.701 -0.5037  0.8473 -0.4936
   31MOL   H61522875   6.941   5.499   0.809 -1.9199  1.4422 -0.0446
   31MOL   H61622876   7.009   5.423   0.519  0.4041 -0.1643 -0.2710
   31MOL   H61722877   6.883   5.347   0.611  0.2955 -0.0984 -0.3656
   31MOL   H61822878   7.069   5.312   0.802  0.5762 -1.3363  0.9208
   31MOL   H61922879   7.180   5.344   0.672  0.3870 -0.2126 -0.3338
   31MOL   H62022880   7.152   5.096   0.714 -0.4791 -2.5031 -0.3915
   31MOL   H62122881   7.082   5.136   0.559 -0.3036  0.0812  0.2861
   31MOL   H62222882   6.861   5.134   0.646  0.2093  0.5556 -0.1004
   31MOL   H62322883   6.916   5.113   0.808 -0.4670  1.8648 -0.4198
   31MOL   H62422884   7.032   4.897   0.738 -0.2019 -0.8506 -1.3606
   31MOL   H62522885   6.969   4.912   0.574 -0.5294  4.3885 -0.7917
   31MOL   H62622886   6.817   4.754   0.718  0.0751 -0.4880  1.9608
   31MOL   H62722887   6.735   4.896   0.711  0.6437  0.5638 -1.1982
   31MOL   H62822888   6.834   4.967   0.931 -0.1554  0.6316 -1.1393
   31MOL   H62922889   6.909   4.808   0.936  1.0101 -0.9834 -3.6844
   31MOL   H63022890   6.625   4.797   0.883 -1.0595  3.2608  1.0433
   31MOL   C63122891   6.679   4.788   1.079 -0.3735  1.0290 -0.0836
   31MOL   O63222892   6.774   4.790   1.156 -0.2088  0.4301 -0.6765
   31MOL   C63322893   6.536   4.761   1.127  0.6209  0.0495  0.0017
   31MOL   C63422894   6.503   4.869   1.232  0.7764 -0.0161  0.2999
   31MOL   C63522895   6.369   4.833   1.296  0.7877 -0.2591  0.3881
   31MOL   C63622896   6.242   4.854   1.217 -0.7326  0.1924 -0.1745
   31MOL   C63722897   6.110   4.820   1.294 -0.2569  0.4934  0.1613
   31MOL   C63822898   5.975   4.845   1.218 -0.0200  0.4949  0.2293
   31MOL   C63922899   5.846   4.849   1.296  0.4392  0.8028 -0.1999
   31MOL   C64022900   5.734   4.902   1.210  0.0065  0.2994  0.0429
   31MOL   C64122901   5.597   4.948   1.273  0.5566 -0.6073 -0.0115
   31MOL   C64222902   5.524   4.850   1.365  0.6837  0.6714 -0.0902
   31MOL   C64322903   5.380   4.903   1.392 -1.0936 -0.4882 -0.3134
   31MOL   N64422904   5.308   4.805   1.476  0.4744  0.4899  0.0596
   31MOL   H64522905   6.534   4.659   1.164  2.8129 -0.3142 -0.8218
   31MOL   H64622906   6.465   4.773   1.046  0.6780 -0.9721 -0.2015
   31MOL   H64722907   6.577   4.855   1.311  1.0498 -0.1685  0.0185
   31MOL   H64822908   6.505   4.965   1.182  1.8689 -0.1138  0.1451
   31MOL   H64922909   6.363   4.869   1.398 -3.7377 -0.7304  0.3785
   31MOL   H65022910   6.363   4.724   1.306  3.8401 -0.5388 -0.2436
   31MOL   H65122911   6.235   4.959   1.187 -2.1173 -0.0832 -0.8312
   31MOL   H65222912   6.254   4.791   1.129  0.4503  0.2563 -0.0633
   31MOL   H65322913   6.108   4.882   1.383  3.9666 -1.1918  1.5368
   31MOL   H65422914   6.115   4.722   1.341 -0.6076  0.4003  0.0119
   31MOL   H65522915   5.970   4.778   1.132 -0.4918 -1.8226  2.0180
   31MOL   H65622916   5.999   4.939   1.168 -2.0691  0.0611 -1.6678
   31MOL   H65722917   5.854   4.911   1.385  1.3784 -1.2671  1.2112
   31MOL   H65822918   5.827   4.749   1.337 -0.7722  0.2885 -1.9416
   31MOL   H65922919   5.712   4.826   1.135 -0.4744  2.3354 -1.9315
   31MOL   H66022920   5.756   4.990   1.150  0.9834 -0.4769 -0.7586
   31MOL   H66122921   5.538   4.967   1.183 -1.2941  0.8154  1.4505
   31MOL   H66222922   5.609   5.048   1.315  2.4039 -1.2036  0.8870
   31MOL   H66322923   5.572   4.844   1.462  0.3651  0.3156  0.0427
   31MOL   H66422924   5.509   4.748   1.331 -0.7259  0.1770  1.9492
   31MOL   H66522925   5.324   4.916   1.299 -0.2110  1.0137 -0.6473
   31MOL   H66622926   5.376   5.001   1.439 -0.7232 -0.4144 -0.4305
   31MOL   H66722927   5.338   4.814   1.573 -1.6170 -0.7754  0.8572
   31MOL   C66822928   5.205   4.731   1.446  1.3041 -0.1011  0.2184
   31MOL   O66922929   5.152   4.734   1.337  0.2076  0.1782  0.5287
   31MOL   C67022930   5.147   4.635   1.550  0.1164 -0.5067 -0.0768
   31MOL   C67122931   5.151   4.486   1.511  0.0784 -0.0872 -0.6422
   31MOL   C67222932   5.107   4.404   1.632  0.7966  0.4198  0.6375
   31MOL   C67322933   5.084   4.257   1.609 -0.0497 -1.1140  0.3341
   31MOL   C67422934   5.034   4.197   1.741 -0.0511 -0.5342 -0.0718
   31MOL   C67522935   5.064   4.046   1.750  0.3273  0.3772  0.1759
   31MOL   C67622936   5.010   3.996   1.887  0.1743 -0.4758 -0.7046
   31MOL   C67722937   5.043   3.854   1.920 -0.2304 -0.4116  0.5749
   31MOL   C67822938   5.192   3.812   1.916  0.4652 -0.4186 -0.0707
   31MOL   C67922939   5.221   3.677   1.966 -0.0362 -0.7366 -0.3466
   31MOL   C68022940   5.377   3.666   2.004 -0.3723  0.1068  0.1630
   31MOL   N68122941   5.468   3.705   1.894 -0.3683  0.1616 -0.2622
   31MOL   H68222942   5.046   4.673   1.562  0.3507  0.6278 -1.5243
   31MOL   H68322943   5.197   4.640   1.646  1.8729  0.1944 -0.9965
   31MOL   H68422944   5.086   4.469   1.425 -1.2142 -0.4348  0.3798
   31MOL   H68522945   5.254   4.465   1.483  0.2216  2.2135 -1.9356
   31MOL   H68622946   5.023   4.458   1.675  1.4759  1.2382  0.9487
   31MOL   H68722947   5.182   4.416   1.710  2.0146 -0.0732 -0.4394
   31MOL   H68822948   5.019   4.228   1.527 -1.0251 -0.2509  0.7929
   31MOL   H68922949   5.182   4.217   1.585 -0.3064 -1.0032 -0.9293
   31MOL   H69022950   4.926   4.207   1.742  0.0314  0.2257  0.6945
   31MOL   H69122951   5.084   4.249   1.823  1.4090 -3.9660  1.3123
   31MOL   H69222952   5.172   4.033   1.755  0.0617 -1.5644  1.8271
   31MOL   H69322953   5.012   3.992   1.672 -0.5462 -2.2625  2.4889
   31MOL   H69422954   4.902   4.011   1.888  0.1152 -0.9219  0.9956
   31MOL   H69522955   5.055   4.050   1.970 -2.8878  0.3705  0.4738
   31MOL   H69622956   4.999   3.787   1.845 -1.4294 -1.9562  2.5689
   31MOL   H69722957   4.995   3.826   2.014  0.3921  0.1167  1.0547
   31MOL   H69822958   5.236   3.891   1.977 -0.8191  0.5701 -0.3901
   31MOL   H69922959   5.230   3.812   1.814 -1.3604 -0.8969 -0.7779
   31MOL   H70022960   5.199   3.607   1.885 -3.0386 -1.7386  1.2859
   31MOL   H70122961   5.162   3.645   2.052 -0.0912 -2.2111 -0.9211
   31MOL   H70222962   5.396   3.565   2.038  2.5711  0.8075  0.7497
   31MOL   H70322963   5.397   3.722   2.095  0.6765 -1.5059  0.9307
   31MOL   H70422964   5.484   3.805   1.885 -0.6411  0.3031  0.8079
   31MOL   C70522965   5.545   3.622   1.820 -0.2701  0.8434 -0.2988
   31MOL   O70622966   5.541   3.500   1.843 -0.2788  0.2657 -0.0487
   31MOL   C70722967   5.642   3.681   1.711  0.4583 -0.3891  0.6921
   31MOL   C70822968   5.714   3.583   1.615  0.0543  0.2124  0.1763
   31MOL   C70922969   5.812   3.657   1.525 -0.3439 -0.4465 -0.9721
   31MOL   C71022970   5.911   3.566   1.464  0.2102 -0.0807 -0.2992
   31MOL   C71122971   5.989   3.624   1.350  0.5638  0.3378  0.0083
   31MOL   C71222972   6.083   3.522   1.289  0.6807  0.3453 -0.4370
   31MOL   C71322973   6.130   3.549   1.146 -0.2082  0.6773  0.5976
   31MOL   C71422974   6.186   3.430   1.084  0.1679 -0.8340  0.0238
   31MOL   C71522975   6.237   3.453   0.939  0.2766  0.1486 -0.1337
   31MOL   C71622976   6.338   3.341   0.895 -0.0512 -0.0268 -0.6986
   31MOL   C71722977   6.407   3.374   0.761  0.0766 -1.0144  0.5700
   31MOL   N71822978   6.541   3.317   0.746 -0.0590  0.5318  0.4563
   31MOL   H71922979   5.709   3.755   1.756 -0.4969  1.0809 -0.2472
   31MOL   H72022980   5.577   3.746   1.653  0.6873  0.0390  0.9153
   31MOL   H72122981   5.774   3.518   1.678 -0.4136  0.2638  0.6805
   31MOL   H72222982   5.644   3.520   1.561  0.0704 -1.6478  2.2616
   31MOL   H72322983   5.865   3.737   1.577 -0.1059 -1.3242  0.1576
   31MOL   H72422984   5.761   3.705   1.442 -1.2662 -0.9412 -0.7046
   31MOL   H72522985   5.972   3.536   1.550  0.9626 -0.5117 -0.9738
   31MOL   H72622986   5.854   3.474   1.449 -2.0620  1.1978  0.4521
   31MOL   H72722987   6.042   3.716   1.373 -1.5439  2.0100 -1.6665
   31MOL   H72822988   5.910   3.645   1.277  1.2118  2.2629 -0.1541
   31MOL   H72922989   6.045   3.420   1.294  0.4864  0.5237  2.1452
   31MOL   H73022990   6.162   3.519   1.364 -1.6065  0.1236  2.0103
   31MOL   H73122991   6.206   3.628   1.145 -1.0865  1.5686  2.0657
   31MOL   H73222992   6.047   3.576   1.080 -2.3873 -1.1452  2.5178
   31MOL   H73322993   6.104   3.359   1.093 -1.1955  0.7602  0.4738
   31MOL   H73422994   6.258   3.387   1.154 -0.2037  1.3948  1.8664
   31MOL   H73522995   6.289   3.547   0.918 -1.1778  0.8040 -0.8845
   31MOL   H73622996   6.146   3.456   0.880  0.6757  1.6377 -0.7067
   31MOL   H73722997   6.279   3.249   0.891 -1.9108  1.0644  0.7520
   31MOL   H73822998   6.414   3.341   0.974 -1.3758 -2.1064  0.6218
   31MOL   H73922999   6.423   3.480   0.744  0.7970 -1.4276 -1.5663
   31MOL   H74023000   6.347   3.354   0.673  1.6597  0.8735 -0.9990
   31MOL   H74123001   6.594   3.346   0.666 -2.4213  1.1177 -0.9576
   31MOL   H74223002   6.541   3.218   0.725 -1.5024  0.3433  1.2161
   32MOL     C123003   1.897   3.869   4.426  0.1352  0.1611  0.1697
   32MOL     O223004   1.977   3.958   4.452  0.8119 -0.2959  0.0125
   32MOL     C323005   1.800   3.819   4.533  0.0088  0.3764  0.3261
   32MOL     C423006   1.816   3.912   4.657  0.2057  0.2762  0.4144
   32MOL     C523007   1.755   3.862   4.793 -0.0800 -0.4034 -0.4143
   32MOL     C623008   1.699   3.963   4.891 -0.2686  0.0704  0.4639
   32MOL     C723009   1.640   3.912   5.023 -0.2800 -0.1488  0.3239
   32MOL     C823010   1.551   4.011   5.106  0.0466  0.4296 -0.0077
   32MOL     C923011   1.507   3.966   5.239  0.1192 -0.0635  0.2126
   32MOL    C1023012   1.436   4.071   5.326 -0.2653  0.2810  0.0160
   32MOL    C1123013   1.312   4.014   5.404 -0.0022  0.3305 -0.3757
   32MOL    C1223014   1.257   4.111   5.506 -0.2646 -0.7345 -0.0392
   32MOL    C1323015   1.195   4.243   5.451  0.0033 -0.0232  0.0172
   32MOL    N1423016   1.143   4.322   5.566 -0.3373  0.1413 -0.7262
   32MOL    H1523017   1.819   3.713   4.551 -0.9015 -0.0964 -1.4067
   32MOL    H1623018   1.699   3.834   4.494  0.8185  2.5627 -1.0216
   32MOL    H1723019   1.918   3.932   4.689  0.1259  0.8500  0.3093
   32MOL    H1823020   1.768   4.008   4.635 -0.6743 -1.0784 -4.0969
   32MOL    H1923021   1.836   3.823   4.854 -0.1018 -3.5370 -2.2706
   32MOL    H2023022   1.681   3.784   4.775  0.4199 -1.1493  0.7507
   32MOL    H2123023   1.765   4.047   4.911 -0.7300  1.4672 -3.5173
   32MOL    H2223024   1.615   4.011   4.841 -0.1180 -0.6540 -0.5206
   32MOL    H2323025   1.722   3.892   5.092 -0.7131  0.5357  1.0446
   32MOL    H2423026   1.589   3.815   5.021 -0.1454 -0.2395  1.0479
   32MOL    H2523027   1.464   4.037   5.045 -2.0143 -0.2910  2.5148
   32MOL    H2623028   1.609   4.103   5.103  1.0873 -0.2811 -2.2959
   32MOL    H2723029   1.591   3.932   5.301  1.9142 -0.9045 -2.5704
   32MOL    H2823030   1.441   3.879   5.235 -0.0519  0.0532  0.5466
   32MOL    H2923031   1.408   4.159   5.269 -0.4056  1.3823  1.7593
   32MOL    H3023032   1.514   4.101   5.396  0.2289  0.3382 -0.5581
   32MOL    H3123033   1.331   3.921   5.458 -0.2723  1.0386  0.9478
   32MOL    H3223034   1.230   3.986   5.337 -0.1818  1.8326 -0.7984
   32MOL    H3323035   1.335   4.133   5.579  0.9561 -2.4536 -0.8083
   32MOL    H3423036   1.181   4.061   5.566  1.0725 -1.3907  1.1160
   32MOL    H3523037   1.115   4.213   5.383 -1.7652 -0.5830  2.2776
   32MOL    H3623038   1.267   4.302   5.395  2.1501 -1.6576  1.0112
   32MOL    H3723039   1.169   4.419   5.568 -0.2303  0.1064  1.8030
   32MOL    H3823040   1.889   3.810   4.335  3.2905 -0.4488  0.2358
   32MOL    C3923041   1.031   4.298   5.645 -0.9555 -0.0845  0.1455
   32MOL    O4023042   0.978   4.189   5.645 -0.0634  0.4178 -0.1687
   32MOL    C4123043   0.959   4.415   5.709  0.2080 -0.3025  0.7351
   32MOL    C4223044   0.833   4.389   5.793  0.5974  0.2267 -0.0956
   32MOL    C4323045   0.795   4.506   5.886 -0.3286 -0.0138  0.1865
   32MOL    C4423046   0.750   4.628   5.801 -0.0175 -0.3301 -0.5659
   32MOL    C4523047   0.697   4.738   5.889 -0.1399  0.4358  0.2543
   32MOL    C4623048   0.796   4.794   5.998  0.6769 -0.1414  0.7519
   32MOL    C4723049   0.744   4.915   6.075 -0.7143  0.0961 -0.4196
   32MOL    C4823050   0.828   4.966   6.201  0.9398 -0.0149 -0.5432
   32MOL    C4923051   0.940   5.065   6.176  0.1330 -0.2295  0.4160
   32MOL    C5023052   1.017   5.113   6.295 -0.1254  0.4836  0.2206
   32MOL    C5123053   1.152   5.180   6.269 -0.1712  0.0472  0.7259
   32MOL    N5223054   1.252   5.096   6.198  0.6884 -1.1931  0.0940
   32MOL    H5323055   0.936   4.479   5.624  4.6279  0.1274 -0.2510
   32MOL    H5423056   1.033   4.471   5.767  0.4363 -0.4761  0.6154
   32MOL    H5523057   0.756   4.354   5.725 -0.3151 -1.5477  1.8180
   32MOL    H5623058   0.857   4.307   5.860  0.6440 -0.9399 -1.5354
   32MOL    H5723059   0.875   4.535   5.954  0.1276  1.9599 -1.1294
   32MOL    H5823060   0.725   4.461   5.956  0.2819 -0.6154  0.4240
   32MOL    H5923061   0.827   4.663   5.733 -0.8950  0.3864 -1.2021
   32MOL    H6023062   0.672   4.595   5.732 -0.2353  1.7867 -1.3607
   32MOL    H6123063   0.611   4.706   5.948  0.3787 -0.3655  0.5820
   32MOL    H6223064   0.657   4.818   5.827 -0.6004  0.4077  0.5095
   32MOL    H6323065   0.900   4.805   5.967  0.8240  0.6893  1.4938
   32MOL    H6423066   0.799   4.714   6.071 -0.6353  0.9822  2.0853
   32MOL    H6523067   0.640   4.892   6.099 -0.4032  0.9962  1.9131
   32MOL    H6623068   0.737   5.002   6.010 -1.3839 -0.6380 -1.3574
   32MOL    H6723069   0.867   4.877   6.250  0.3592  0.2180  0.3598
   32MOL    H6823070   0.766   5.007   6.281  2.5603  1.3097  0.0853
   32MOL    H6923071   0.903   5.158   6.132 -2.9448 -0.6585  1.9987
   32MOL    H7023072   1.011   5.021   6.107 -1.0558 -0.7992 -0.4705
   32MOL    H7123073   1.038   5.020   6.348  1.5605  0.2080 -0.8929
   32MOL    H7223074   0.960   5.187   6.351 -1.1007 -1.9194  2.4763
   32MOL    H7323075   1.193   5.216   6.363 -0.1818  1.0295  0.3553
   32MOL    H7423076   1.145   5.270   6.208  1.2446 -0.0388  0.4354
   32MOL    H7523077   1.225   5.020   6.137 -1.7882 -0.3222  0.0420
   32MOL    C7623078   1.380   5.140   6.195 -0.3891  0.0970  0.5659
   32MOL    O7723079   1.424   5.236   6.256 -0.2737  0.6218 -0.3361
   32MOL    C7823080   1.473   5.055   6.106 -0.7478  0.6285  0.5680
   32MOL    C7923081   1.586   5.140   6.044 -0.0273  0.2007 -0.0777
   32MOL    C8023082   1.541   5.234   5.930 -0.3770  0.5812 -0.3215
   32MOL    C8123083   1.658   5.318   5.865  0.2724  0.5152  0.2078
   32MOL    C8223084   1.764   5.231   5.797 -0.2600 -0.1630 -0.6573
   32MOL    C8323085   1.860   5.323   5.724 -0.0999 -0.1387 -0.6742
   32MOL    C8423086   1.974   5.242   5.651  0.6125  0.8774 -0.3842
   32MOL    C8523087   2.095   5.322   5.598  0.5876 -0.5073  0.0182
   32MOL    C8623088   2.226   5.246   5.593 -0.2530  0.0619  0.1154
   32MOL    C8723089   2.324   5.249   5.719 -0.3005  0.1759  0.1173
   32MOL    C8823090   2.458   5.179   5.687  0.4287  0.1448 -0.2813
   32MOL    N8923091   2.424   5.045   5.643 -0.5348 -0.3620 -0.5221
   32MOL    H9023092   1.409   5.005   6.033 -1.9714  1.2725  1.1891
   32MOL    H9123093   1.522   4.983   6.173 -1.1031 -0.1374  0.0150
   32MOL    H9223094   1.638   5.205   6.115 -0.2768 -0.5886  0.8360
   32MOL    H9323095   1.662   5.070   6.010  0.6558  0.5319  0.7460
   32MOL    H9423096   1.474   5.313   5.963 -2.8033  0.4263 -4.5883
   32MOL    H9523097   1.479   5.178   5.860  0.3726 -0.6266 -0.0402
   32MOL    H9623098   1.614   5.380   5.787  0.6736  0.1319 -0.3265
   32MOL    H9723099   1.697   5.370   5.953 -0.3623  2.0355 -0.3933
   32MOL    H9823100   1.715   5.157   5.734  0.3012  0.2595 -1.5986
   32MOL    H9923101   1.809   5.167   5.873 -0.5882  0.1870 -0.1700
   32MOL   H10023102   1.918   5.390   5.787 -0.4079 -1.7798  1.3775
   32MOL   H10123103   1.803   5.386   5.655 -1.1387  1.5435  1.6813
   32MOL   H10223104   1.941   5.169   5.576 -2.0298  0.8660  0.7569
   32MOL   H10323105   1.998   5.179   5.737 -1.2872 -2.1107 -1.9731
   32MOL   H10423106   2.099   5.415   5.653  1.5747 -0.2647 -0.4450
   32MOL   H10523107   2.089   5.355   5.494  1.4080  1.0644  0.4606
   32MOL   H10623108   2.291   5.287   5.517  1.0098 -0.2046  1.0305
   32MOL   H10723109   2.194   5.146   5.562 -0.9458 -0.6295  2.9066
   32MOL   H10823110   2.269   5.222   5.809 -1.1449 -0.3259 -0.5405
   32MOL   H10923111   2.343   5.354   5.740 -2.5656  0.7488 -0.5349
   32MOL   H11023112   2.519   5.184   5.777 -0.2801  1.7829  0.1219
   32MOL   H11123113   2.515   5.234   5.612  1.2827 -2.1550 -1.3684
   32MOL   H11223114   2.357   4.989   5.693 -0.5097 -0.4026 -0.5344
   32MOL   C11323115   2.491   4.976   5.550 -0.4096  0.1332  0.1589
   32MOL   O11423116   2.586   5.025   5.491  0.0713 -0.5331 -0.4887
   32MOL   C11523117   2.436   4.832   5.525 -0.1739 -0.0523  0.7632
   32MOL   C11623118   2.388   4.800   5.383  1.1528  0.3144  0.5965
   32MOL   C11723119   2.245   4.839   5.357 -0.2667 -0.7994 -0.1913
   32MOL   C11823120   2.135   4.748   5.408  0.8330  0.3898 -0.2072
   32MOL   C11923121   2.000   4.826   5.405  1.4292 -0.1427 -0.6734
   32MOL   C12023122   1.873   4.738   5.418  0.5927  0.1239 -0.1479
   32MOL   C12123123   1.739   4.814   5.428 -0.1425 -0.8283 -0.1749
   32MOL   C12223124   1.628   4.718   5.416  0.3509 -0.5805 -0.2330
   32MOL   C12323125   1.598   4.649   5.548 -1.3333  0.3082 -0.3477
   32MOL   C12423126   1.524   4.517   5.522  0.0641 -0.0108  0.0667
   32MOL   C12523127   1.500   4.425   5.646  0.2026  0.0291 -0.4825
   32MOL   N12623128   1.622   4.355   5.690 -0.3921  0.2610 -0.6140
   32MOL   H12723129   2.364   4.808   5.603  1.2140  1.8751  2.7239
   32MOL   H12823130   2.523   4.768   5.535  0.4683  0.7838  0.6277
   32MOL   H12923131   2.450   4.845   5.306  1.6648 -4.0574 -1.7033
   32MOL   H13023132   2.393   4.691   5.385  0.4108  0.2627 -0.2922
   32MOL   H13123133   2.233   4.861   5.250  1.0213  0.9641  0.0057
   32MOL   H13223134   2.228   4.941   5.391  1.7494 -0.6451  0.4249
   32MOL   H13323135   2.130   4.656   5.351 -2.2870 -0.0783  0.7192
   32MOL   H13423136   2.162   4.706   5.505  2.6423  0.2108 -0.7748
   32MOL   H13523137   1.994   4.888   5.316  1.5586  2.0652  0.8072
   32MOL   H13623138   2.004   4.905   5.481  1.1161 -2.1855  1.5253
   32MOL   H13723139   1.893   4.681   5.509 -0.0822  1.0010  0.5600
   32MOL   H13823140   1.870   4.671   5.332  1.0709  0.9290 -0.8001
   32MOL   H13923141   1.741   4.867   5.332  3.2605 -2.4327 -1.0489
   32MOL   H14023142   1.743   4.896   5.500 -0.7851 -0.9798  0.0374
   32MOL   H14123143   1.655   4.656   5.331  1.0062  0.7195 -0.9803
   32MOL   H14223144   1.535   4.771   5.395  0.6868  1.0520  2.1094
   32MOL   H14323145   1.538   4.707   5.618 -0.5626 -0.6986  1.1531
   32MOL   H14423146   1.697   4.638   5.591 -0.9910  1.2306 -0.8802
   32MOL   H14523147   1.575   4.461   5.444  1.0057 -0.2782  0.8601
   32MOL   H14623148   1.423   4.533   5.485 -0.2123 -0.2036  0.7313
   32MOL   H14723149   1.420   4.353   5.630  0.2519 -0.0852 -0.2238
   32MOL   H14823150   1.464   4.482   5.732 -2.3592 -0.6051 -1.0800
   32MOL   H14923151   1.699   4.417   5.710 -1.4567  1.5423 -0.4143
   32MOL   C15023152   1.649   4.221   5.690 -0.6842 -0.9498 -0.0581
   32MOL   O15123153   1.568   4.134   5.655  0.2122 -0.4996  0.1261
   32MOL   C15223154   1.798   4.186   5.709  0.5299  0.2636  0.0756
   32MOL   C15323155   1.838   4.172   5.861  0.2839 -0.5380  0.2985
   32MOL   C15423156   1.792   4.048   5.930 -0.3945  0.5836 -0.3606
   32MOL   C15523157   1.867   3.923   5.879  1.0908  0.3204 -0.2984
   32MOL   C15623158   1.817   3.788   5.928 -0.3847 -0.0215  0.1024
   32MOL   C15723159   1.891   3.666   5.864  0.6773 -0.9188  0.2355
   32MOL   C15823160   1.839   3.531   5.922  0.0444  0.5431  0.0369
   32MOL   C15923161   1.914   3.406   5.865  0.1785  0.1328  0.2868
   32MOL   C16023162   1.856   3.270   5.914  0.9581 -0.2540 -0.2450
   32MOL   C16123163   1.926   3.150   5.848  0.1010  0.9287  0.5984
   32MOL   C16223164   1.867   3.012   5.884 -0.2794 -0.3272  0.0790
   32MOL   N16323165   1.919   2.919   5.787  0.9476 -0.7986  0.0401
   32MOL   H16423166   1.860   4.259   5.657  1.6319 -0.0434  0.9262
   32MOL   H16523167   1.826   4.095   5.656  0.8168  0.1697  0.3887
   32MOL   H16623168   1.945   4.183   5.878  0.5424 -1.2982 -0.7654
   32MOL   H16723169   1.789   4.256   5.909 -0.0358 -0.2604 -0.4975
   32MOL   H16823170   1.685   4.035   5.912 -0.7787  0.2569  2.0494
   32MOL   H16923171   1.798   4.063   6.037  2.1598 -1.9964 -0.0979
   32MOL   H17023172   1.860   3.921   5.771 -1.2074 -0.3124 -0.1619
   32MOL   H17123173   1.972   3.911   5.909  0.6569 -2.4310  0.2991
   32MOL   H17223174   1.712   3.773   5.904 -0.4599  2.0555 -0.9425
   32MOL   H17323175   1.819   3.785   6.037  1.5355 -1.9897  0.0441
   32MOL   H17423176   1.999   3.668   5.882  0.8136 -0.6037 -0.5931
   32MOL   H17523177   1.878   3.655   5.756  3.7417 -1.8152 -0.0912
   32MOL   H17623178   1.734   3.525   5.894  0.2595 -1.4338 -0.4477
   32MOL   H17723179   1.837   3.529   6.031 -1.1069 -0.9556  0.0047
   32MOL   H17823180   2.017   3.424   5.894 -0.5307  0.9337  2.3811
   32MOL   H17923181   1.919   3.413   5.756  2.6201  3.0116  0.5153
   32MOL   H18023182   1.749   3.258   5.898  0.8017 -0.2015  0.7810
   32MOL   H18123183   1.873   3.254   6.020  0.7590 -0.5469 -0.2556
   32MOL   H18223184   2.034   3.145   5.859  0.5542  2.7260 -2.2872
   32MOL   H18323185   1.910   3.170   5.742  1.0883  3.7440  0.9304
   32MOL   H18423186   1.762   3.012   5.855 -0.1373 -2.4833 -0.5206
   32MOL   H18523187   1.884   2.989   5.990 -1.4627 -0.0719  0.3313
   32MOL   H18623188   1.994   2.958   5.732  3.1262 -1.9036  2.1269
   32MOL   C18723189   1.917   2.788   5.805 -0.0973  0.0659 -0.2435
   32MOL   O18823190   1.854   2.725   5.896  0.0072 -0.8729  0.5169
   32MOL   C18923191   2.000   2.708   5.702  0.2578  0.0246  0.2477
   32MOL   C19023192   1.920   2.610   5.629  0.4992 -0.4932  0.0013
   32MOL   C19123193   2.011   2.508   5.544  0.0232  0.8451 -0.0739
   32MOL   C19223194   1.934   2.402   5.476  0.2100 -0.1222 -0.4869
   32MOL   C19323195   1.840   2.462   5.371  0.4907 -0.1502 -0.3132
   32MOL   C19423196   1.784   2.360   5.267 -0.5595  0.5457  0.6215
   32MOL   C19523197   1.698   2.428   5.158  0.0080  0.0848  0.0170
   32MOL   C19623198   1.665   2.318   5.053  0.6775 -0.2651  0.1089
   32MOL   C19723199   1.564   2.366   4.950  0.4723 -1.2155  0.3461
   32MOL   C19823200   1.596   2.497   4.873 -0.1392  0.2516 -0.5755
   32MOL   C19923201   1.492   2.516   4.765  0.4610 -0.3104 -0.9399
   32MOL   N20023202   1.504   2.428   4.647  0.3567 -0.6416 -0.2827
   32MOL   H20123203   2.094   2.671   5.744  0.0835 -0.6997  0.0125
   32MOL   H20223204   2.026   2.776   5.621 -2.0083 -0.2257 -0.7062
   32MOL   H20323205   1.868   2.549   5.704 -0.5965  1.2913  0.7265
   32MOL   H20423206   1.849   2.658   5.562  0.3061 -1.3135 -0.3930
   32MOL   H20523207   2.086   2.464   5.609  0.0377  1.3900  0.2755
   32MOL   H20623208   2.070   2.560   5.469 -1.3143 -0.2488 -1.9361
   32MOL   H20723209   2.008   2.348   5.418 -0.3500 -0.3675 -0.9873
   32MOL   H20823210   1.887   2.330   5.544 -0.3458  0.5607 -0.1399
   32MOL   H20923211   1.890   2.543   5.317 -0.4833  1.3298  0.9836
   32MOL   H21023212   1.765   2.507   5.436 -0.4259 -0.8908 -0.8316
   32MOL   H21123213   1.731   2.280   5.320  2.2504 -0.5454  1.9172
   32MOL   H21223214   1.865   2.304   5.220  0.1021 -0.0072  2.3982
   32MOL   H21323215   1.754   2.510   5.115  3.2032 -1.5505  0.9136
   32MOL   H21423216   1.608   2.470   5.203 -0.3837 -0.8296  0.1103
   32MOL   H21523217   1.613   2.239   5.107 -1.5536  1.4718  0.5710
   32MOL   H21623218   1.756   2.272   5.013 -0.8022 -2.3000 -1.0314
   32MOL   H21723219   1.462   2.368   4.987 -0.4638  0.3103 -2.2417
   32MOL   H21823220   1.549   2.281   4.884 -2.0478  0.3252 -1.1479
   32MOL   H21923221   1.693   2.487   4.825 -1.3698  0.0319 -3.1101
   32MOL   H22023222   1.602   2.582   4.941  0.2036  0.5501 -0.9818
   32MOL   H22123223   1.494   2.615   4.719  2.1536 -1.5460 -3.6277
   32MOL   H22223224   1.395   2.499   4.812  1.4933  0.3185  1.4579
   32MOL   H22323225   1.468   2.335   4.658  2.4377 -1.2135  2.1261
   32MOL   C22423226   1.551   2.450   4.525  0.0809 -0.0202 -0.1591
   32MOL   O22523227   1.590   2.563   4.499  0.1554  0.1761 -0.1439
   32MOL   C22623228   1.545   2.339   4.427 -0.8012  0.2283  0.0147
   32MOL   C22723229   1.689   2.302   4.374 -0.3823  0.6171 -0.4351
   32MOL   C22823230   1.775   2.229   4.475 -0.2921  0.5737 -0.2038
   32MOL   C22923231   1.723   2.092   4.512 -0.1140 -0.8063  0.9595
   32MOL   C23023232   1.799   2.013   4.620  0.6387 -0.3900 -0.7780
   32MOL   C23123233   1.831   2.082   4.754  0.1022  0.6159  0.3368
   32MOL   C23223234   1.893   1.980   4.856 -0.5939 -0.2888 -0.0741
   32MOL   C23323235   1.963   2.045   4.971  0.1650  0.4749  0.0529
   32MOL   C23423236   2.052   1.942   5.046 -0.1651 -0.3764 -0.2330
   32MOL   C23523237   2.117   2.004   5.175 -0.1816 -0.2014 -0.2358
   32MOL   C23623238   2.206   1.918   5.265  0.0874  0.4794  0.5389
   32MOL   N23723239   2.302   1.851   5.177  0.1405  0.5310 -0.1976
   32MOL   H23823240   1.486   2.379   4.344  0.8845 -0.2236 -1.4302
   32MOL   H23923241   1.493   2.251   4.464  0.3014  0.0630  1.1763
   32MOL   H24023242   1.680   2.247   4.280  0.7814 -0.1679 -0.0959
   32MOL   H24123243   1.735   2.399   4.356  1.3494 -0.0084  0.5516
   32MOL   H24223244   1.773   2.282   4.570 -0.1155 -1.1567  0.7660
   32MOL   H24323245   1.875   2.215   4.434 -0.2288  2.5807 -0.8262
   32MOL   H24423246   1.623   2.105   4.555 -0.0110 -1.4284  1.3942
   32MOL   H24523247   1.702   2.033   4.422  1.6096 -1.4218  0.9431
   32MOL   H24623248   1.895   1.980   4.581  1.6880  0.3734  1.0739
   32MOL   H24723249   1.754   1.916   4.639  0.1285  0.1039  0.6572
   32MOL   H24823250   1.746   2.120   4.810  1.5787  2.8615  1.1654
   32MOL   H24923251   1.903   2.164   4.746 -0.4176  0.9777 -0.7387
   32MOL   H25023252   1.965   1.929   4.792 -1.6215 -1.5578 -0.2372
   32MOL   H25123253   1.818   1.918   4.905 -0.4523 -0.0362  0.4693
   32MOL   H25223254   1.900   2.090   5.047 -0.9333  1.3616 -1.3548
   32MOL   H25323255   2.017   2.132   4.935  1.6579  0.3539  1.9467
   32MOL   H25423256   2.134   1.908   4.982  1.2102  0.7477  0.9052
   32MOL   H25523257   2.001   1.854   5.085 -0.4009  0.4652  1.3939
   32MOL   H25623258   2.036   2.038   5.239 -0.7405  1.0675 -1.5829
   32MOL   H25723259   2.178   2.090   5.144  1.2097 -1.3827 -0.8554
   32MOL   H25823260   2.151   1.845   5.323  1.7361 -1.2891 -0.0635
   32MOL   H25923261   2.253   1.975   5.345  2.6481 -1.5878  0.5705
   32MOL   H26023262   2.289   1.752   5.163 -0.9281  0.5571  0.5155
   32MOL   C26123263   2.406   1.910   5.118 -0.0198 -0.2754  0.1037
   32MOL   O26223264   2.431   2.027   5.131 -0.2169 -0.0057 -0.1105
   32MOL   C26323265   2.492   1.823   5.018 -0.1105 -0.0907 -0.4526
   32MOL   C26423266   2.491   1.869   4.871  0.0153 -0.1039 -0.1857
   32MOL   C26523267   2.358   1.845   4.791 -0.1248  0.2797 -0.1331
   32MOL   C26623268   2.306   1.697   4.796  0.5867 -0.4088  0.3429
   32MOL   C26723269   2.405   1.588   4.757  0.0120 -0.0639  0.6634
   32MOL   C26823270   2.375   1.444   4.815 -0.6409  0.1558 -0.0862
   32MOL   C26923271   2.480   1.343   4.764  0.1806 -0.1742  0.2008
   32MOL   C27023272   2.481   1.210   4.841  0.2868 -0.3899  0.2816
   32MOL   C27123273   2.569   1.104   4.773 -0.8219 -0.2677  0.5428
   32MOL   C27223274   2.491   1.008   4.677  0.4151  0.1129  0.8254
   32MOL   C27323275   2.577   0.902   4.615 -0.1241 -0.3302  0.0538
   32MOL   N27423276   2.522   0.827   4.507  0.2023  0.3895 -0.0649
   32MOL   H27523277   2.456   1.720   5.023 -0.5384  0.0807 -0.0092
   32MOL   H27623278   2.595   1.824   5.054  0.4762  0.9813 -2.0844
   32MOL   H27723279   2.529   1.970   4.860  0.8659 -0.4292 -0.2746
   32MOL   H27823280   2.568   1.814   4.816 -0.6530 -0.4227 -0.8062
   32MOL   H27923281   2.375   1.858   4.684 -0.3867 -0.4019 -0.2644
   32MOL   H28023282   2.272   1.898   4.831 -1.4038 -2.3787  0.8013
   32MOL   H28123283   2.260   1.678   4.893  1.5536  1.1651  1.1270
   32MOL   H28223284   2.238   1.676   4.714  0.0904  0.3301  0.5602
   32MOL   H28323285   2.503   1.619   4.792 -0.5596  1.3298  1.0541
   32MOL   H28423286   2.421   1.580   4.649 -1.1299 -2.2141  0.6257
   32MOL   H28523287   2.274   1.408   4.792 -0.2342 -0.0614 -1.5909
   32MOL   H28623288   2.384   1.451   4.923 -1.1076  1.4251 -0.1224
   32MOL   H28723289   2.575   1.392   4.783  0.7920 -1.9878  2.0201
   32MOL   H28823290   2.474   1.329   4.656  2.0096  1.9196 -0.2098
   32MOL   H28923291   2.385   1.159   4.843  0.9888 -1.7256  0.6591
   32MOL   H29023292   2.519   1.228   4.942  1.7438 -2.5696  0.1637
   32MOL   H29123293   2.615   1.042   4.850 -1.1227 -2.7388 -1.1961
   32MOL   H29223294   2.655   1.145   4.721 -0.6527 -2.2363 -0.7781
   32MOL   H29323295   2.443   1.070   4.602 -0.5256 -1.5280  0.0553
   32MOL   H29423296   2.409   0.956   4.726  1.3984 -2.5710 -0.2534
   32MOL   H29523297   2.630   0.839   4.686 -0.7028  0.4627  1.2227
   32MOL   H29623298   2.657   0.962   4.570  0.3847 -0.8619  0.2433
   32MOL   H29723299   2.534   0.876   4.420 -2.4373 -0.1718 -0.7853
   32MOL   C29823300   2.460   0.712   4.506  0.2797  0.4948 -0.5145
   32MOL   O29923301   2.467   0.629   4.602 -0.8821 -0.9885  0.3791
   32MOL   C30023302   2.393   0.670   4.378 -0.4707 -0.0488 -0.1981
   32MOL   C30123303   2.314   0.538   4.382 -0.2078 -0.1238 -0.4088
   32MOL   C30223304   2.189   0.546   4.465 -0.2139 -0.1797  0.1159
   32MOL   C30323305   2.093   0.428   4.447 -0.6774  0.6443 -0.0131
   32MOL   C30423306   2.155   0.287   4.452 -0.6227 -0.5206 -0.2741
   32MOL   C30523307   2.192   0.252   4.601  0.1852 -0.5341  0.5520
   32MOL   C30623308   2.242   0.113   4.620 -0.4505  0.3671 -0.4354
   32MOL   C30723309   2.268   0.072   4.773  0.2838  0.7262  0.7971
   32MOL   C30823310   2.284   7.608   4.789 -1.1233  0.0471 -0.2232
   32MOL   C30923311   2.330   7.568   4.928  0.1748  0.2867 -0.2191
   32MOL   C31023312   2.474   7.599   4.950  0.9852 -0.1784 -0.2349
   32MOL   N31123313   2.557   7.516   4.866 -0.9980  0.3705  0.6703
   32MOL   H31223314   2.467   0.661   4.299 -0.1674  0.9275 -0.0310
   32MOL   H31323315   2.328   0.745   4.333  0.8588 -0.2202 -2.4320
   32MOL   H31423316   2.294   0.501   4.282 -1.2430 -0.3656 -0.1194
   32MOL   H31523317   2.373   0.456   4.422 -0.3910 -0.2929 -0.4891
   32MOL   H31623318   2.125   0.628   4.434 -3.3714 -2.1186  1.2099
   32MOL   H31723319   2.222   0.566   4.567 -2.8663  0.3622  0.9090
   32MOL   H31823320   2.018   0.430   4.526  0.3915  0.6957  1.0073
   32MOL   H31923321   2.040   0.444   4.353  0.3248 -0.6189 -0.8055
   32MOL   H32023322   2.240   0.276   4.385  1.9603 -2.0162  3.1131
   32MOL   H32123323   2.079   0.214   4.424 -1.7879  0.1694  1.0543
   32MOL   H32223324   2.101   0.264   4.660  0.3899 -0.7173  0.9030
   32MOL   H32323325   2.254   0.337   4.630  0.6088  0.1848 -2.3330
   32MOL   H32423326   2.330   0.092   4.558  1.3510 -0.5498  2.3688
   32MOL   H32523327   2.170   0.037   4.589 -1.1888  0.8807  0.0181
   32MOL   H32623328   2.191   0.101   4.843 -0.8363  0.6752 -0.4008
   32MOL   H32723329   2.358   0.120   4.812  1.4498 -1.3681  0.8154
   32MOL   H32823330   2.344   7.568   4.707  1.0854  0.9805  0.8768
   32MOL   H32923331   2.195   7.549   4.768 -1.6959  0.0494  2.0107
   32MOL   H33023332   2.324   7.460   4.943 -3.3755  0.2693 -1.3346
   32MOL   H33123333   2.262   7.611   5.001 -1.7546 -0.1744 -1.7254
   32MOL   H33223334   2.508   7.567   5.049  0.4989 -1.3417 -0.4414
   32MOL   H33323335   2.491   0.011   4.932  1.5015 -0.2494 -0.1829
   32MOL   H33423336   2.536   7.417   4.869  1.0491 -0.0581  1.3815
   32MOL   C33523337   2.652   7.557   4.778 -0.7115  0.0602 -0.5959
   32MOL   O33623338   2.682   7.672   4.761 -0.0488 -1.1934 -0.0934
   32MOL   C33723339   2.731   7.444   4.700 -0.4658 -0.4638 -0.3614
   32MOL   C33823340   2.720   7.449   4.544  0.4860 -0.3714 -0.3137
   32MOL   C33923341   2.585   7.447   4.479  0.0569  0.0907  0.0550
   32MOL   C34023342   2.598   7.425   4.327  0.6974 -0.1856 -0.2072
   32MOL   C34123343   2.622   7.280   4.277 -0.2035  0.2091 -0.7772
   32MOL   C34223344   2.666   7.282   4.128  0.2545  0.8359 -0.0846
   32MOL   C34323345   2.697   7.140   4.070  0.0080 -0.1324 -0.1444
   32MOL   C34423346   2.811   7.068   4.140  0.4824  0.3602 -0.3090
   32MOL   C34523347   2.850   6.942   4.065  0.9176 -0.1473 -0.7115
   32MOL   C34623348   2.949   6.961   3.950  0.2724  0.5037  0.0336
   32MOL   C34723349   2.945   6.828   3.872  0.1956 -0.4039  0.0892
   32MOL   N34823350   3.029   6.834   3.751 -0.0552  0.0233  0.5284
   32MOL   H34923351   2.703   7.346   4.738 -1.2854  0.6969  2.0924
   32MOL   H35023352   2.835   7.457   4.731 -0.0724  1.4446 -2.3276
   32MOL   H35123353   2.786   7.516   4.489 -1.1369  1.2473 -0.3302
   32MOL   H35223354   2.767   7.358   4.506 -0.6846 -0.0556 -2.6475
   32MOL   H35323355   2.530   7.539   4.493 -0.0119  0.0048  0.3409
   32MOL   H35423356   2.533   7.363   4.525  0.3590  0.4965  1.1586
   32MOL   H35523357   2.503   7.451   4.281  0.0923  0.2223  1.2811
   32MOL   H35623358   2.669   7.498   4.287 -0.6352  0.8025 -0.8193
   32MOL   H35723359   2.534   7.221   4.304  0.9129 -1.2053 -0.1826
   32MOL   H35823360   2.696   7.232   4.340 -0.3961 -0.0511 -0.7476
   32MOL   H35923361   2.755   7.345   4.122  1.8204 -1.2839  0.3553
   32MOL   H36023362   2.581   7.327   4.078 -0.8416 -0.4513  0.5941
   32MOL   H36123363   2.719   7.161   3.965 -0.3851  0.7051 -0.0604
   32MOL   H36223364   2.610   7.074   4.067  0.3344 -0.5206 -1.5951
   32MOL   H36323365   2.784   7.038   4.241 -1.2821  2.2354 -0.1785
   32MOL   H36423366   2.899   7.132   4.147  0.5473  0.2444 -0.0719
   32MOL   H36523367   2.770   6.879   4.025  2.0078 -2.2307  0.2770
   32MOL   H36623368   2.911   6.884   4.134  0.2449  0.4772  0.4302
   32MOL   H36723369   3.050   6.994   3.976  0.4466 -2.0329  2.8760
   32MOL   H36823370   2.909   7.037   3.883  0.2314 -0.3123 -0.8901
   32MOL   H36923371   2.847   6.797   3.836  0.8668  1.7769 -3.9275
   32MOL   H37023372   2.970   6.743   3.936 -1.2460  0.4975  1.9079
   32MOL   H37123373   2.996   6.871   3.663  1.3075  1.7141  0.6988
   32MOL   C37223374   3.161   6.814   3.752 -0.3117  0.2515  0.4609
   32MOL   O37323375   3.220   6.791   3.856 -0.1926  0.2019  0.5409
   32MOL   C37423376   3.240   6.830   3.619  0.2934 -0.0644 -0.0138
   32MOL   C37523377   3.332   6.950   3.611 -0.3431  0.1170  0.3743
   32MOL   C37623378   3.431   6.933   3.496 -0.3538  0.2888 -1.1303
   32MOL   C37723379   3.522   7.053   3.477 -0.0456 -0.5086  0.4889
   32MOL   C37823380   3.632   7.036   3.371 -1.0328 -0.2642 -0.0035
   32MOL   C37923381   3.745   6.946   3.410  0.0009  0.0799  0.6138
   32MOL   C38023382   3.842   6.912   3.301  0.3891 -0.3839 -0.0746
   32MOL   C38123383   3.922   6.778   3.337  0.0043  0.0579 -0.1715
   32MOL   C38223384   4.028   6.751   3.224  0.9069 -0.1640 -0.2420
   32MOL   C38323385   4.093   6.618   3.252  0.2587  0.2849  0.6469
   32MOL   C38423386   4.214   6.601   3.166  0.0920 -0.1009  0.2094
   32MOL   N38523387   4.278   6.471   3.205  0.2522 -0.2065 -0.3509
   32MOL   H38623388   3.175   6.830   3.532 -0.8722 -2.6358  0.7994
   32MOL   H38723389   3.302   6.742   3.600 -1.3919 -1.2251 -0.2381
   32MOL   H38823390   3.271   7.034   3.577 -0.0327 -0.1053 -0.7592
   32MOL   H38923391   3.376   6.974   3.708 -0.1826 -1.1595  0.6244
   32MOL   H39023392   3.394   6.912   3.396 -1.7392 -0.9928 -0.3810
   32MOL   H39123393   3.487   6.844   3.527  0.9358  1.9300  1.4379
   32MOL   H39223394   3.451   7.128   3.443  1.4458  0.7061 -0.0619
   32MOL   H39323395   3.563   7.096   3.569 -0.5466  0.3477  0.3185
   32MOL   H39423396   3.668   7.139   3.365  1.0680 -0.7576  2.9067
   32MOL   H39523397   3.582   7.007   3.279 -5.1268 -0.8373  2.2929
   32MOL   H39623398   3.701   6.852   3.441  1.3433 -0.4715  0.8591
   32MOL   H39723399   3.793   6.993   3.496 -1.6636 -0.2533  1.7516
   32MOL   H39823400   3.906   6.998   3.280 -0.7484  0.7802  1.1367
   32MOL   H39923401   3.786   6.897   3.208  0.4760 -1.8961  0.0975
   32MOL   H40023402   3.854   6.693   3.349  1.4403 -0.9858  0.8465
   32MOL   H40123403   3.974   6.796   3.432  1.0922 -0.5995 -0.6323
   32MOL   H40223404   4.098   6.833   3.207 -0.3009  0.4500 -2.5045
   32MOL   H40323405   3.981   6.741   3.126 -2.1767  1.1225  1.0361
   32MOL   H40423406   4.029   6.530   3.245 -1.1956  1.4967 -2.1998
   32MOL   H40523407   4.129   6.599   3.353 -0.6467 -2.1747  0.5359
   32MOL   H40623408   4.286   6.677   3.196 -1.5352  1.7079 -0.4124
   32MOL   H40723409   4.190   6.616   3.061  0.5869  1.4397  0.3052
   32MOL   H40823410   4.317   6.463   3.298 -0.0457 -0.7329 -0.2684
   32MOL   C40923411   4.294   6.366   3.121  0.6941  0.4882 -0.6885
   32MOL   O41023412   4.259   6.361   3.002 -0.9661 -0.4644  0.5577
   32MOL   C41123413   4.354   6.239   3.182  0.4455  0.5986  0.1335
   32MOL   C41223414   4.373   6.123   3.086  0.6285  0.5378  0.4660
   32MOL   C41323415   4.449   6.005   3.156 -0.9489  0.0447  0.5365
   32MOL   C41423416   4.484   5.880   3.069 -0.5245 -0.4599 -0.4348
   32MOL   C41523417   4.550   5.764   3.147  0.2449 -0.6207  0.4635
   32MOL   C41623418   4.581   5.647   3.065  0.6617 -0.3022 -0.4238
   32MOL   C41723419   4.697   5.667   2.969 -0.5785 -0.3575 -0.2567
   32MOL   C41823420   4.758   5.544   2.913 -0.0132  0.4342  0.2111
   32MOL   C41923421   4.887   5.573   2.840 -0.5515 -0.3429  0.2697
   32MOL   C42023422   4.957   5.452   2.779  0.4104 -0.1974 -0.0029
   32MOL   C42123423   5.065   5.400   2.872  0.1512 -0.6018 -0.0566
   32MOL   N42223424   5.132   5.294   2.801 -0.6112 -0.4162  0.1896
   32MOL   H42323425   4.298   6.196   3.265 -0.0490 -2.5206 -1.7059
   32MOL   H42423426   4.442   6.265   3.240  0.2852  1.7608 -0.1381
   32MOL   H42523427   4.275   6.086   3.054 -0.4779  0.8191  3.4285
   32MOL   H42623428   4.426   6.164   3.000 -2.1682 -0.2576 -1.7289
   32MOL   H42723429   4.396   5.977   3.246 -2.4984  1.4805  0.1001
   32MOL   H42823430   4.543   6.046   3.194  0.2735 -0.4080 -1.8458
   32MOL   H42923431   4.388   5.846   3.030 -2.0937 -1.3358  3.8766
   32MOL   H43023432   4.548   5.916   2.989 -0.2878  1.4262  0.5697
   32MOL   H43123433   4.474   5.724   3.215 -1.9496 -2.3921 -2.9102
   32MOL   H43223434   4.637   5.796   3.203 -0.1234  0.7832  0.2424
   32MOL   H43323435   4.490   5.613   3.016 -0.7130 -0.6212  2.2416
   32MOL   H43423436   4.609   5.567   3.134  3.6263  0.4516 -0.7265
   32MOL   H43523437   4.778   5.700   3.034 -0.4412  1.7144 -1.4228
   32MOL   H43623438   4.680   5.743   2.892 -1.8927 -0.8947 -0.5155
   32MOL   H43723439   4.701   5.485   2.841  0.6085 -1.2318  1.0442
   32MOL   H43823440   4.774   5.472   2.993 -1.1836  0.8108  0.7867
   32MOL   H43923441   4.956   5.641   2.888  0.3572 -1.0064 -0.0905
   32MOL   H44023442   4.846   5.626   2.753  0.5549 -0.6580 -0.4517
   32MOL   H44123443   4.988   5.477   2.677 -2.0742 -1.1112 -1.0348
   32MOL   H44223444   4.894   5.363   2.774  1.1968 -0.8055  0.7505
   32MOL   H44323445   5.018   5.370   2.966  1.3615 -2.2363  0.0453
   32MOL   H44423446   5.130   5.486   2.888 -0.0334 -0.1753 -1.4784
   32MOL   H44523447   5.125   5.285   2.700  0.3158  1.3041 -0.0658
   32MOL   C44623448   5.228   5.221   2.855  0.4231  0.2041 -0.6401
   32MOL   O44723449   5.246   5.223   2.981 -0.8323  0.2168  0.1987
   32MOL   C44823450   5.315   5.133   2.759  0.1189  0.3272  0.6252
   32MOL   C44923451   5.452   5.202   2.724  0.1629 -0.5953  0.4903
   32MOL   C45023452   5.429   5.331   2.641 -0.4834  0.0115  0.3166
   32MOL   C45123453   5.560   5.388   2.588 -0.4037  0.5122 -0.5598
   32MOL   C45223454   5.555   5.509   2.498 -0.2247 -0.7148  0.6800
   32MOL   C45323455   5.689   5.577   2.465  0.1011 -0.1891 -0.1280
   32MOL   C45423456   5.683   5.715   2.397  0.8898  0.1176 -0.7938
   32MOL   C45523457   5.815   5.783   2.369 -0.4500  0.5143  0.3125
   32MOL   C45623458   5.797   5.925   2.328  0.9991  0.5732  0.3196
   32MOL   C45723459   5.934   5.993   2.296 -0.1190 -0.4506  0.2713
   32MOL   C45823460   6.030   6.022   2.416  0.4418 -0.7542  0.1229
   32MOL   N45923461   6.141   6.114   2.376  0.1814  0.0817  0.1199
   32MOL   H46023462   5.271   5.102   2.664 -2.2184  2.7624  0.8504
   32MOL   H46123463   5.326   5.042   2.818  0.7980  0.0335  0.0571
   32MOL   H46223464   5.495   5.242   2.816  0.4864  1.9079 -0.7025
   32MOL   H46323465   5.516   5.130   2.673 -0.4161 -1.4795  0.9945
   32MOL   H46423466   5.374   5.399   2.705 -0.1063 -0.8089  1.5256
   32MOL   H46523467   5.358   5.298   2.565 -1.0420  2.8543 -0.4475
   32MOL   H46623468   5.637   5.396   2.666  0.6865 -0.6121 -1.5002
   32MOL   H46723469   5.609   5.307   2.534  1.0215  0.8488  0.2032
   32MOL   H46823470   5.500   5.590   2.546 -1.3889 -0.7338 -0.6236
   32MOL   H46923471   5.495   5.497   2.408 -0.5293  0.9871  0.6409
   32MOL   H47023472   5.748   5.515   2.398 -0.3652  0.3286 -1.0307
   32MOL   H47123473   5.752   5.593   2.552 -1.6384  0.5108  1.0406
   32MOL   H47223474   5.618   5.779   2.456  1.8545  0.9983 -0.6684
   32MOL   H47323475   5.637   5.701   2.299 -0.0667 -0.0564 -0.3259
   32MOL   H47423476   5.875   5.728   2.297  0.9679 -0.1011  1.9380
   32MOL   H47523477   5.871   5.779   2.462 -0.1737  1.6022  0.1948
   32MOL   H47623478   5.748   5.988   2.403 -0.3341 -0.4864  0.3551
   32MOL   H47723479   5.735   5.930   2.239  1.5803  0.6401 -0.0809
   32MOL   H47823480   5.911   6.084   2.240  0.9223 -1.3854 -1.7226
   32MOL   H47923481   5.985   5.934   2.220 -0.2950 -1.1203  0.6735
   32MOL   H48023482   6.074   5.927   2.446 -0.5076 -0.8854  1.1191
   32MOL   H48123483   5.984   6.059   2.508 -0.4928  1.0423 -1.0304
   32MOL   H48223484   6.228   6.072   2.345 -0.9350 -1.0290 -1.5788
   32MOL   C48323485   6.137   6.245   2.375  0.8257 -0.3128  0.8401
   32MOL   O48423486   6.036   6.312   2.388  0.2334  0.1999 -0.2550
   32MOL   C48523487   6.272   6.315   2.347 -0.3595  0.0987  0.7476
   32MOL   C48623488   6.266   6.466   2.352 -0.2990 -0.4602  0.4134
   32MOL   C48723489   6.216   6.541   2.224 -0.3320 -0.3640  0.1576
   32MOL   C48823490   6.315   6.559   2.111 -0.5533  0.0343 -0.6008
   32MOL   C48923491   6.271   6.663   2.010  0.0361  0.3045  0.7818
   32MOL   C49023492   6.364   6.656   1.884  0.4594  0.5293  0.9746
   32MOL   C49123493   6.365   6.786   1.799 -0.1972 -0.2501  0.4439
   32MOL   C49223494   6.476   6.782   1.687  0.4859 -0.3428 -0.2417
   32MOL   C49323495   6.471   6.917   1.612  0.7119  0.0703 -0.1161
   32MOL   C49423496   6.588   6.939   1.522  0.5214 -0.0010 -0.1037
   32MOL   C49523497   6.588   7.068   1.436  0.9238 -0.0230 -0.1400
   32MOL   N49623498   6.692   7.061   1.327 -0.2847 -0.0755 -0.3731
   32MOL   H49723499   6.311   6.283   2.251  2.6679  2.3336  1.1209
   32MOL   H49823500   6.344   6.276   2.419  0.5571  0.6522  0.1392
   32MOL   H49923501   6.228   6.505   2.446 -1.8969 -0.0578 -0.3904
   32MOL   H50023502   6.372   6.490   2.349 -0.4988  0.3423 -2.1682
   32MOL   H50123503   6.195   6.643   2.258  0.6824 -0.6165  1.6311
   32MOL   H50223504   6.122   6.499   2.190  0.1566 -0.5807 -0.9289
   32MOL   H50323505   6.414   6.576   2.152 -1.2377  2.3107  0.1881
   32MOL   H50423506   6.325   6.467   2.053  0.6556 -0.4595  0.3781
   32MOL   H50523507   6.277   6.764   2.049 -0.2155  0.2419  0.9829
   32MOL   H50623508   6.167   6.651   1.980  1.0092 -2.8014 -1.6565
   32MOL   H50723509   6.338   6.576   1.815 -1.3929  0.5958  1.5865
   32MOL   H50823510   6.470   6.640   1.905  0.5117 -1.1009 -0.3951
   32MOL   H50923511   6.374   6.873   1.863 -2.7988  0.0857  0.4075
   32MOL   H51023512   6.265   6.796   1.756 -0.9886 -1.9894  1.8111
   32MOL   H51123513   6.447   6.698   1.624 -3.9919  0.1957  0.9313
   32MOL   H51223514   6.571   6.764   1.737  0.9214  0.0414 -0.9168
   32MOL   H51323515   6.474   7.005   1.677 -2.1436 -0.1424  0.3744
   32MOL   H51423516   6.382   6.920   1.550  0.7391  1.6670 -0.0868
   32MOL   H51523517   6.584   6.856   1.452  1.8237  1.8736 -2.4498
   32MOL   H51623518   6.685   6.953   1.569  1.3647 -0.1995 -1.7826
   32MOL   H51723519   6.602   7.158   1.497  1.8732 -0.4239  0.2454
   32MOL   H51823520   6.497   7.077   1.377 -1.0729  1.3240  2.9843
   32MOL   H51923521   6.676   6.994   1.254  1.1905  1.7152 -2.3982
   32MOL   C52023522   6.802   7.129   1.318  0.3815 -0.4318 -0.0238
   32MOL   O52123523   6.849   7.212   1.399  0.4702  0.0501  0.2524
   32MOL   C52223524   6.883   7.101   1.192 -0.1857  1.0945  0.6236
   32MOL   C52323525   6.998   7.198   1.172 -0.1793 -0.2352 -0.1658
   32MOL   C52423526   7.073   7.174   1.043  0.0197  0.7662  0.6604
   32MOL   C52523527   7.221   7.217   1.032 -0.6941 -0.4648  0.8713
   32MOL   C52623528   7.318   7.113   1.096 -0.2366  0.1243 -0.1557
   32MOL   C52723529   7.451   7.181   1.119  0.6143  0.6441 -0.6193
   32MOL   C52823530   7.458   7.235   1.262 -0.4503 -0.5051  0.4440
   32MOL   C52923531   7.567   7.333   1.301 -0.4023  0.1126  0.0218
   32MOL   C53023532   7.538   7.427   1.420  0.4873 -0.0206  0.1931
   32MOL   C53123533   7.655   7.524   1.456 -0.1169 -0.2917 -0.1376
   32MOL   C53223534   7.672   7.640   1.358  0.2030  0.4292  0.4872
   32MOL   N53323535   7.548   0.029   1.364 -0.4706  0.8169  0.1541
   32MOL   H53423536   6.819   7.110   1.104  0.4902  1.1442  0.1311
   32MOL   H53523537   6.922   7.000   1.206  0.7540  1.1585 -1.3058
   32MOL   H53623538   6.979   7.305   1.170  0.9656 -0.0281 -0.0323
   32MOL   H53723539   7.063   7.174   1.256  0.9541  1.7997 -0.4222
   32MOL   H53823540   7.018   7.211   0.956  1.0853  0.3860 -0.1802
   32MOL   H53923541   7.075   7.066   1.029  1.4429  0.8369  0.2722
   32MOL   H54023542   7.243   7.228   0.926 -0.9227 -2.1386  0.6358
   32MOL   H54123543   7.236   7.316   1.076 -1.0284 -1.0560  2.3519
   32MOL   H54223544   7.331   7.026   1.032  0.1319  0.3588 -0.4077
   32MOL   H54323545   7.280   7.079   1.192  0.4382  0.2422  0.1545
   32MOL   H54423546   7.474   7.252   1.040  1.7900  0.2252 -0.6754
   32MOL   H54523547   7.532   7.108   1.112 -2.2788 -2.8563  0.6982
   32MOL   H54623548   7.466   7.150   1.330  1.8559 -1.7730 -1.3121
   32MOL   H54723549   7.367   7.290   1.281 -0.0670  0.8786 -1.5285
   32MOL   H54823550   7.574   7.395   1.211 -0.6977 -1.1435 -0.8898
   32MOL   H54923551   7.659   7.279   1.323  0.3649  0.5722 -1.8848
   32MOL   H55023552   7.511   7.365   1.506 -0.9288  0.4918  0.1260
   32MOL   H55123553   7.444   7.478   1.397 -0.8598 -1.9285  1.2783
   32MOL   H55223554   0.055   7.470   1.471 -0.0431  0.8093  3.8121
   32MOL   H55323555   7.636   7.566   1.555  0.6034 -1.2612  0.4252
   32MOL   H55423556   0.008   7.605   1.259 -1.6721 -3.4757  1.2192
   32MOL   H55523557   0.066   0.004   1.387  0.9993  0.4585 -1.8473
   32MOL   H55623558   7.461   7.689   1.328 -0.1044  0.1505 -0.1127
   32MOL   C55723559   7.546   0.157   1.395 -0.3868  0.1669 -0.4485
   32MOL   O55823560   7.642   0.221   1.431 -0.4562 -0.2457 -0.4249
   32MOL   C55923561   7.410   0.222   1.383  0.0444 -0.3066 -0.7632
   32MOL   C56023562   7.378   0.327   1.491 -0.7975 -0.7184  0.7176
   32MOL   C56123563   7.352   0.281   1.633  0.3771  0.1345  0.2458
   32MOL   C56223564   7.299   0.396   1.731  0.4778 -0.0929  0.4949
   32MOL   C56323565   7.253   0.342   1.867  0.1758  0.2408 -0.4169
   32MOL   C56423566   7.175   0.439   1.959  0.0185 -0.0401 -0.1228
   32MOL   C56523567   7.140   0.387   2.098 -0.2887  0.2759  0.4093
   32MOL   C56623568   7.079   0.497   2.191  0.3825 -1.0329 -0.3819
   32MOL   C56723569   7.059   0.436   2.337 -0.4091  0.4283  0.4724
   32MOL   C56823570   6.974   0.519   2.434  0.5577 -0.9839  0.5866
   32MOL   C56923571   6.826   0.488   2.394 -0.4248  0.1968  0.7049
   32MOL   N57023572   6.723   0.559   2.461 -0.1799  0.0500  0.0646
   32MOL   H57123573   7.331   0.148   1.394 -0.9588  0.6884 -1.1983
   32MOL   H57223574   7.401   0.265   1.283  0.2169  1.5647  0.0019
   32MOL   H57323575   7.466   0.392   1.495 -2.2195  1.3475 -0.3243
   32MOL   H57423576   7.294   0.389   1.460  2.1326  2.4575 -1.3438
   32MOL   H57523577   7.452   0.244   1.659 -0.0541 -2.1085 -1.1420
   32MOL   H57623578   7.281   0.199   1.632 -0.7114  0.9494  3.8241
   32MOL   H57723579   7.353   0.490   1.742 -0.5971  0.6775 -0.6589
   32MOL   H57823580   7.211   0.429   1.675  2.3017 -1.5316 -3.3792
   32MOL   H57923581   7.341   0.309   1.921  0.8437  1.6072 -0.6423
   32MOL   H58023582   7.184   0.258   1.854  0.1874  0.4048 -1.6806
   32MOL   H58123583   7.090   0.472   1.900  1.1060 -1.6959 -2.7578
   32MOL   H58223584   7.240   0.526   1.971 -0.6411  0.7726 -2.2297
   32MOL   H58323585   7.233   0.340   2.131  1.5095  4.1914  1.2141
   32MOL   H58423586   7.060   0.313   2.092 -0.4081  0.1232  3.0570
   32MOL   H58523587   6.983   0.533   2.153  0.4756 -0.2405  0.1300
   32MOL   H58623588   7.141   0.585   2.205 -3.2322  1.2505  1.9809
   32MOL   H58723589   7.162   0.429   2.372  0.1019  2.2052 -0.5941
   32MOL   H58823590   7.002   0.344   2.344 -2.8183  1.8794  0.6156
   32MOL   H58923591   7.003   0.624   2.425  1.9673 -1.4155 -0.0026
   32MOL   H59023592   6.994   0.496   2.539 -1.7039 -3.0310  0.5962
   32MOL   H59123593   6.804   0.385   2.421  0.6450 -0.3909 -0.6416
   32MOL   H59223594   6.807   0.488   2.287 -0.2961  1.7793  0.6699
   32MOL   H59323595   6.764   0.621   2.530 -0.4115  1.4850 -1.0471
   32MOL   C59423596   6.595   0.555   2.432  0.1066 -0.9099  0.2207
   32MOL   O59523597   6.556   0.480   2.345  0.0732  0.4309 -0.2729
   32MOL   C59623598   6.498   0.642   2.515  0.1121  0.3847 -0.3119
   32MOL   C59723599   6.349   0.626   2.469 -0.2125  0.2246  0.0917
   32MOL   C59823600   6.299   0.709   2.349 -0.0773 -0.0046  0.9096
   32MOL   C59923601   6.323   0.861   2.369 -0.4090  0.3016  0.6782
   32MOL   C60023602   6.277   0.947   2.246 -1.1769  0.2466  0.4568
   32MOL   C60123603   6.275   1.104   2.276 -0.1452  0.5506 -0.5706
   32MOL   C60223604   6.192   1.192   2.183 -0.1161  0.3732 -0.2076
   32MOL   C60323605   6.194   1.340   2.225  0.4949 -0.2106  0.3568
   32MOL   C60423606   6.101   1.430   2.131 -0.6434 -0.3074 -0.9915
   32MOL   C60523607   6.112   1.575   2.182 -0.0101  0.3516  0.1327
   32MOL   C60623608   5.996   1.668   2.142 -0.4259  0.0950 -0.3433
   32MOL   N60723609   5.988   1.670   1.995  0.0472 -0.3175  0.0732
   32MOL   H60823610   6.531   0.746   2.509 -0.4714  0.6024  0.1286
   32MOL   H60923611   6.505   0.603   2.616  1.2677 -0.7764 -0.8300
   32MOL   H61023612   6.326   0.523   2.443 -0.3495  0.1572  0.4866
   32MOL   H61123613   6.290   0.650   2.557 -0.2381  1.6191 -0.3012
   32MOL   H61223614   6.191   0.697   2.336 -0.0742 -0.5035  1.2934
   32MOL   H61323615   6.356   0.676   2.262 -2.6575  0.3351 -0.9680
   32MOL   H61423616   6.270   0.899   2.456 -1.0933  2.4066 -0.6169
   32MOL   H61523617   6.429   0.885   2.385 -0.0191 -0.6846 -0.3897
   32MOL   H61623618   6.189   0.904   2.199 -0.2761 -1.7334  0.5363
   32MOL   H61723619   6.350   0.926   2.167 -0.7920  1.9167  0.3599
   32MOL   H61823620   6.377   1.140   2.288  0.3247 -1.5609  2.5106
   32MOL   H61923621   6.233   1.122   2.375  0.1165 -1.4034 -0.0842
   32MOL   H62023622   6.094   1.144   2.186 -0.4864  1.2011  1.7611
   32MOL   H62123623   6.227   1.175   2.081  2.1520  0.4834  0.5319
   32MOL   H62223624   6.295   1.374   2.202  1.1592 -3.2951 -1.5567
   32MOL   H62323625   6.183   1.355   2.332  2.1017  0.5584  0.4285
   32MOL   H62423626   6.002   1.384   2.129 -0.8519  0.0825 -0.0755
   32MOL   H62523627   6.135   1.420   2.028 -0.9438  2.6230 -1.4253
   32MOL   H62623628   6.211   1.615   2.160 -0.3856  1.6497  0.8051
   32MOL   H62723629   6.108   1.570   2.290 -0.4675  2.6666  0.2489
   32MOL   H62823630   5.994   1.767   2.187  1.5514  0.5709 -1.2506
   32MOL   H62923631   5.900   1.634   2.181 -0.5100  1.7032  0.8779
   32MOL   H63023632   5.982   1.578   1.954 -1.9319 -0.5075  0.7691
   32MOL   C63123633   5.966   1.781   1.920  0.5003  0.5579 -0.0755
   32MOL   O63223634   5.994   1.893   1.961  0.5870 -0.0844  0.1464
   32MOL   C63323635   5.906   1.755   1.781  0.5713  0.2369  0.7418
   32MOL   C63423636   5.905   1.876   1.687 -0.3225  0.0190 -0.5822
   32MOL   C63523637   6.051   1.912   1.641 -0.7759  0.4955 -0.1782
   32MOL   C63623638   6.036   2.010   1.529  0.1194  0.0838  0.5435
   32MOL   C63723639   6.163   2.086   1.493 -0.5072 -0.7958 -0.5384
   32MOL   C63823640   6.274   2.006   1.423  0.4745  0.6171  0.3666
   32MOL   C63923641   6.370   1.921   1.504 -0.2146  0.0341 -0.5123
   32MOL   C64023642   6.432   1.821   1.416  0.2744 -0.3600 -0.1759
   32MOL   C64123643   6.546   1.747   1.485 -0.0217 -0.3652  0.2833
   32MOL   C64223644   6.649   1.678   1.403  0.1806 -0.4651  0.3860
   32MOL   C64323645   6.604   1.560   1.330 -0.6197  0.1837  0.3433
   32MOL   N64423646   6.706   1.518   1.231 -0.2129  0.5320 -0.6406
   32MOL   H64523647   5.803   1.730   1.806  0.0682  1.6343  0.0974
   32MOL   H64623648   5.956   1.674   1.729 -0.5411  1.2694 -2.0470
   32MOL   H64723649   5.838   1.853   1.605 -1.0181 -0.4503  0.1108
   32MOL   H64823650   5.855   1.964   1.727  0.4435  0.0756  0.2705
   32MOL   H64923651   6.104   1.826   1.600 -1.0522 -0.2098  0.9107
   32MOL   H65023652   6.103   1.957   1.725  1.3805  0.7378 -1.6301
   32MOL   H65123653   5.979   1.957   1.452  0.2257  3.9795 -2.3763
   32MOL   H65223654   5.980   2.099   1.557 -0.1933  0.3765 -0.9396
   32MOL   H65323655   6.218   2.137   1.572 -0.3952 -0.5264 -0.7892
   32MOL   H65423656   6.130   2.165   1.426  1.0631  0.2452 -0.1100
   32MOL   H65523657   6.343   2.077   1.376 -0.9378  2.3251  0.8414
   32MOL   H65623658   6.223   1.942   1.351 -2.1565  2.2178  0.7612
   32MOL   H65723659   6.309   1.874   1.581 -1.4120  0.5527 -1.1382
   32MOL   H65823660   6.449   1.985   1.543 -1.8031  0.5058  2.0374
   32MOL   H65923661   6.468   1.870   1.326 -0.1865  1.1721  0.4634
   32MOL   H66023662   6.349   1.755   1.391 -0.0785 -0.0338  0.1312
   32MOL   H66123663   6.495   1.682   1.556  1.5750 -2.0831 -0.0714
   32MOL   H66223664   6.607   1.826   1.529 -0.5874 -0.4960  1.3137
   32MOL   H66323665   6.744   1.649   1.448  1.0234  0.3546 -0.8071
   32MOL   H66423666   6.676   1.754   1.329 -0.4217 -1.8350 -1.2517
   32MOL   H66523667   6.510   1.568   1.276 -1.5775  1.2525  2.1362
   32MOL   H66623668   6.588   1.480   1.402  0.0560 -0.5707 -0.3336
   32MOL   H66723669   6.768   1.447   1.267  1.1900  1.6988 -0.7275
   32MOL   C66823670   6.734   1.570   1.109 -0.5141  0.8336  0.3687
   32MOL   O66923671   6.658   1.653   1.060 -0.0018  0.3281  0.5095
   32MOL   C67023672   6.867   1.520   1.051  0.5777  0.1679 -0.4221
   32MOL   C67123673   6.978   1.628   1.055 -0.0701  0.4953 -0.4915
   32MOL   C67223674   7.072   1.624   1.175 -0.0048  0.4875  0.6274
   32MOL   C67323675   7.019   1.684   1.301  0.0678 -0.6294 -0.2784
   32MOL   C67423676   7.135   1.696   1.400 -0.4345 -0.0406 -0.5210
   32MOL   C67523677   7.076   1.740   1.533 -0.2077  0.1774  0.7699
   32MOL   C67623678   7.176   1.768   1.645 -0.4618  0.6878 -0.6761
   32MOL   C67723679   7.118   1.854   1.756 -0.3300  0.1506 -0.9404
   32MOL   C67823680   7.209   1.873   1.884  0.1056 -0.0254 -0.3170
   32MOL   C67923681   7.139   1.968   1.987  0.3007  0.2298  0.0093
   32MOL   C68023682   7.227   1.976   2.111 -0.1299 -0.3831  0.2928
   32MOL   N68123683   7.195   2.091   2.190 -0.2189  0.1092 -0.1043
   32MOL   H68223684   6.855   1.490   0.947 -1.1790  0.3848 -0.3016
   32MOL   H68323685   6.888   1.428   1.106 -0.9376 -0.8333 -1.4771
   32MOL   H68423686   7.036   1.627   0.963 -0.1594 -0.4967 -0.5335
   32MOL   H68523687   6.938   1.728   1.037  1.7467  1.1293 -1.0354
   32MOL   H68623688   7.164   1.673   1.144 -1.1936  1.1802 -2.0090
   32MOL   H68723689   7.103   1.521   1.191 -0.0705  0.5369  1.0860
   32MOL   H68823690   6.979   1.784   1.285  1.4103  0.1166  0.8115
   32MOL   H68923691   6.946   1.612   1.337 -2.2265  1.9921  0.4021
   32MOL   H69023692   7.209   1.767   1.363 -0.8914  0.5703 -0.2726
   32MOL   H69123693   7.195   1.607   1.419 -3.1545 -1.4871  1.5996
   32MOL   H69223694   7.004   1.669   1.571 -0.5285 -0.2032 -0.5294
   32MOL   H69323695   7.006   1.824   1.525 -0.4236 -0.0074  0.7348
   32MOL   H69423696   7.258   1.827   1.603 -0.9016  1.9217  0.1594
   32MOL   H69523697   7.223   1.676   1.680  3.8318  2.2656 -1.8714
   32MOL   H69623698   7.017   1.815   1.769  0.1612 -0.6207  0.7062
   32MOL   H69723699   7.107   1.959   1.728  2.3520  1.0526  1.1592
   32MOL   H69823700   7.314   1.897   1.867 -0.0969  0.0910 -1.4204
   32MOL   H69923701   7.218   1.775   1.932 -0.4646  0.4969  0.8770
   32MOL   H70023702   7.043   1.921   2.007  0.5339 -1.6350 -2.9246
   32MOL   H70123703   7.123   2.068   1.946  1.9510  1.4870  2.2980
   32MOL   H70223704   7.331   2.002   2.088 -0.4582  0.6360 -0.0779
   32MOL   H70323705   7.223   1.888   2.175  2.9443 -0.3752  0.5823
   32MOL   H70423706   7.129   2.079   2.265  0.8620  1.4580  1.0936
   32MOL   C70523707   7.241   2.215   2.162  0.8219 -0.0023 -1.0253
   32MOL   O70623708   7.298   2.231   2.059  0.0586  0.2451 -0.8801
   32MOL   C70723709   7.203   2.332   2.254  0.1704  0.3989  0.0069
   32MOL   C70823710   7.196   2.462   2.180  0.2267  0.3070 -0.3006
   32MOL   C70923711   7.176   2.584   2.277  1.1542 -0.0540 -0.3684
   32MOL   C71023712   7.138   2.710   2.195  0.1770  0.5011  0.0332
   32MOL   C71123713   7.060   2.825   2.271  0.1165  0.1284  0.4836
   32MOL   C71223714   7.143   2.909   2.376 -0.0319  0.2099 -0.7281
   32MOL   C71323715   7.067   3.028   2.436  1.1437 -0.5987  0.6174
   32MOL   C71423716   7.118   3.076   2.573 -0.2905 -0.0058 -0.7558
   32MOL   C71523717   7.066   2.989   2.688  0.7843  0.7970 -0.0616
   32MOL   C71623718   7.085   3.051   2.827 -0.4324 -0.5077 -0.0785
   32MOL   C71723719   7.239   3.068   2.862  0.7033  0.9108  0.3216
   32MOL   N71823720   7.301   2.934   2.844 -0.0632  0.1182 -0.1861
   32MOL   H71923721   7.264   2.334   2.345 -0.9513 -0.3312  0.7880
   32MOL   H72023722   7.102   2.321   2.295 -0.5201 -0.5019 -1.9023
   32MOL   H72123723   7.283   2.474   2.116  0.6312 -0.6090  0.0792
   32MOL   H72223724   7.110   2.461   2.114 -0.5003  1.5119  0.5916
   32MOL   H72323725   7.266   2.608   2.334  0.8146  0.1307  0.1024
   32MOL   H72423726   7.091   2.564   2.343  0.8981  1.7493 -0.1248
   32MOL   H72523727   7.219   2.758   2.140  0.1676 -0.0103 -0.4356
   32MOL   H72623728   7.065   2.670   2.124  0.0947  0.4633  0.1390
   32MOL   H72723729   6.969   2.788   2.317 -1.0896  1.1264 -1.0424
   32MOL   H72823730   7.023   2.902   2.203  1.5453  2.1448  1.9000
   32MOL   H72923731   7.241   2.939   2.339 -0.3314  1.9993 -0.1040
   32MOL   H73023732   7.161   2.837   2.456 -0.9190 -0.0439 -0.7505
   32MOL   H73123733   6.958   3.027   2.433  1.1258 -0.4700  1.1710
   32MOL   H73223734   7.088   3.118   2.378 -0.2448 -0.5294  0.2138
   32MOL   H73323735   7.082   3.177   2.593 -0.2065  0.1171 -1.2111
   32MOL   H73423736   7.226   3.061   2.560  0.0477 -0.6610  2.4633
   32MOL   H73523737   7.104   2.887   2.701 -2.4455 -0.5761 -0.7467
   32MOL   H73623738   6.961   2.965   2.675  0.1314  3.4774  0.0175
   32MOL   H73723739   7.030   2.993   2.901 -0.5285  0.5186  0.6745
   32MOL   H73823740   7.049   3.154   2.830  1.4545  0.2580 -2.5082
   32MOL   H73923741   7.261   3.099   2.964  3.4166 -1.5597  0.5308
   32MOL   H74023742   7.292   3.139   2.798 -1.2314  0.4392 -1.8807
   32MOL   H74123743   7.302   2.899   2.749  2.3328 -1.2892  0.3313
   32MOL   H74223744   7.400   2.953   2.849  0.2583 -1.2655 -1.0066
   33MOL     C123745   3.152   7.380   2.057  0.1981  0.3022  0.0513
   33MOL     O223746   3.063   7.326   2.121  0.6288 -0.2374 -0.0748
   33MOL     C323747   3.240   7.488   2.120 -0.8612  0.0337 -0.1602
   33MOL     C423748   3.179   7.626   2.115  0.2426 -0.6318  0.3715
   33MOL     C523749   3.071   7.662   2.214  0.0636 -0.2022  0.0451
   33MOL     C623750   3.003   0.105   2.184 -0.4105  0.1988 -0.2498
   33MOL     C723751   2.902   0.151   2.292 -0.0653  0.1102 -0.0602
   33MOL     C823752   2.959   0.191   2.426  0.1218  0.2687  0.7077
   33MOL     C923753   2.856   0.174   2.535 -0.0737  0.0774 -0.2709
   33MOL    C1023754   2.737   0.270   2.531 -0.1129 -0.2061  0.4286
   33MOL    C1123755   2.767   0.413   2.575 -0.9767 -0.0804  0.4474
   33MOL    C1223756   2.651   0.510   2.567 -0.3790  0.4475 -0.3283
   33MOL    C1323757   2.699   0.643   2.625  0.0480 -0.4973 -0.1533
   33MOL    N1423758   2.596   0.742   2.615 -0.7584  0.2968 -0.4052
   33MOL    H1523759   3.334   7.477   2.066  1.3134  3.4062  2.6989
   33MOL    H1623760   3.265   7.463   2.223  0.0227  0.8098 -0.1804
   33MOL    H1723761   3.263   0.001   2.122 -1.0597  1.1662 -1.1952
   33MOL    H1823762   3.141   7.634   2.013 -1.3559 -2.3551  0.8162
   33MOL    H1923763   3.112   7.665   2.315 -1.6817 -0.3428  0.7745
   33MOL    H2023764   2.993   7.586   2.212  0.1534 -0.4705  3.5112
   33MOL    H2123765   3.077   0.185   2.179  0.1747 -0.1508  2.3733
   33MOL    H2223766   2.943   0.098   2.093  0.6387 -1.5393 -0.8403
   33MOL    H2323767   2.829   0.072   2.307 -2.6236  2.3651 -0.1663
   33MOL    H2423768   2.842   0.237   2.260 -2.1026 -0.3891  2.2746
   33MOL    H2523769   2.985   0.297   2.428  0.1189  0.2950 -0.7257
   33MOL    H2623770   3.056   0.151   2.457  0.8052  2.3909  1.4292
   33MOL    H2723771   2.891   0.181   2.638 -0.6736 -1.8931  0.0958
   33MOL    H2823772   2.808   0.076   2.523 -0.5369  0.3698 -0.8275
   33MOL    H2923773   2.664   0.220   2.595 -1.4389 -0.4523 -1.2191
   33MOL    H3023774   2.683   0.263   2.436  0.8459  0.3932 -0.1667
   33MOL    H3123775   2.848   0.457   2.517  0.0962 -3.2351 -0.5366
   33MOL    H3223776   2.813   0.406   2.674 -1.3307 -0.3420  0.5941
   33MOL    H3323777   2.566   0.467   2.621 -0.6805  0.4002 -0.8440
   33MOL    H3423778   2.629   0.513   2.461 -0.5987 -0.0852 -0.3012
   33MOL    H3523779   2.791   0.685   2.584 -1.3134  1.8431 -0.9105
   33MOL    H3623780   2.714   0.624   2.732  0.9093 -1.5043 -0.4538
   33MOL    H3723781   2.526   0.752   2.688  2.4613 -1.6996  3.1515
   33MOL    H3823782   3.165   7.359   1.951  1.9476 -0.4987  0.4058
   33MOL    C3923783   2.576   0.818   2.509  0.0507 -1.0112 -0.9253
   33MOL    O4023784   2.629   0.799   2.401 -0.5781  0.2303  0.2046
   33MOL    C4123785   2.471   0.927   2.528  0.2001  0.5097  0.0454
   33MOL    C4223786   2.370   0.957   2.420  0.0541  0.0798 -0.0780
   33MOL    C4323787   2.283   0.830   2.390 -0.1446  0.2917 -0.0792
   33MOL    C4423788   2.209   0.773   2.518 -0.2321  0.8374  0.0573
   33MOL    C4523789   2.091   0.861   2.563  0.6213 -0.2006  0.6954
   33MOL    C4623790   2.018   0.803   2.685  0.1549 -0.4177  0.1432
   33MOL    C4723791   1.911   0.898   2.733 -0.0502 -0.4936 -0.1379
   33MOL    C4823792   1.776   0.892   2.650  0.4099  0.1522 -0.4356
   33MOL    C4923793   1.704   1.019   2.685  0.2843 -0.6952 -0.4569
   33MOL    C5023794   1.568   1.024   2.611  0.3876 -0.2097  0.2527
   33MOL    C5123795   1.460   1.094   2.695 -0.1850 -0.9886 -0.4217
   33MOL    N5223796   1.333   1.084   2.632 -0.3594 -0.4291 -0.0483
   33MOL    H5323797   2.531   1.017   2.539 -0.6731  0.9735  1.0882
   33MOL    H5423798   2.414   0.916   2.620 -0.4811 -1.8488 -0.5959
   33MOL    H5523799   2.309   1.040   2.457  0.5261  0.3635  0.0558
   33MOL    H5623800   2.422   0.985   2.329 -0.2954 -0.7434 -0.5388
   33MOL    H5723801   2.331   0.757   2.325 -0.4430 -0.5912  0.6801
   33MOL    H5823802   2.205   0.863   2.321  0.3470 -2.1698 -1.9015
   33MOL    H5923803   2.162   0.678   2.493 -0.4613  0.0392  3.2248
   33MOL    H6023804   2.288   0.756   2.591  1.7672 -0.7941 -2.4000
   33MOL    H6123805   2.017   0.875   2.485  3.1959 -0.8281 -1.9632
   33MOL    H6223806   2.123   0.964   2.577 -0.2956  0.4517 -1.9507
   33MOL    H6323807   2.083   0.794   2.772  2.2174 -0.6420 -1.3914
   33MOL    H6423808   1.971   0.705   2.670 -3.1087  0.6598  2.5403
   33MOL    H6523809   1.956   0.997   2.732 -1.6966  0.2593 -0.8126
   33MOL    H6623810   1.895   0.877   2.839  1.9572 -4.6475 -0.5441
   33MOL    H6723811   1.723   0.809   2.697  1.5726 -1.7820 -2.4079
   33MOL    H6823812   1.780   0.879   2.542  0.9358 -0.1411 -0.3854
   33MOL    H6923813   1.761   1.109   2.663  1.3025 -0.9762  0.9325
   33MOL    H7023814   1.701   1.010   2.794 -1.7617 -0.0266 -0.4483
   33MOL    H7123815   1.545   0.919   2.596  2.8267 -0.9674  1.4854
   33MOL    H7223816   1.565   1.057   2.507  0.6748  1.6027  0.7957
   33MOL    H7323817   1.484   1.199   2.712 -1.7569 -0.6872 -0.0014
   33MOL    H7423818   1.451   1.050   2.794 -0.0014  0.2985  0.1733
   33MOL    H7523819   1.327   1.030   2.547  1.2439  1.5438 -1.4696
   33MOL    C7623820   1.215   1.126   2.683 -0.7532 -0.5231  0.9758
   33MOL    O7723821   1.200   1.187   2.788  0.1909  0.0732  0.8917
   33MOL    C7823822   1.096   1.104   2.590  1.0817 -0.4254  0.7524
   33MOL    C7923823   0.979   1.038   2.666 -1.0170 -0.9184  0.5071
   33MOL    C8023824   1.014   0.897   2.719  0.3945 -0.1157 -0.3441
   33MOL    C8123825   0.891   0.798   2.705  0.0943 -0.4180 -0.3694
   33MOL    C8223826   0.914   0.663   2.773 -0.0487 -0.1573  0.0762
   33MOL    C8323827   0.999   0.560   2.694 -0.0204  0.1016  0.0996
   33MOL    C8423828   0.984   0.415   2.749 -0.0524  0.0233  1.1582
   33MOL    C8523829   1.067   0.318   2.651  0.3888 -0.5610 -0.2386
   33MOL    C8623830   1.099   0.180   2.700 -0.6287 -0.1526 -0.2126
   33MOL    C8723831   1.169   0.089   2.591  0.1925  0.4903  0.8135
   33MOL    C8823832   1.189   7.633   2.640 -0.0360  0.1507  0.0134
   33MOL    N8923833   1.252   7.552   2.537 -0.1809  0.7720  0.4933
   33MOL    H9023834   1.121   1.042   2.505  0.3327 -1.5269  1.3260
   33MOL    H9123835   1.052   1.197   2.552 -0.1856 -1.0828  0.5720
   33MOL    H9223836   0.930   1.102   2.740 -1.0574 -0.5753  0.1845
   33MOL    H9323837   0.912   1.024   2.581 -1.4942  1.4426  0.4513
   33MOL    H9423838   1.044   0.893   2.823  0.5053 -1.5083 -0.4271
   33MOL    H9523839   1.103   0.862   2.668  0.4577 -1.1080  0.4405
   33MOL    H9623840   0.811   0.853   2.756  2.4263  0.8286  2.0670
   33MOL    H9723841   0.850   0.786   2.605 -1.2247 -0.6830  0.1896
   33MOL    H9823842   0.817   0.618   2.791 -0.1730 -0.3414 -0.9948
   33MOL    H9923843   0.965   0.673   2.868 -2.2222 -1.1116  1.3624
   33MOL   H10023844   1.105   0.586   2.692  0.5404 -2.1791 -1.9089
   33MOL   H10123845   0.965   0.564   2.590 -0.7345  0.8666  0.3565
   33MOL   H10223846   0.882   0.384   2.773  0.2127 -1.8077  0.0613
   33MOL   H10323847   1.035   0.413   2.845 -0.7496  0.4662  1.5384
   33MOL   H10423848   1.158   0.376   2.631  0.1880  0.6397  2.1726
   33MOL   H10523849   1.010   0.298   2.560  0.4139 -0.6779 -0.2290
   33MOL   H10623850   1.001   0.143   2.729 -1.2578  2.2355  0.8570
   33MOL   H10723851   1.166   0.190   2.786  0.6672  0.6531 -1.2890
   33MOL   H10823852   1.259   0.135   2.552 -0.3218  0.0663 -0.9304
   33MOL   H10923853   1.101   0.089   2.505  0.6398 -1.8109  0.4220
   33MOL   H11023854   1.090   7.589   2.654 -0.6948  1.0546 -1.6747
   33MOL   H11123855   1.245   7.631   2.733  0.1529  0.2583 -0.0961
   33MOL   H11223856   1.225   7.568   2.440  0.1822 -1.0315  0.0893
   33MOL   C11323857   1.363   7.486   2.565 -0.7674  0.2585 -0.3149
   33MOL   O11423858   1.392   7.460   2.682 -0.1047  0.2105 -0.4837
   33MOL   C11523859   1.444   7.436   2.447 -0.3830 -0.1322 -0.1281
   33MOL   C11623860   1.596   7.474   2.446  0.1774 -0.4630 -0.3883
   33MOL   C11723861   1.658   7.413   2.318 -0.6977 -0.7923  0.0015
   33MOL   C11823862   1.800   7.462   2.301  1.0127 -0.1615  0.1886
   33MOL   C11923863   1.857   7.421   2.168  0.3459 -0.3753 -0.2015
   33MOL   C12023864   2.011   7.447   2.172 -0.2172  0.4830 -0.0727
   33MOL   C12123865   2.074   7.425   2.034  0.3589  0.0395 -0.4625
   33MOL   C12223866   2.223   7.371   2.031  0.4431 -0.0596 -0.1253
   33MOL   C12323867   2.326   7.492   2.057 -0.5059  0.3223 -0.1865
   33MOL   C12423868   2.320   7.589   1.938  0.3939  0.1198 -0.5848
   33MOL   C12523869   2.441   7.682   1.938 -0.2752  0.3845 -0.4811
   33MOL   N12623870   2.467   0.049   2.064 -0.4939 -0.4965 -0.2700
   33MOL   H12723871   1.402   7.475   2.355  1.1560  1.8140 -0.0231
   33MOL   H12823872   1.438   7.327   2.449  2.1975 -0.2756  1.1351
   33MOL   H12923873   1.597   7.583   2.451  1.1788 -0.4268 -1.1811
   33MOL   H13023874   1.662   7.440   2.527  1.1325  0.2108 -0.8659
   33MOL   H13123875   1.598   7.435   2.230 -1.0724  1.4227  0.7968
   33MOL   H13223876   1.657   7.304   2.314  0.5426 -0.7599 -1.7460
   33MOL   H13323877   1.791   7.570   2.306  1.6665 -0.0828 -0.2322
   33MOL   H13423878   1.868   7.428   2.380  1.9904 -0.0775 -0.6016
   33MOL   H13523879   1.806   7.474   2.088 -0.4496  1.0794  1.2582
   33MOL   H13623880   1.848   7.315   2.143 -1.8597  0.3579 -2.7406
   33MOL   H13723881   2.056   7.382   2.246  3.1938  0.2035 -2.2550
   33MOL   H13823882   2.019   7.552   2.201  0.4040  1.0515 -2.2210
   33MOL   H13923883   2.078   7.525   1.991  2.2311 -1.1415 -3.2034
   33MOL   H14023884   2.008   7.363   1.973 -0.3394 -2.2558  2.5632
   33MOL   H14123885   2.243   7.327   1.933  1.1432  1.5353 -0.7210
   33MOL   H14223886   2.228   7.289   2.102  0.7144 -0.5302 -0.6780
   33MOL   H14323887   2.425   7.447   2.060  0.3935  2.2154 -0.1930
   33MOL   H14423888   2.319   7.548   2.150  1.1343 -0.6950  0.5704
   33MOL   H14523889   2.243   7.666   1.940 -2.6015 -2.7528  2.5076
   33MOL   H14623890   2.306   7.536   1.844 -0.4731  0.3759 -0.6093
   33MOL   H14723891   2.439   0.067   1.863  0.3855  1.7570  0.9354
   33MOL   H14823892   2.524   7.615   1.917 -0.7517  0.6621 -3.4458
   33MOL   H14923893   2.494   7.678   2.136 -1.2788  0.5520  0.9873
   33MOL   C15023894   2.452   0.174   2.101  0.1217 -0.2187  0.2720
   33MOL   O15123895   2.406   0.254   2.025  0.2602  0.5486  0.2310
   33MOL   C15223896   2.493   0.210   2.244  0.4482  0.7454  0.0124
   33MOL   C15323897   2.394   0.306   2.316  0.8114  0.1108  0.0205
   33MOL   C15423898   2.302   0.237   2.425 -0.1239  0.2903  0.5283
   33MOL   C15523899   2.184   0.159   2.365 -0.1346  0.0199 -0.0918
   33MOL   C15623900   2.083   0.113   2.474  0.1473 -0.3164  0.6518
   33MOL   C15723901   2.129   7.683   2.547 -0.2006 -0.2512 -0.4110
   33MOL   C15823902   2.056   7.655   2.679  0.8313 -0.1908  0.4514
   33MOL   C15923903   1.908   7.618   2.665  0.5452 -0.1442  0.4739
   33MOL   C16023904   1.835   7.601   2.803  0.2768  0.0547  0.1453
   33MOL   C16123905   1.686   7.581   2.770 -0.1639 -0.2747 -0.4918
   33MOL   C16223906   1.619   7.599   2.913 -0.1693 -0.1461  0.3952
   33MOL   N16323907   1.475   7.599   2.911  0.2790 -0.2011 -0.5235
   33MOL   H16423908   2.594   0.251   2.239  0.3570  1.0334  0.4774
   33MOL   H16523909   2.514   0.119   2.300 -0.7109 -0.2979 -1.2041
   33MOL   H16623910   2.452   0.374   2.379  3.0685 -2.5978  0.9746
   33MOL   H16723911   2.335   0.363   2.244  0.8534  1.9178  1.3798
   33MOL   H16823912   2.268   0.316   2.492  0.0476  0.7118  0.1195
   33MOL   H16923913   2.364   0.171   2.487  2.5893  2.3451  0.0860
   33MOL   H17023914   2.121   0.232   2.314 -1.5672  0.6299  2.4900
   33MOL   H17123915   2.204   0.086   2.286 -1.6063 -1.4279  0.8556
   33MOL   H17223916   1.982   0.106   2.434  1.1010 -2.8160 -1.4555
   33MOL   H17323917   2.084   0.197   2.543  0.0727  0.0277  0.2333
   33MOL   H17423918   2.233   7.687   2.580 -0.6605 -1.3322  1.2187
   33MOL   H17523919   2.112   7.595   2.485 -2.1179 -0.3096  0.1783
   33MOL   H17623920   2.059   0.055   2.734  2.1410  0.0520 -0.0109
   33MOL   H17723921   2.109   7.582   2.740  2.0917 -1.3815 -1.9797
   33MOL   H17823922   1.912   7.520   2.617 -2.2939 -0.8839  1.6204
   33MOL   H17923923   1.852   7.687   2.602  0.3144 -0.8280 -0.0671
   33MOL   H18023924   1.850   0.002   2.854  1.7585  0.2768 -0.6778
   33MOL   H18123925   1.872   7.516   2.860  2.4021  0.2801 -0.8629
   33MOL   H18223926   1.659   7.477   2.751  1.6399 -0.7329 -0.6620
   33MOL   H18323927   1.653   7.643   2.686  1.8966  1.6813  0.1099
   33MOL   H18423928   1.650   0.001   2.955 -0.4225 -0.8564  2.2796
   33MOL   H18523929   1.653   7.518   2.978  1.7585  0.8570  0.6638
   33MOL   H18623930   1.435   7.567   2.824 -1.2217 -0.6025  0.3003
   33MOL   C18723931   1.398   7.600   3.019 -0.1830 -0.2697 -0.3081
   33MOL   O18823932   1.433   7.621   3.136  0.1698  0.0874  0.1565
   33MOL   C18923933   1.253   7.564   2.994  0.4303 -0.1928 -0.0310
   33MOL   C19023934   1.166   7.532   3.117 -0.1573  0.2440 -0.1290
   33MOL   C19123935   1.105   7.651   3.198  0.5722  0.6469 -0.0069
   33MOL   C19223936   1.029   7.598   3.317  0.1661  0.3628 -0.2820
   33MOL   C19323937   0.957   0.014   3.396  0.0161 -0.0576  0.0677
   33MOL   C19423938   0.851   7.653   3.490 -0.4620  0.4284  0.3956
   33MOL   C19523939   0.785   0.061   3.587 -0.4378 -0.2019 -0.1046
   33MOL   C19623940   0.728   0.191   3.521 -0.4122  0.2688 -0.3279
   33MOL   C19723941   0.682   0.299   3.616 -0.0079  0.5157 -0.6510
   33MOL   C19823942   0.659   0.436   3.542  0.4258 -0.1885  0.3415
   33MOL   C19923943   0.620   0.559   3.632  0.1514 -0.3132  0.2572
   33MOL   N20023944   0.640   0.687   3.564 -0.8580  0.4038  0.1725
   33MOL   H20123945   1.241   7.480   2.926  2.8972 -0.8881  0.3576
   33MOL   H20223946   1.206   7.650   2.946  0.0934  0.9092  2.1848
   33MOL   H20323947   1.080   7.484   3.071  0.6263 -0.9959 -0.3484
   33MOL   H20423948   1.222   7.465   3.183  1.1222 -0.7777 -2.2144
   33MOL   H20523949   1.044   0.004   3.121  1.7850  1.5161 -0.4603
   33MOL   H20623950   1.189   0.018   3.231  1.4345 -0.0004 -0.9909
   33MOL   H20723951   0.946   7.538   3.281 -2.5310  3.4029  0.5968
   33MOL   H20823952   1.085   7.534   3.385  0.0005  1.7528  1.1806
   33MOL   H20923953   0.902   0.076   3.324  1.2241  0.8547 -0.0912
   33MOL   H21023954   1.025   0.071   3.460  0.0911 -0.7260  0.5842
   33MOL   H21123955   0.916   7.580   3.538 -0.3558 -0.3539 -0.9079
   33MOL   H21223956   0.777   7.592   3.439  0.5602 -1.2877  0.9017
   33MOL   H21323957   0.857   0.094   3.662  0.1841  1.0317 -1.2144
   33MOL   H21423958   0.705   0.019   3.648 -0.4909  0.3679  0.2215
   33MOL   H21523959   0.659   0.162   3.442 -1.3342  0.2994  0.4519
   33MOL   H21623960   0.805   0.242   3.464  0.7077 -0.6856  0.3212
   33MOL   H21723961   0.767   0.322   3.681 -1.2176  1.2625  0.7038
   33MOL   H21823962   0.594   0.266   3.672 -0.3713  1.2601 -0.7740
   33MOL   H21923963   0.584   0.414   3.466  2.2780 -1.1714 -1.2261
   33MOL   H22023964   0.750   0.464   3.491 -0.2131  1.8486  0.2411
   33MOL   H22123965   0.683   0.561   3.721  1.4588 -2.6803 -0.5982
   33MOL   H22223966   0.515   0.558   3.664  0.8926 -2.6433  2.7943
   33MOL   H22323967   0.715   0.742   3.603 -1.1083  0.5057  0.5149
   33MOL   C22423968   0.567   0.727   3.457 -0.3987 -0.1643  0.5468
   33MOL   O22523969   0.480   0.664   3.403 -0.1447  0.2336 -0.0521
   33MOL   C22623970   0.604   0.848   3.376 -0.1154  0.0598 -0.1476
   33MOL   C22723971   0.658   0.814   3.240  0.1040 -0.3022  0.0100
   33MOL   C22823972   0.803   0.817   3.246  0.3718 -0.4290 -0.3715
   33MOL   C22923973   0.870   0.816   3.109  0.5874 -0.3409  0.4053
   33MOL   C23023974   1.023   0.792   3.113 -0.3958 -0.3366  0.9458
   33MOL   C23123975   1.105   0.929   3.145 -0.4771  0.4289 -0.3239
   33MOL   C23223976   1.256   0.906   3.156  0.0674 -0.1286 -0.7951
   33MOL   C23323977   1.293   0.826   3.282 -0.0772  0.4627 -0.7798
   33MOL   C23423978   1.446   0.793   3.307 -0.2757  0.8542  0.1571
   33MOL   C23523979   1.459   0.678   3.405 -0.4365 -0.3014  0.5055
   33MOL   C23623980   1.608   0.657   3.454 -0.1839 -0.1169 -0.3149
   33MOL   N23723981   1.616   0.532   3.535 -0.1686  0.1930 -0.3287
   33MOL   H23823982   0.660   0.925   3.429 -0.3094  0.3833 -0.4028
   33MOL   H23923983   0.505   0.891   3.358  0.0429  0.5166  0.0552
   33MOL   H24023984   0.613   0.724   3.197 -0.4284 -0.3501  0.6594
   33MOL   H24123985   0.628   0.892   3.170 -2.0111  0.6584  1.9646
   33MOL   H24223986   0.830   0.722   3.292 -0.1975  0.1652  1.2137
   33MOL   H24323987   0.837   0.897   3.312 -0.2437 -0.2247 -0.3027
   33MOL   H24423988   0.820   0.739   3.051 -1.0673  1.0344 -0.0426
   33MOL   H24523989   0.844   0.902   3.047 -2.3764  0.7853  3.0507
   33MOL   H24623990   1.072   0.768   3.018  2.1509 -0.8838  2.3727
   33MOL   H24723991   1.043   0.711   3.182  0.8708 -0.4386  0.4707
   33MOL   H24823992   1.074   0.974   3.240  2.4524 -0.9199  1.3653
   33MOL   H24923993   1.078   1.004   3.071  0.3558 -1.1880 -2.2887
   33MOL   H25023994   1.294   1.008   3.165 -0.0392 -0.1823  0.3122
   33MOL   H25123995   1.300   0.861   3.066 -1.4766  2.0268 -2.6823
   33MOL   H25223996   1.239   0.731   3.284 -0.4563  0.6885  1.8835
   33MOL   H25323997   1.254   0.870   3.374  2.8258  0.6981  0.3894
   33MOL   H25423998   1.478   0.888   3.349  2.0416  0.3681 -0.4794
   33MOL   H25523999   1.485   0.765   3.209 -1.8722  0.9665 -0.5392
   33MOL   H25624000   1.431   0.590   3.346  0.1829 -1.5571  2.0659
   33MOL   H25724001   1.389   0.680   3.489 -0.1344 -3.7186  0.9304
   33MOL   H25824002   1.649   0.747   3.498 -1.4592  1.6105 -2.5445
   33MOL   H25924003   1.675   0.646   3.369  1.1544  0.9096  0.5845
   33MOL   H26024004   1.647   0.444   3.496 -0.8960  0.1742 -0.8815
   33MOL   C26124005   1.601   0.530   3.665  0.2801  0.5680 -0.0883
   33MOL   O26224006   1.577   0.634   3.729 -0.6020  0.3237 -0.5151
   33MOL   C26324007   1.630   0.404   3.740 -0.5060  0.5189 -0.2147
   33MOL   C26424008   1.594   0.407   3.892  0.3224 -0.4075 -0.0365
   33MOL   C26524009   1.437   0.431   3.899 -0.1688 -0.0498 -0.0914
   33MOL   C26624010   1.363   0.410   4.038 -0.0395  0.5877  0.5557
   33MOL   C26724011   1.214   0.448   4.036  0.1290  0.0413 -0.4985
   33MOL   C26824012   1.178   0.586   3.985  0.2993 -1.0914  0.3749
   33MOL   C26924013   1.038   0.637   4.028 -0.5917  0.0313  1.0931
   33MOL   C27024014   1.006   0.776   3.970  0.3980  0.0209  0.3648
   33MOL   C27124015   0.858   0.808   3.983 -0.4480 -0.1334  0.1797
   33MOL   C27224016   0.800   0.849   4.124 -0.4998  0.2899 -0.0869
   33MOL   C27324017   0.656   0.893   4.114  0.6010  0.0247 -0.4640
   33MOL   N27424018   0.612   0.935   4.245 -0.0218  0.6845 -0.5730
   33MOL   H27524019   1.735   0.375   3.732 -0.7733 -0.9432  1.1594
   33MOL   H27624020   1.568   0.323   3.703 -1.1457 -1.0466  4.0022
   33MOL   H27724021   1.614   0.308   3.933  1.4359 -0.0425  0.3147
   33MOL   H27824022   1.659   0.481   3.938 -0.1543 -1.2389  2.0379
   33MOL   H27924023   1.404   0.351   3.833  3.1688 -1.8738  0.3260
   33MOL   H28024024   1.407   0.524   3.850 -1.3008 -0.0312  0.6219
   33MOL   H28124025   1.380   0.305   4.063 -1.6011  0.5934  1.6839
   33MOL   H28224026   1.419   0.473   4.108 -1.8754  2.1899  0.6233
   33MOL   H28324027   1.188   0.425   4.139  0.6524 -1.9555 -0.7778
   33MOL   H28424028   1.157   0.376   3.977 -0.9202  1.0695 -0.7572
   33MOL   H28524029   1.188   0.579   3.877 -1.7206  4.1148 -0.2806
   33MOL   H28624030   1.247   0.667   4.010 -0.1661 -0.2662 -0.9854
   33MOL   H28724031   1.040   0.652   4.136  1.3662  1.9470  0.8433
   33MOL   H28824032   0.958   0.567   4.007 -0.6229 -0.2186  2.0332
   33MOL   H28924033   1.035   0.776   3.865  0.2455  0.8073  0.3160
   33MOL   H29024034   1.064   0.844   4.032  0.7758 -1.0146  1.1607
   33MOL   H29124035   0.799   0.724   3.947  1.3398 -1.5113  0.4332
   33MOL   H29224036   0.841   0.887   3.909  0.4131  2.1620  2.3562
   33MOL   H29324037   0.869   0.925   4.160  1.1232  1.0789 -4.5680
   33MOL   H29424038   0.802   0.765   4.193 -0.4584 -0.5235 -1.0601
   33MOL   H29524039   0.592   0.812   4.079  2.5120 -2.0927  0.7976
   33MOL   H29624040   0.632   0.976   4.047  3.0787  1.7355  0.6473
   33MOL   H29724041   0.612   1.034   4.262  2.2044  0.9184 -1.7547
   33MOL   C29824042   0.560   0.854   4.337 -0.2534  0.0417 -0.8277
   33MOL   O29924043   0.577   0.730   4.338  0.1458 -0.1078  0.2147
   33MOL   C30024044   0.468   0.928   4.438 -0.0678 -0.1604 -0.0325
   33MOL   C30124045   0.336   0.954   4.364 -0.6247  0.1675 -0.5263
   33MOL   C30224046   0.222   1.020   4.431 -0.4055 -0.0810  0.2989
   33MOL   C30324047   0.158   0.926   4.537 -0.0395 -0.5812 -0.3867
   33MOL   C30424048   0.045   0.998   4.616  0.2393 -0.3853  0.5407
   33MOL   C30524049   7.683   0.912   4.728  0.2745  0.0612  0.0694
   33MOL   C30624050   7.600   0.785   4.688 -0.4658 -0.0421  0.5409
   33MOL   C30724051   7.606   0.678   4.799 -0.3578  0.6943  0.4058
   33MOL   C30824052   7.549   0.540   4.778 -0.2643  0.3079  0.1556
   33MOL   C30924053   7.507   0.466   4.906  0.4753 -0.2495 -0.0933
   33MOL   C31024054   7.624   0.412   4.995  0.7725 -0.4914  0.0935
   33MOL   N31124055   7.577   0.332   5.108  0.0822 -0.1170 -0.9600
   33MOL   H31224056   0.519   1.020   4.469 -1.2970 -0.0351  1.6807
   33MOL   H31324057   0.461   0.881   4.536 -0.4174 -0.8807 -0.3999
   33MOL   H31424058   0.356   1.018   4.278 -1.2048  1.4123  0.2599
   33MOL   H31524059   0.303   0.863   4.313 -0.3597  0.8908 -2.0095
   33MOL   H31624060   0.137   1.052   4.371  0.3158  1.5500  0.1318
   33MOL   H31724061   0.261   1.115   4.467  1.2568 -1.2862  1.7954
   33MOL   H31824062   0.128   0.831   4.493  1.0507  0.3200 -3.1898
   33MOL   H31924063   0.230   0.895   4.613  0.4768 -1.4129 -1.2065
   33MOL   H32024064   7.667   1.024   4.537  0.2880 -1.0142  0.2856
   33MOL   H32124065   0.074   1.098   4.649  0.0808 -0.0773 -0.2397
   33MOL   H32224066   7.634   0.980   4.798 -1.3214  0.4349 -1.3602
   33MOL   H32324067   0.079   0.875   4.777  0.3077 -1.1779 -0.8768
   33MOL   H32424068   7.627   0.744   4.591 -1.0660  0.1749  0.2784
   33MOL   H32524069   7.495   0.811   4.674  0.0174  1.7566  0.1210
   33MOL   H32624070   7.553   0.728   4.880 -3.4636  0.4113 -1.3788
   33MOL   H32724071   0.013   0.654   4.835  0.4840  0.4542 -2.0198
   33MOL   H32824072   7.611   0.481   4.711 -2.8200  1.0381 -2.9741
   33MOL   H32924073   7.461   0.549   4.714 -0.3592  0.6400  0.3312
   33MOL   H33024074   7.436   0.389   4.876 -1.8138  1.3185  1.1749
   33MOL   H33124075   7.446   0.533   4.967  2.0622 -0.3022  1.5973
   33MOL   H33224076   7.681   0.499   5.027  1.1631 -1.1525  1.2665
   33MOL   H33324077   0.002   0.352   4.938  0.0079 -2.3524  1.0307
   33MOL   H33424078   7.556   0.377   5.196  0.0109 -1.1753 -0.4275
   33MOL   C33524079   7.586   0.200   5.104  0.0896 -0.0320 -0.1305
   33MOL   O33624080   7.617   0.138   5.002 -0.1068  0.0073  0.5720
   33MOL   C33724081   7.549   0.124   5.238 -0.0172 -0.1190 -0.6241
   33MOL   C33824082   7.594   7.670   5.236  0.5514  0.3828 -0.7358
   33MOL   C33924083   0.052   7.645   5.242 -0.4056  0.1313  0.1815
   33MOL   C34024084   0.125   0.015   5.358  0.0518  0.1566  0.1206
   33MOL   C34124085   0.066   7.668   5.496  0.3668 -0.6880 -0.1294
   33MOL   C34224086   0.136   0.041   5.616  0.0461  0.5712  0.5862
   33MOL   C34324087   0.076   7.688   5.754 -0.3579  1.0233 -0.4232
   33MOL   C34424088   0.100   0.091   5.867  0.0232  0.0143 -0.3562
   33MOL   C34524089   0.073   0.037   6.004  0.2071  0.6292 -0.1904
   33MOL   C34624090   7.618   0.019   6.026 -0.2215 -0.4201  0.0558
   33MOL   C34724091   7.580   7.666   6.164  0.3615 -0.4694 -0.3375
   33MOL   N34824092   7.658   7.557   6.211  0.1840 -0.9470 -0.3527
   33MOL   H34924093   7.442   0.143   5.249 -0.0034  0.3990 -1.3272
   33MOL   H35024094   7.593   0.183   5.319 -1.3855 -2.5183  1.9833
   33MOL   H35124095   7.546   7.616   5.317  0.6967 -1.4493 -1.8385
   33MOL   H35224096   7.559   7.627   5.142  0.6009  0.0879 -0.6183
   33MOL   H35324097   0.095   7.677   5.147  0.3844  0.5753  0.6955
   33MOL   H35424098   0.066   7.537   5.235 -1.6592 -0.0290  0.0216
   33MOL   H35524099   0.229   7.677   5.355  0.7720  2.4633  0.1392
   33MOL   H35624100   0.116   0.122   5.342  0.9026  0.2600  0.3362
   33MOL   H35724101   0.066   7.560   5.510 -1.3021 -0.6380  0.3739
   33MOL   H35824102   7.658   0.014   5.502  0.7279  0.0360  1.3343
   33MOL   H35924103   0.120   0.147   5.598  1.3234  0.7907  0.6688
   33MOL   H36024104   0.241   0.012   5.606  0.1902  0.5817  1.8705
   33MOL   H36124105   0.101   7.588   5.787  0.5126  1.5962  0.7072
   33MOL   H36224106   7.662   7.679   5.741 -0.5382 -2.6155  2.5410
   33MOL   H36324107   0.047   0.183   5.842 -0.7206 -0.8309 -1.9245
   33MOL   H36424108   0.196   0.141   5.852  0.3156 -1.2003 -2.6717
   33MOL   H36524109   0.113   0.107   6.078  3.6576  1.6620 -2.9123
   33MOL   H36624110   0.129   7.642   6.032 -0.3253  0.3111 -0.1296
   33MOL   H36724111   7.585   7.642   5.950  0.9740  2.1958 -3.0227
   33MOL   H36824112   7.567   0.109   5.992 -0.8439  0.3622  2.9678
   33MOL   H36924113   7.474   7.640   6.163  0.6168 -1.8241  2.5159
   33MOL   H37024114   7.591   0.052   6.239 -1.6464  1.3074 -1.8671
   33MOL   H37124115   0.036   7.578   6.278 -0.4647 -0.1938  0.1136
   33MOL   C37224116   7.647   7.431   6.166  0.9611 -0.5013 -0.3221
   33MOL   O37324117   7.548   7.396   6.099 -0.6738  0.0467  0.0894
   33MOL   C37424118   0.066   7.333   6.200  0.0717 -0.5098 -0.2270
   33MOL   C37524119   0.033   7.185   6.167  0.2562  0.7551  0.2143
   33MOL   C37624120   7.628   7.139   6.268  0.2548 -0.4278 -0.5905
   33MOL   C37724121   7.552   7.020   6.234 -0.7795 -0.5218  0.0589
   33MOL   C37824122   7.444   7.053   6.123  0.4112  0.2645  0.5480
   33MOL   C37924123   7.359   6.929   6.094  0.6371 -0.1955 -0.4321
   33MOL   C38024124   7.244   6.959   5.992 -0.0573 -0.2948 -0.1048
   33MOL   C38124125   7.149   6.835   5.974 -0.2374  0.5300 -0.1561
   33MOL   C38224126   7.022   6.844   5.887  0.1764 -0.6911  0.7764
   33MOL   C38324127   6.931   6.721   5.876  0.4722  0.2916  0.4997
   33MOL   C38424128   6.794   6.746   5.816  0.3124  0.5820  0.8202
   33MOL   N38524129   6.805   6.789   5.676  0.0811  0.2509  0.1426
   33MOL   H38624130   0.079   7.349   6.308 -0.9983  1.6967 -0.3919
   33MOL   H38724131   0.165   7.360   6.164  1.2123 -0.8482  2.4657
   33MOL   H38824132   7.681   7.179   6.069  0.4784  0.9362  0.0981
   33MOL   H38924133   0.126   7.128   6.166 -0.2199 -0.0407  0.9449
   33MOL   H39024134   7.554   7.211   6.304  0.4116 -1.0043  0.9286
   33MOL   H39124135   7.674   7.120   6.365 -3.0568  2.3738  1.6756
   33MOL   H39224136   7.620   6.945   6.193  0.0142  1.1704 -1.8467
   33MOL   H39324137   7.513   6.973   6.324 -2.1574  1.4117  0.4978
   33MOL   H39424138   7.497   7.096   6.038  1.1625  0.3244  1.0365
   33MOL   H39524139   7.383   7.129   6.174 -0.4771  0.1778 -0.3749
   33MOL   H39624140   7.318   6.888   6.186 -0.7445 -0.3131 -1.0985
   33MOL   H39724141   7.431   6.852   6.065  0.7824 -0.3601  0.3666
   33MOL   H39824142   7.278   6.998   5.896  2.7099 -0.0849  0.9072
   33MOL   H39924143   7.178   7.034   6.036 -0.2831 -0.4432 -0.1911
   33MOL   H40024144   7.119   6.799   6.073  0.3347 -0.6883 -0.4018
   33MOL   H40124145   7.205   6.745   5.946 -1.1208  0.4937 -1.8271
   33MOL   H40224146   7.057   6.880   5.791  0.1192  0.6917  1.2621
   33MOL   H40324147   6.962   6.930   5.915  1.3667 -0.0776  1.5126
   33MOL   H40424148   6.910   6.678   5.974 -2.3330 -0.2024 -0.2612
   33MOL   H40524149   6.982   6.642   5.820  1.8817 -0.0993  2.2937
   33MOL   H40624150   6.734   6.817   5.873 -1.4717  1.0413 -1.5520
   33MOL   H40724151   6.734   6.655   5.827  0.2568  0.3659 -1.0683
   33MOL   H40824152   6.846   6.880   5.664  1.2681 -0.2210  0.6092
   33MOL   C40924153   6.775   6.712   5.570 -0.7389 -0.2704 -0.5197
   33MOL   O41024154   6.731   6.603   5.589  0.2285  0.2303  0.4694
   33MOL   C41124155   6.791   6.774   5.436  0.1074  0.3156  0.3302
   33MOL   C41224156   6.658   6.764   5.351 -0.1668  0.4566 -0.1445
   33MOL   C41324157   6.540   6.859   5.404 -0.1338  0.6794 -1.2177
   33MOL   C41424158   6.426   6.879   5.302  0.8577  0.3465 -0.2706
   33MOL   C41524159   6.291   6.947   5.354  0.1909  0.5065  0.7750
   33MOL   C41624160   6.208   7.009   5.243 -0.1629  0.4772 -0.7860
   33MOL   C41724161   6.072   7.072   5.290  0.3822  0.5215 -0.0933
   33MOL   C41824162   6.008   7.150   5.178  0.3093 -0.1627  0.3325
   33MOL   C41924163   5.868   7.196   5.198  0.0459 -0.0422 -0.0267
   33MOL   C42024164   5.792   7.231   5.065 -0.3884 -0.4282 -0.6867
   33MOL   C42124165   5.640   7.253   5.071 -1.3511  0.8033 -0.3725
   33MOL   N42224166   5.608   7.357   5.168  0.0312  0.3201 -0.0016
   33MOL   H42324167   6.872   6.720   5.387  0.2108  1.2261 -0.5220
   33MOL   H42424168   6.825   6.877   5.441 -0.6388  0.5472  0.6089
   33MOL   H42524169   6.690   6.795   5.252  0.5847  1.3794  0.3718
   33MOL   H42624170   6.619   6.662   5.343  3.0896 -0.8589 -0.3710
   33MOL   H42724171   6.586   6.955   5.425 -0.1048 -0.2354  3.2563
   33MOL   H42824172   6.509   6.811   5.497 -1.6361 -0.5970 -2.3497
   33MOL   H42924173   6.471   6.931   5.218  1.8097  0.3039  0.2116
   33MOL   H43024174   6.394   6.788   5.252  0.9290  1.0703 -1.6391
   33MOL   H43124175   6.321   7.027   5.421 -0.6613  1.9199 -0.5097
   33MOL   H43224176   6.225   6.876   5.403 -1.2289  0.8742 -0.5563
   33MOL   H43324177   6.190   6.930   5.170 -1.2213 -0.2579  0.2441
   33MOL   H43424178   6.282   7.084   5.214 -2.6575  3.1161 -0.6401
   33MOL   H43524179   6.093   7.144   5.370  1.3302  0.8880 -0.6673
   33MOL   H43624180   6.012   6.996   5.339  0.6884 -1.8343 -3.2333
   33MOL   H43724181   6.014   7.102   5.080  4.1971 -1.5052  1.1645
   33MOL   H43824182   6.062   7.241   5.152  0.4467 -0.4046 -0.2518
   33MOL   H43924183   5.873   7.279   5.268  1.2622 -1.1676  1.2444
   33MOL   H44024184   5.808   7.113   5.236 -0.0536  0.1735  0.2818
   33MOL   H44124185   5.804   7.150   4.993  0.4899  0.5905 -1.6846
   33MOL   H44224186   5.847   7.314   5.021 -0.0459 -0.5416 -0.4783
   33MOL   H44324187   5.596   7.160   5.106  1.6675  0.1572  1.9495
   33MOL   H44424188   5.608   7.280   4.970  0.6804  1.1700 -0.9479
   33MOL   H44524189   5.682   7.420   5.196 -0.4377  1.3065 -0.9539
   33MOL   C44624190   5.490   7.384   5.209  0.1633  0.7190 -0.9371
   33MOL   O44724191   5.389   7.323   5.178 -0.2017  0.2898 -0.2313
   33MOL   C44824192   5.471   7.501   5.309 -0.0420 -0.1532  0.2307
   33MOL   C44924193   5.409   7.619   5.237  0.3638  0.5408  0.6321
   33MOL   C45024194   5.343   0.020   5.341 -0.1958 -0.7915 -0.2435
   33MOL   C45124195   5.222   7.672   5.429  0.2665  0.3802 -0.2937
   33MOL   C45224196   5.202   0.055   5.562 -0.0633 -0.3111 -0.2798
   33MOL   C45324197   5.157   0.200   5.549 -0.2499  0.2105 -0.7376
   33MOL   C45424198   5.094   0.255   5.683 -0.0746 -0.4611 -0.6344
   33MOL   C45524199   5.038   0.393   5.652  0.7665  0.8424 -0.0546
   33MOL   C45624200   4.974   0.478   5.766 -0.1564 -0.8804 -0.1606
   33MOL   C45724201   4.970   0.634   5.735  0.3155  0.3217  0.1602
   33MOL   C45824202   4.856   0.683   5.648 -0.3625  0.1860 -0.4160
   33MOL   N45924203   4.831   0.598   5.530 -0.5358  0.3809  0.3107
   33MOL   H46024204   5.561   7.524   5.365  1.0971 -1.6178 -0.9348
   33MOL   H46124205   5.414   7.459   5.392 -1.5188  1.8619  0.2692
   33MOL   H46224206   5.481   7.674   5.177  0.2086 -1.0719 -1.0422
   33MOL   H46324207   5.336   7.585   5.164  0.3915 -0.0811  0.8894
   33MOL   H46424208   5.323   0.117   5.296  1.2562 -0.8819 -1.0976
   33MOL   H46524209   5.425   0.042   5.408  0.0987 -0.6718 -0.6444
   33MOL   H46624210   5.129   7.669   5.373  0.7856  0.2608 -1.1481
   33MOL   H46724211   5.236   7.568   5.459  0.7121  0.5294  0.0440
   33MOL   H46824212   5.297   0.042   5.615 -0.2172  0.3204  0.1595
   33MOL   H46924213   5.126   0.013   5.628  0.6333  1.9820  2.0858
   33MOL   H47024214   5.085   0.214   5.468  0.3987  2.2442 -0.9988
   33MOL   H47124215   5.252   0.248   5.522  0.2347 -1.4827 -2.1254
   33MOL   H47224216   5.172   0.259   5.759 -0.5196 -3.2016  0.0176
   33MOL   H47324217   5.020   0.181   5.711  0.8428 -1.0446  0.2878
   33MOL   H47424218   4.963   0.384   5.574  0.2643 -0.4279  0.5524
   33MOL   H47524219   5.116   0.452   5.605  0.0245  1.8491 -0.0319
   33MOL   H47624220   5.035   0.474   5.856  0.6193 -0.3385 -0.6575
   33MOL   H47724221   4.871   0.445   5.783 -0.2813 -0.4712 -0.1060
   33MOL   H47824222   5.063   0.678   5.700  0.4473  0.5529  0.7922
   33MOL   H47924223   4.956   0.694   5.825  0.2502 -0.5024  0.7079
   33MOL   H48024224   4.867   0.788   5.620  3.2081 -0.2003 -0.7265
   33MOL   H48124225   4.768   0.678   5.713 -0.2574  1.2136 -0.1866
   33MOL   H48224226   4.903   0.589   5.460 -0.7294  0.0224  0.1547
   33MOL   C48324227   4.732   0.512   5.516 -0.0890  0.3671  0.7282
   33MOL   O48424228   4.645   0.490   5.606 -0.0797 -0.4883 -0.2980
   33MOL   C48524229   4.724   0.433   5.383 -0.1519  0.0865  0.0823
   33MOL   C48624230   4.666   0.297   5.391  0.2337 -0.7614  0.2277
   33MOL   C48724231   4.761   0.202   5.476 -0.5516  0.2158 -0.7228
   33MOL   C48824232   4.724   0.050   5.459  0.2623  0.5292  0.6416
   33MOL   C48924233   4.832   7.659   5.515 -0.6008  0.1012  0.4713
   33MOL   C49024234   4.806   7.507   5.494  0.1205  0.1621  0.1019
   33MOL   C49124235   4.916   7.415   5.559  0.1479 -0.3159  0.5189
   33MOL   C49224236   4.874   7.264   5.583  0.2649  0.0239 -0.2642
   33MOL   C49324237   4.986   7.179   5.644 -0.0350 -0.5951 -0.1639
   33MOL   C49424238   5.079   7.118   5.538 -0.5543 -0.0622  0.6640
   33MOL   C49524239   5.169   7.224   5.475  0.3487 -0.1027  0.5593
   33MOL   N49624240   5.270   7.163   5.391 -0.0525  0.3331 -1.1731
   33MOL   H49724241   4.820   0.416   5.334 -0.1299 -1.5364  0.6533
   33MOL   H49824242   4.668   0.491   5.310 -0.3053  1.6436  1.4104
   33MOL   H49924243   4.565   0.299   5.433  0.5589 -1.2533  1.0321
   33MOL   H50024244   4.642   0.258   5.292  1.1595 -0.2174 -0.2090
   33MOL   H50124245   4.741   0.238   5.577  2.6347  0.9232 -0.2939
   33MOL   H50224246   4.860   0.224   5.437 -0.7418 -0.4704 -1.6323
   33MOL   H50324247   4.625   0.030   5.500  0.1007 -2.4804 -1.1095
   33MOL   H50424248   4.706   0.032   5.354  1.0063 -1.3585  0.8186
   33MOL   H50524249   4.854   7.693   5.616 -0.7539  2.7416 -0.3464
   33MOL   H50624250   4.927   7.685   5.469 -0.0483 -1.2954  0.7852
   33MOL   H50724251   4.782   7.491   5.389  0.5939  0.5934 -0.0765
   33MOL   H50824252   4.710   7.491   5.544 -1.0772  2.7908 -1.2202
   33MOL   H50924253   4.952   7.457   5.653 -2.0137 -2.1044  2.1964
   33MOL   H51024254   5.001   7.430   5.492 -0.5093  1.5333  0.0704
   33MOL   H51124255   4.834   7.234   5.486  0.7134  0.5740 -0.6271
   33MOL   H51224256   4.786   7.271   5.646  1.0746 -2.5876  1.2187
   33MOL   H51324257   4.946   7.088   5.689 -0.9710 -0.8205 -1.4180
   33MOL   H51424258   5.034   7.221   5.733  1.1665 -0.9469 -0.6356
   33MOL   H51524259   5.010   7.086   5.459 -0.7512  1.6056  0.1375
   33MOL   H51624260   5.137   7.037   5.582 -0.3082  0.2407  0.8931
   33MOL   H51724261   5.198   7.293   5.554 -2.3249  0.7357  0.8630
   33MOL   H51824262   5.112   7.289   5.408 -0.4230  0.0325  1.3297
   33MOL   H51924263   5.277   7.187   5.293 -2.4087  3.0570 -0.7484
   33MOL   C52024264   5.347   7.063   5.434 -0.7131 -0.1019  0.6996
   33MOL   O52124265   5.366   7.044   5.552  0.3619 -0.3034  0.1939
   33MOL   C52224266   5.405   6.964   5.325 -0.0446 -0.0600  0.0889
   33MOL   C52324267   5.558   6.953   5.343  0.8617  0.0291 -0.3983
   33MOL   C52424268   5.602   6.813   5.399 -0.8169  0.3025 -0.2781
   33MOL   C52524269   5.755   6.827   5.434 -0.2990  0.5305  0.2167
   33MOL   C52624270   5.822   6.697   5.481  0.4670  0.5499 -0.0462
   33MOL   C52724271   5.972   6.696   5.457  0.0685 -0.0626 -0.1011
   33MOL   C52824272   6.048   6.579   5.518 -0.1849 -0.1460  0.1292
   33MOL   C52924273   6.193   6.543   5.465  0.4710 -0.5608  0.6766
   33MOL   C53024274   6.264   6.440   5.549 -0.4586  0.0895  0.4367
   33MOL   C53124275   6.399   6.403   5.484 -0.4183  0.9340  0.4065
   33MOL   C53224276   6.489   6.325   5.581 -0.0302  0.0213  0.2066
   33MOL   N53324277   6.436   6.191   5.617  0.2132 -0.0604  0.7641
   33MOL   H53424278   5.388   7.009   5.228  0.9061 -0.7973 -0.4303
   33MOL   H53524279   5.347   6.872   5.329 -1.1628  0.6971  3.0242
   33MOL   H53624280   5.608   6.982   5.250 -0.1510  0.7400 -0.7325
   33MOL   H53724281   5.597   7.029   5.410  1.0897  0.7458 -1.3245
   33MOL   H53824282   5.589   6.731   5.328 -1.2918  1.9193 -2.1182
   33MOL   H53924283   5.542   6.798   5.489  1.7181 -1.5466  1.1744
   33MOL   H54024284   5.805   6.858   5.342 -0.0233  1.4386  0.6643
   33MOL   H54124285   5.789   6.892   5.514  0.7881 -1.7059  1.6167
   33MOL   H54224286   5.783   6.609   5.430 -0.0635  2.0339 -2.2737
   33MOL   H54324287   5.803   6.688   5.588  0.0851  0.2303 -0.1418
   33MOL   H54424288   6.007   6.795   5.487 -0.5531  0.8897 -2.3798
   33MOL   H54524289   5.995   6.693   5.350 -0.8828  0.5355 -0.3232
   33MOL   H54624290   5.981   6.493   5.519 -0.3413 -0.0156  0.8424
   33MOL   H54724291   6.059   6.591   5.626 -0.4561 -1.8133  0.3573
   33MOL   H54824292   6.255   6.632   5.469  0.7268 -0.6437 -1.2092
   33MOL   H54924293   6.197   6.509   5.362  3.0171 -0.4814  0.7102
   33MOL   H55024294   6.206   6.351   5.571  0.3391 -0.7062 -0.6520
   33MOL   H55124295   6.293   6.490   5.642 -0.2543 -1.0831  1.0119
   33MOL   H55224296   6.459   6.487   5.450 -0.7516  0.3036 -1.8181
   33MOL   H55324297   6.377   6.353   5.390  1.9700  1.0075 -0.2158
   33MOL   H55424298   6.511   6.386   5.669 -1.5345 -0.6202  1.0535
   33MOL   H55524299   6.590   6.318   5.539 -0.2336  3.0177 -0.8910
   33MOL   H55624300   6.410   6.125   5.544  1.2794  1.0787 -0.6644
   33MOL   C55724301   6.385   6.151   5.733  0.2276 -0.3667 -0.2925
   33MOL   O55824302   6.394   6.218   5.838  0.2342 -0.3795  0.3557
   33MOL   C55924303   6.307   6.013   5.728 -0.3237  0.2958 -0.2740
   33MOL   C56024304   6.165   6.043   5.665 -0.0209  0.6081  0.7458
   33MOL   C56124305   6.169   6.028   5.509  0.5340 -0.2342 -0.1536
   33MOL   C56224306   6.030   6.043   5.442 -0.3765  0.5714  0.2413
   33MOL   C56324307   5.968   6.178   5.462  0.5336  0.6769 -0.3209
   33MOL   C56424308   5.829   6.169   5.406  0.6419  0.5668  0.2160
   33MOL   C56524309   5.725   6.261   5.471 -0.3253 -0.3784 -0.1166
   33MOL   C56624310   5.584   6.246   5.429 -0.4148  0.0500 -0.4917
   33MOL   C56724311   5.480   6.317   5.511  0.7540  0.0011 -1.0411
   33MOL   C56824312   5.510   6.464   5.521 -0.3710  0.2591  0.0220
   33MOL   C56924313   5.383   6.526   5.591  0.8178  0.4639  0.5881
   33MOL   N57024314   5.278   6.529   5.490  0.6521  0.6512 -0.1225
   33MOL   H57124315   6.292   5.978   5.830  0.3882  0.9972  0.0686
   33MOL   H57224316   6.368   5.938   5.677  0.3376  0.9701 -0.4700
   33MOL   H57324317   6.095   5.981   5.721  1.3116 -0.9207  0.7313
   33MOL   H57424318   6.137   6.147   5.688  1.1422  1.3798 -1.2674
   33MOL   H57524319   6.216   5.931   5.490 -1.7684 -1.0661 -1.8184
   33MOL   H57624320   6.233   6.106   5.469 -0.4960  1.5569  1.6053
   33MOL   H57724321   6.050   6.024   5.336 -0.0924 -3.2229  0.9040
   33MOL   H57824322   5.972   5.960   5.483  0.7911  0.4605  1.7148
   33MOL   H57924323   6.027   6.245   5.400 -0.7688  1.2180 -1.0056
   33MOL   H58024324   5.966   6.219   5.563  2.1770 -0.4981  0.2074
   33MOL   H58124325   5.790   6.067   5.401  0.7611  0.5792 -0.9229
   33MOL   H58224326   5.831   6.193   5.300  1.2128  0.7674  0.2724
   33MOL   H58324327   5.758   6.363   5.451 -2.6349 -0.0031 -2.3116
   33MOL   H58424328   5.731   6.254   5.580  0.4454 -2.8760 -0.2999
   33MOL   H58524329   5.559   6.142   5.451  0.4210  0.1047  0.7880
   33MOL   H58624330   5.573   6.268   5.323  0.8481  1.7708 -0.2746
   33MOL   H58724331   5.468   6.266   5.606 -1.5859 -2.5782 -2.6404
   33MOL   H58824332   5.384   6.299   5.463  1.6279 -1.1494 -2.3856
   33MOL   H58924333   5.532   6.508   5.424 -2.8221  2.5108  0.4200
   33MOL   H59024334   5.600   6.486   5.579  1.2367  1.1446 -2.7631
   33MOL   H59124335   5.396   6.630   5.620  0.8693  1.2145 -1.9386
   33MOL   H59224336   5.345   6.475   5.679  1.0712 -0.4130  0.2001
   33MOL   H59324337   5.302   6.513   5.394  0.4050 -0.7071  0.0255
   33MOL   C59424338   5.154   6.564   5.520  0.2065 -0.7209 -0.1953
   33MOL   O59524339   5.104   6.579   5.630 -0.4143 -0.8855 -0.0474
   33MOL   C59624340   5.062   6.605   5.399 -0.6140  0.3240 -0.5540
   33MOL   C59724341   5.039   6.757   5.407 -0.1923 -0.3498  0.3484
   33MOL   C59824342   4.978   6.810   5.280  0.3242  0.0016  0.5969
   33MOL   C59924343   4.840   6.751   5.242  0.1700  0.3040 -0.4028
   33MOL   C60024344   4.722   6.781   5.334 -0.0589  0.0755 -0.2894
   33MOL   C60124345   4.591   6.713   5.299  0.1884 -0.3986 -0.6268
   33MOL   C60224346   4.502   6.800   5.214  0.7483  0.1516 -0.2226
   33MOL   C60324347   4.507   6.742   5.072  0.4211 -0.1338  0.8003
   33MOL   C60424348   4.416   6.814   4.977 -0.4568 -0.0560  0.0272
   33MOL   C60524349   4.395   6.735   4.843  0.3634 -0.6383  0.5008
   33MOL   C60624350   4.332   6.819   4.722 -0.0162 -0.2448  0.4655
   33MOL   N60724351   4.216   6.891   4.769 -0.3841 -0.0428  0.6288
   33MOL   H60824352   4.969   6.548   5.409 -1.3407  1.8964  1.9443
   33MOL   H60924353   5.106   6.582   5.302 -1.6795 -1.4183 -0.6532
   33MOL   H61024354   4.975   6.783   5.491 -0.8799 -0.1119 -0.2449
   33MOL   H61124355   5.135   6.804   5.430  0.0067  0.7583 -2.5226
   33MOL   H61224356   5.042   6.793   5.194 -0.6151  1.0393 -0.3062
   33MOL   H61324357   4.963   6.918   5.285  0.0918 -0.0176  0.3002
   33MOL   H61424358   4.811   6.794   5.146 -0.1339  2.0924  0.4579
   33MOL   H61524359   4.842   6.642   5.241  1.4688  0.3179 -0.0946
   33MOL   H61624360   4.719   6.889   5.342  2.6986  0.3703 -2.4254
   33MOL   H61724361   4.741   6.749   5.437  0.6390  0.3238 -0.3399
   33MOL   H61824362   4.536   6.700   5.392  1.8086  1.5150  0.6459
   33MOL   H61924363   4.595   6.612   5.257 -1.9132 -1.2568  1.0892
   33MOL   H62024364   4.538   6.903   5.214 -3.6919  1.8080  1.1722
   33MOL   H62124365   4.400   6.800   5.254  0.6597  0.3643 -0.4499
   33MOL   H62224366   4.460   6.644   5.073  0.2437 -0.1047 -1.4833
   33MOL   H62324367   4.608   6.746   5.031  0.4940 -0.1663  0.9732
   33MOL   H62424368   4.463   6.909   4.949  1.9110 -1.0723  0.3939
   33MOL   H62524369   4.316   6.831   5.015 -0.1285 -0.1222  0.9344
   33MOL   H62624370   4.335   6.651   4.878  0.0631 -0.1544  1.1566
   33MOL   H62724371   4.490   6.696   4.806  0.1434  0.4916 -1.3143
   33MOL   H62824372   4.304   6.753   4.639 -2.5958  2.1875 -0.6851
   33MOL   H62924373   4.403   6.897   4.694 -0.7932 -0.2397 -1.6386
   33MOL   H63024374   4.249   6.980   4.802 -0.9949  0.0497  0.9874
   33MOL   C63124375   4.097   6.835   4.791  0.1379 -0.6960  0.8944
   33MOL   O63224376   4.062   6.715   4.767  0.1628 -0.3239 -0.3247
   33MOL   C63324377   4.002   6.942   4.865  1.0655  0.2449 -0.2544
   33MOL   C63424378   3.887   6.890   4.952 -0.4411 -0.8590  0.8041
   33MOL   C63524379   3.924   6.851   5.095  0.2007 -0.0162  0.1980
   33MOL   C63624380   3.798   6.819   5.181 -0.2433 -0.1620 -0.3858
   33MOL   C63724381   3.834   6.774   5.322  0.2598  0.1416  0.3100
   33MOL   C63824382   3.713   6.766   5.408 -0.7141  0.3720 -0.1005
   33MOL   C63924383   3.742   6.714   5.550 -0.4804  0.6505  0.4017
   33MOL   C64024384   3.617   6.717   5.641  0.2184  0.7299 -0.9867
   33MOL   C64124385   3.643   6.653   5.778 -0.0941  0.1797  0.8681
   33MOL   C64224386   3.689   6.506   5.769 -0.5964  0.2020  0.2363
   33MOL   C64324387   3.693   6.436   5.904  0.6929  0.4146 -0.3005
   33MOL   N64424388   3.717   6.295   5.888 -0.5374 -0.0879  0.1514
   33MOL   H64524389   3.956   6.990   4.778 -0.6794  0.4531  0.7695
   33MOL   H64624390   4.060   7.005   4.933 -0.5280 -0.9880  2.3236
   33MOL   H64724391   3.819   6.975   4.955  0.7737  0.1007  1.1817
   33MOL   H64824392   3.834   6.810   4.899  0.2062 -1.4001  0.9633
   33MOL   H64924393   3.978   6.934   5.140  0.0710 -0.8024  1.8168
   33MOL   H65024394   3.999   6.772   5.097  0.3153  0.0844 -0.0365
   33MOL   H65124395   3.741   6.909   5.204 -0.3692 -0.1305 -0.8349
   33MOL   H65224396   3.726   6.747   5.142 -2.0917  1.5733 -0.2456
   33MOL   H65324397   3.902   6.840   5.375 -1.1724  1.2812  0.7561
   33MOL   H65424398   3.878   6.675   5.310 -0.7555 -0.5110  1.7712
   33MOL   H65524399   3.629   6.707   5.370  0.2578  0.9717 -3.3558
   33MOL   H65624400   3.674   6.868   5.409 -2.2790 -0.1965 -1.6263
   33MOL   H65724401   3.828   6.756   5.603 -0.1095  0.0444  0.2920
   33MOL   H65824402   3.779   6.612   5.540 -1.2755  0.2998  0.9697
   33MOL   H65924403   3.528   6.665   5.605 -0.8184  0.3220  2.0175
   33MOL   H66024404   3.589   6.820   5.661  0.6844  0.2835  2.2848
   33MOL   H66124405   3.549   6.657   5.832 -0.7360  0.2266 -0.2248
   33MOL   H66224406   3.720   6.714   5.826  2.2343  0.8564 -3.4034
   33MOL   H66324407   3.792   6.503   5.734  0.1406  2.3754  2.0854
   33MOL   H66424408   3.620   6.455   5.701 -0.8536  0.7620  0.0666
   33MOL   H66524409   3.598   6.448   5.957  0.6939 -0.4417 -0.1048
   33MOL   H66624410   3.769   6.479   5.969 -0.5199  1.6650  0.3222
   33MOL   H66724411   3.669   6.259   5.807 -1.3445  1.2848  0.0051
   33MOL   C66824412   3.815   6.227   5.945 -0.4837  0.1709  0.4598
   33MOL   O66924413   3.893   6.276   6.034  0.6607  0.3788  0.1508
   33MOL   C67024414   3.829   6.074   5.901 -0.5850  0.0620 -0.2413
   33MOL   C67124415   3.971   6.013   5.923  0.2496 -0.4670  0.7785
   33MOL   C67224416   3.982   5.863   5.921 -0.4078 -0.0045  0.1067
   33MOL   C67324417   3.927   5.790   5.795 -0.4057  0.1881 -0.4329
   33MOL   C67424418   3.895   5.643   5.824  0.1500  0.5581 -0.0734
   33MOL   C67524419   3.894   5.559   5.698  0.3182  0.7484  1.0419
   33MOL   C67624420   3.869   5.408   5.726  0.4760 -0.3867 -0.2596
   33MOL   C67724421   3.842   5.335   5.603  0.0617  0.1795 -0.3424
   33MOL   C67824422   3.803   5.186   5.619 -0.2505 -0.1822 -0.1851
   33MOL   C67924423   3.686   5.157   5.720  0.5666  0.4127 -0.0059
   33MOL   C68024424   3.613   5.014   5.682  0.1227 -0.2477  0.3332
   33MOL   N68124425   3.522   5.009   5.562  0.2526  0.0711  0.3508
   33MOL   H68224426   3.803   6.058   5.796  2.6441 -1.3614 -0.8536
   33MOL   H68324427   3.756   6.006   5.946  0.7449 -0.4759  1.1364
   33MOL   H68424428   4.039   6.062   5.853 -1.8655 -1.3149 -1.9405
   33MOL   H68524429   3.993   6.038   6.027 -0.6032  0.8557  0.6511
   33MOL   H68624430   3.922   5.838   6.009  0.1386 -1.4514  0.0932
   33MOL   H68724431   4.084   5.835   5.946 -0.2254 -2.0723 -2.6684
   33MOL   H68824432   3.840   5.844   5.759 -0.4394  0.2199 -0.3046
   33MOL   H68924433   3.995   5.806   5.711 -0.6107 -0.5021 -0.7325
   33MOL   H69024434   3.805   5.632   5.883 -0.0679  2.0994 -0.0939
   33MOL   H69124435   3.974   5.596   5.883  0.4120  1.4544  0.3126
   33MOL   H69224436   3.979   5.570   5.631  0.6080 -1.9082  0.9314
   33MOL   H69324437   3.806   5.593   5.643 -0.0230 -0.8212  0.5734
   33MOL   H69424438   3.784   5.409   5.795 -0.0426 -0.1902 -0.9078
   33MOL   H69524439   3.953   5.355   5.772 -1.3777 -1.3035  2.2220
   33MOL   H69624440   3.937   5.333   5.551 -0.5786 -1.1451 -1.4816
   33MOL   H69724441   3.774   5.395   5.542  0.1775  0.8287  0.1586
   33MOL   H69824442   3.890   5.130   5.653 -0.1635  0.2438  0.3117
   33MOL   H69924443   3.785   5.143   5.521 -1.0273  1.7934 -0.9223
   33MOL   H70024444   3.611   5.232   5.699  0.5503  0.6739  0.9650
   33MOL   H70124445   3.706   5.159   5.827 -1.4104 -0.6649  0.4091
   33MOL   H70224446   3.542   4.987   5.761 -0.8035  2.4047  0.4911
   33MOL   H70324447   3.689   4.938   5.668  1.5777  1.1746  0.3270
   33MOL   H70424448   3.514   5.090   5.503 -2.2522 -0.2511  0.2154
   33MOL   C70524449   3.447   4.902   5.531 -0.1094  0.7420 -0.1408
   33MOL   O70624450   3.454   4.801   5.597 -0.0848 -0.1994  0.3448
   33MOL   C70724451   3.338   4.927   5.426 -0.6126  0.0091 -0.2171
   33MOL   C70824452   3.202   4.863   5.456  0.0175 -0.5664  0.5744
   33MOL   C70924453   3.097   4.853   5.343 -0.2470  0.3039  0.2700
   33MOL   C71024454   3.152   4.789   5.212  0.2814  0.0699 -0.0673
   33MOL   C71124455   3.025   4.746   5.128 -0.2249  0.5443 -0.3372
   33MOL   C71224456   3.021   4.600   5.087 -0.4393  0.5039  0.0542
   33MOL   C71324457   2.894   4.545   5.018 -0.1860 -0.0762 -0.5852
   33MOL   C71424458   2.901   4.393   5.004 -0.7424  0.6949  0.2414
   33MOL   C71524459   2.782   4.329   4.931 -0.1037  0.4366 -0.4560
   33MOL   C71624460   2.761   4.362   4.783 -0.0504  0.3876 -0.0606
   33MOL   C71724461   2.637   4.275   4.731  0.2065 -0.2527  0.4935
   33MOL   N71824462   2.619   4.282   4.588  0.3233  0.0869  0.2613
   33MOL   H71924463   3.371   4.889   5.330  0.5056 -2.3454  1.0583
   33MOL   H72024464   3.338   5.036   5.421  2.0531  0.0316 -0.4005
   33MOL   H72124465   3.212   4.757   5.478  2.1034 -0.5500 -0.2207
   33MOL   H72224466   3.147   4.909   5.539  0.9132  2.9631 -0.7078
   33MOL   H72324467   3.056   4.953   5.330  1.2672  1.0397  1.1135
   33MOL   H72424468   3.009   4.795   5.373 -0.1572  1.1749  2.2907
   33MOL   H72524469   3.215   4.858   5.156  0.8575 -0.8062 -0.5155
   33MOL   H72624470   3.215   4.703   5.236  1.0315  0.7397  0.3880
   33MOL   H72724471   3.029   4.809   5.039  2.5490  1.8469  0.6426
   33MOL   H72824472   2.931   4.776   5.174  0.0394  1.7279 -0.5342
   33MOL   H72924473   3.013   4.564   5.190 -0.3326  1.7725  0.5245
   33MOL   H73024474   3.112   4.582   5.029 -1.2767 -0.6066 -0.9239
   33MOL   H73124475   2.899   4.589   4.918  1.7695 -1.5816 -1.1752
   33MOL   H73224476   2.794   4.572   5.052  0.1231  3.1287 -1.9710
   33MOL   H73324477   2.906   4.358   5.108 -0.1285 -0.2101 -0.0919
   33MOL   H73424478   2.993   4.355   4.961 -0.1686  0.7516  1.3958
   33MOL   H73524479   2.692   4.349   4.988 -0.0516  0.3005 -0.3267
   33MOL   H73624480   2.788   4.220   4.936 -1.3933  0.3550 -0.5244
   33MOL   H73724481   2.850   4.342   4.724  0.2233 -1.5049  0.9610
   33MOL   H73824482   2.739   4.467   4.762 -2.0527 -0.3336 -1.7275
   33MOL   H73924483   2.546   4.295   4.787  0.8513 -3.1153  2.6860
   33MOL   H74024484   2.660   4.169   4.746 -2.9094 -0.9311  0.7259
   33MOL   H74124485   2.577   4.366   4.553 -0.8258 -1.1466 -1.4364
   33MOL   H74224486   2.549   4.214   4.563 -0.8108  0.2669  2.7678
   34MOL     C124487   5.522   2.811   0.885 -0.5966  0.5467  0.3151
   34MOL     O224488   5.454   2.805   0.991 -0.0553  0.3637  0.4679
   34MOL     C324489   5.505   2.719   0.760  0.6028 -0.2757 -0.3531
   34MOL     C424490   5.428   2.587   0.787  0.6013 -0.2875  0.6656
   34MOL     C524491   5.505   2.494   0.880 -0.0377 -0.2165 -0.4906
   34MOL     C624492   5.452   2.349   0.895  0.4413 -0.2208 -0.2323
   34MOL     C724493   5.529   2.269   0.996 -0.3053  0.2371  1.0322
   34MOL     C824494   5.493   2.307   1.144  0.4057  0.3126  1.0594
   34MOL     C924495   5.565   2.223   1.249 -0.8822 -0.2473 -0.8303
   34MOL    C1024496   5.522   2.257   1.396 -0.7511 -0.0512 -0.2879
   34MOL    C1124497   5.549   2.143   1.494  0.0802  0.2875  0.5193
   34MOL    C1224498   5.511   2.150   1.645 -0.1014 -0.3401 -0.0078
   34MOL    C1324499   5.360   2.127   1.663  0.5416  0.5448 -0.0394
   34MOL    N1424500   5.333   2.153   1.806  0.0159 -0.8732 -0.4224
   34MOL    H1524501   5.596   2.695   0.705  0.6052 -3.0778  0.7799
   34MOL    H1624502   5.450   2.774   0.683  0.4780 -1.3034 -1.0062
   34MOL    H1724503   5.327   2.603   0.825  0.2167 -0.0586 -0.4450
   34MOL    H1824504   5.403   2.533   0.696  1.5992 -0.6522  0.6079
   34MOL    H1924505   5.525   2.537   0.978 -0.8740 -1.1179  0.0893
   34MOL    H2024506   5.603   2.494   0.834 -0.6588 -0.4496 -1.8414
   34MOL    H2124507   5.347   2.353   0.925  0.5618  0.4146  0.1246
   34MOL    H2224508   5.465   2.301   0.798 -1.9525 -2.3043  0.4112
   34MOL    H2324509   5.635   2.277   0.971 -0.3936 -0.6026  0.3716
   34MOL    H2424510   5.511   2.162   0.988  1.1737 -0.0484  1.2647
   34MOL    H2524511   5.386   2.296   1.156  0.3279  1.4469  1.3942
   34MOL    H2624512   5.519   2.411   1.165 -0.2345  1.1287 -1.9620
   34MOL    H2724513   5.674   2.229   1.252 -0.9740  0.8873  2.1303
   34MOL    H2824514   5.544   2.116   1.240  1.6774 -0.8788  0.0758
   34MOL    H2924515   5.413   2.266   1.395 -0.7954 -0.5307  0.2257
   34MOL    H3024516   5.547   2.354   1.439  0.6997 -0.3801 -0.3503
   34MOL    H3124517   5.653   2.111   1.493 -0.4741 -1.5751 -1.5122
   34MOL    H3224518   5.513   2.049   1.453  1.5261 -1.0362  2.2147
   34MOL    H3324519   5.548   2.249   1.672  1.3914 -1.1199  0.8870
   34MOL    H3424520   5.557   2.065   1.695 -0.9664 -1.4968 -1.1416
   34MOL    H3524521   5.332   2.026   1.633 -0.8515  0.5109  1.3134
   34MOL    H3624522   5.310   2.189   1.589 -0.9700  0.4847  0.9016
   34MOL    H3724523   5.410   2.154   1.871 -1.6472  0.2435  1.5906
   34MOL    H3824524   5.597   2.890   0.880  0.0582 -0.0458  0.5800
   34MOL    C3924525   5.209   2.155   1.853  1.0349 -0.3406  0.3876
   34MOL    O4024526   5.105   2.149   1.781  0.3593  0.0212  0.1602
   34MOL    C4124527   5.192   2.157   2.005  0.1798 -0.1893  0.0482
   34MOL    C4224528   5.121   2.279   2.056 -0.8427 -0.4147 -0.3887
   34MOL    C4324529   5.213   2.399   2.070  0.1200  0.2423 -0.1764
   34MOL    C4424530   5.146   2.527   2.118  0.1144 -0.4421  0.2091
   34MOL    C4524531   5.250   2.637   2.129  0.4917  0.3811 -0.3107
   34MOL    C4624532   5.186   2.769   2.109 -0.0465  0.4426  0.3556
   34MOL    C4724533   5.117   2.815   2.235  0.3479  0.5007  0.6616
   34MOL    C4824534   5.015   2.930   2.208 -0.0836 -0.4682  0.3171
   34MOL    C4924535   4.890   2.868   2.139 -0.1359 -0.0994 -0.2154
   34MOL    C5024536   4.781   2.959   2.094 -0.0315 -0.3026  0.2521
   34MOL    C5124537   4.735   3.055   2.204 -0.4310  0.0387  0.0215
   34MOL    N5224538   4.594   3.084   2.191 -0.2066 -0.0581 -0.8929
   34MOL    H5324539   5.290   2.144   2.049  1.0857  0.0892 -1.8473
   34MOL    H5424540   5.119   2.077   2.021 -1.6815  1.2561 -0.9088
   34MOL    H5524541   5.043   2.312   1.987 -0.7316  0.4794 -0.1016
   34MOL    H5624542   5.078   2.260   2.155 -2.2568 -1.2266 -1.1420
   34MOL    H5724543   5.271   2.416   1.980  1.7087  0.9544  0.9629
   34MOL    H5824544   5.283   2.371   2.149 -0.1673 -1.7087 -0.5708
   34MOL    H5924545   5.074   2.553   2.041  0.0813  0.1104  0.4201
   34MOL    H6024546   5.108   2.498   2.216 -2.7479 -1.0975 -1.0607
   34MOL    H6124547   5.334   2.626   2.061  0.0556  1.7751 -1.0828
   34MOL    H6224548   5.284   2.629   2.233  0.7356  0.5172 -0.3804
   34MOL    H6324549   5.125   2.770   2.018 -0.3660  3.2959  0.5481
   34MOL    H6424550   5.261   2.842   2.076 -0.0904  0.0759 -0.5854
   34MOL    H6524551   5.177   2.856   2.316 -0.2925  2.2859  0.2544
   34MOL    H6624552   5.067   2.728   2.278  1.8396 -1.3260 -1.2074
   34MOL    H6724553   5.067   3.011   2.157 -0.4256  0.1582  0.9534
   34MOL    H6824554   5.000   2.976   2.306 -1.4676  0.4881 -0.3335
   34MOL    H6924555   4.849   2.798   2.213 -1.2045  1.7114  0.9559
   34MOL    H7024556   4.927   2.807   2.057 -0.3119 -1.8495  0.9663
   34MOL    H7124557   4.698   2.894   2.064  0.7364 -1.8339  1.3514
   34MOL    H7224558   4.825   3.009   2.008 -0.6319 -1.5306 -0.7891
   34MOL    H7324559   4.796   3.145   2.202  2.7184 -2.0128 -0.0985
   34MOL    H7424560   4.755   3.015   2.304 -0.0292 -1.9284 -0.8306
   34MOL    H7524561   4.551   3.096   2.100  0.7981  1.4698 -1.1783
   34MOL    C7624562   4.537   3.154   2.292 -0.1170 -0.0733 -0.3495
   34MOL    O7724563   4.578   3.150   2.407 -0.0964  0.1144 -0.1254
   34MOL    C7824564   4.416   3.244   2.261 -0.2100  0.4412 -0.7304
   34MOL    C7924565   4.449   3.388   2.300  0.5850 -0.4802 -0.8823
   34MOL    C8024566   4.343   3.487   2.249  0.6345 -1.0095 -0.3903
   34MOL    C8124567   4.376   3.622   2.312  0.1439  0.5833  0.3969
   34MOL    C8224568   4.288   3.735   2.254  0.0188 -0.1637  0.4627
   34MOL    C8324569   4.314   3.857   2.335  0.2580 -0.1214 -0.4614
   34MOL    C8424570   4.243   3.985   2.288  0.2965 -0.0627 -0.2020
   34MOL    C8524571   4.095   3.959   2.277  0.6775  0.3533 -0.1881
   34MOL    C8624572   4.020   4.086   2.234  0.6898  0.2682 -0.8965
   34MOL    C8724573   3.880   4.041   2.195 -0.1567 -1.2318 -1.0098
   34MOL    C8824574   3.788   4.159   2.152 -0.6449  0.5274 -0.7242
   34MOL    N8924575   3.788   4.272   2.243  0.0328 -0.3791  0.9532
   34MOL    H9024576   4.330   3.201   2.313 -0.0176  1.2439  0.2665
   34MOL    H9124577   4.392   3.248   2.154  0.4165  0.2818 -0.8769
   34MOL    H9224578   4.434   3.398   2.408 -0.6391 -0.5494 -1.0360
   34MOL    H9324579   4.549   3.425   2.274  0.5236  1.8621  1.9234
   34MOL    H9424580   4.239   3.468   2.274  0.7116  0.1835  0.9430
   34MOL    H9524581   4.354   3.487   2.140  2.2040 -0.3865 -0.2379
   34MOL    H9624582   4.367   3.607   2.419  1.4033  0.0065  0.4397
   34MOL    H9724583   4.481   3.649   2.295  0.3308 -0.2841  0.1404
   34MOL    H9824584   4.184   3.702   2.260  0.3013 -1.2236 -0.2579
   34MOL    H9924585   4.310   3.756   2.150  0.9885  0.9413  0.8753
   34MOL   H10024586   4.422   3.858   2.322 -0.0989  0.6415 -3.8098
   34MOL   H10124587   4.289   3.843   2.441 -2.9010  1.0334 -1.0054
   34MOL   H10224588   4.277   3.995   2.185  0.0737 -0.9333 -0.3588
   34MOL   H10324589   4.271   4.073   2.347  0.3888  1.0158 -1.8209
   34MOL   H10424590   4.064   3.927   2.376  0.9442  1.1567  0.1623
   34MOL   H10524591   4.079   3.877   2.207 -0.3571  0.8148 -0.5167
   34MOL   H10624592   4.068   4.126   2.145 -0.1374  1.5920 -0.7573
   34MOL   H10724593   4.026   4.158   2.315  2.8354  0.2782 -1.0367
   34MOL   H10824594   3.831   3.991   2.278  0.5914 -2.1308 -1.0963
   34MOL   H10924595   3.872   3.966   2.117 -1.5155 -1.8548 -0.2906
   34MOL   H11024596   3.686   4.139   2.119  0.4612 -1.5873 -3.0377
   34MOL   H11124597   3.838   4.202   2.065  1.1934  0.6749  0.3872
   34MOL   H11224598   3.852   4.350   2.230  1.9412 -2.0819 -0.1530
   34MOL   C11324599   3.695   4.302   2.334 -0.1990 -0.9612  0.2434
   34MOL   O11424600   3.594   4.230   2.346  0.3072  0.0320 -0.4934
   34MOL   C11524601   3.708   4.438   2.402  0.4238  0.1707  0.1312
   34MOL   C11624602   3.653   4.441   2.548 -0.3578 -0.2755 -0.1548
   34MOL   C11724603   3.735   4.363   2.656  0.0086  0.0700 -0.0287
   34MOL   C11824604   3.879   4.409   2.688  0.4165 -0.0984  0.3681
   34MOL   C11924605   3.990   4.353   2.593  0.2859  0.2776 -0.2953
   34MOL   C12024606   4.129   4.370   2.652  0.0099 -0.3330 -0.5250
   34MOL   C12124607   4.238   4.295   2.573  0.2999 -0.4588  0.0413
   34MOL   C12224608   4.374   4.319   2.642 -0.3035  0.3014  0.3932
   34MOL   C12324609   4.486   4.246   2.560  0.3286  0.3465  0.7243
   34MOL   C12424610   4.495   4.093   2.585 -0.2532  0.0980 -0.3483
   34MOL   C12524611   4.607   4.024   2.501 -0.6550 -0.6975 -0.5513
   34MOL   N12624612   4.612   3.883   2.531 -0.0904 -0.2176 -0.0353
   34MOL   H12724613   3.654   4.522   2.359  0.6608  0.7143  0.9064
   34MOL   H12824614   3.812   4.472   2.398  0.1181  1.2676  1.1836
   34MOL   H12924615   3.645   4.545   2.581  2.4635 -0.1799  0.3494
   34MOL   H13024616   3.551   4.403   2.547 -0.4684 -0.0132 -1.9424
   34MOL   H13124617   3.729   4.260   2.621 -0.2324  0.1842 -0.3283
   34MOL   H13224618   3.674   4.364   2.746 -3.0886  1.0540 -2.0789
   34MOL   H13324619   3.875   4.517   2.677 -2.6015 -0.3407 -1.7305
   34MOL   H13424620   3.900   4.377   2.790 -1.3184 -0.9508  0.4817
   34MOL   H13524621   3.984   4.397   2.493 -0.2585 -0.6674 -0.6831
   34MOL   H13624622   3.976   4.246   2.576 -2.6585  0.5084  0.4755
   34MOL   H13724623   4.139   4.313   2.745  0.5007 -0.5563 -0.7096
   34MOL   H13824624   4.151   4.470   2.689  2.0183 -1.3805  1.2444
   34MOL   H13924625   4.232   4.298   2.464 -0.3811  0.2941  0.1008
   34MOL   H14024626   4.214   4.189   2.588 -0.2497  0.0075  2.7045
   34MOL   H14124627   4.383   4.296   2.748 -1.1807 -0.0147  0.4065
   34MOL   H14224628   4.397   4.424   2.625  1.3830  0.0266  0.8811
   34MOL   H14324629   4.579   4.302   2.568  0.6088 -0.3100  2.3814
   34MOL   H14424630   4.466   4.254   2.453 -0.8288  1.2730  0.9995
   34MOL   H14524631   4.402   4.046   2.552 -1.4766  1.3504  1.2211
   34MOL   H14624632   4.507   4.085   2.693  0.4709  1.7608 -0.2977
   34MOL   H14724633   4.701   4.078   2.518 -0.0362 -2.2525  1.3189
   34MOL   H14824634   4.587   4.026   2.394 -1.7786  0.0473 -0.3325
   34MOL   H14924635   4.563   3.841   2.609  1.8534 -0.5882  1.0108
   34MOL   C15024636   4.690   3.799   2.455  0.7817  0.9997 -0.0388
   34MOL   O15124637   4.752   3.838   2.352  0.3534 -0.2353  0.1002
   34MOL   C15224638   4.710   3.653   2.502  0.3277 -0.5070 -0.3885
   34MOL   C15324639   4.848   3.601   2.461  0.0409 -0.3406 -0.1264
   34MOL   C15424640   4.849   3.543   2.313  0.5240 -0.7300 -0.1167
   34MOL   C15524641   4.961   3.441   2.279 -0.6853 -0.3306  0.7964
   34MOL   C15624642   4.969   3.408   2.130 -0.1792 -0.2076 -0.3011
   34MOL   C15724643   5.089   3.326   2.092  0.4515  0.2775 -0.1172
   34MOL   C15824644   5.113   3.311   1.941 -0.1818  0.2103 -0.0658
   34MOL   C15924645   5.092   3.169   1.884 -0.0434  0.1674 -0.1196
   34MOL   C16024646   5.106   3.172   1.728 -0.5820 -0.3531  0.7631
   34MOL   C16124647   5.011   3.065   1.666  1.2663  0.2185  0.0681
   34MOL   C16224648   5.035   3.051   1.516 -0.2292  0.2119  0.0210
   34MOL   N16324649   4.971   3.160   1.444  0.6447 -0.5925 -0.6069
   34MOL   H16424650   4.619   3.600   2.474 -0.4286  0.7738 -0.4245
   34MOL   H16524651   4.706   3.661   2.611  1.4967 -1.7090 -0.2474
   34MOL   H16624652   4.928   3.674   2.473  1.5610 -2.5344  3.9397
   34MOL   H16724653   4.888   3.527   2.530  0.9269  1.4599  1.3170
   34MOL   H16824654   4.846   3.624   2.240  0.2056  0.7657  1.5186
   34MOL   H16924655   4.754   3.492   2.299 -0.0380  0.3085 -0.1850
   34MOL   H17024656   5.045   3.499   2.316 -0.1468  0.3640 -1.4257
   34MOL   H17124657   4.963   3.350   2.339 -2.3700 -0.5009  0.6027
   34MOL   H17224658   4.980   3.492   2.061 -0.3599 -0.3223 -0.4667
   34MOL   H17324659   4.878   3.357   2.098  0.0479 -0.1781 -0.9878
   34MOL   H17424660   5.094   3.231   2.146  1.8022  1.3706  1.7464
   34MOL   H17524661   5.173   3.377   2.139  0.3848 -0.0113  0.3129
   34MOL   H17624662   5.220   3.326   1.928 -0.4034  0.0180 -2.2486
   34MOL   H17724663   5.062   3.389   1.885 -0.7511 -0.9869 -1.2294
   34MOL   H17824664   5.001   3.116   1.912  1.3663 -1.1771  2.0094
   34MOL   H17924665   5.166   3.100   1.922  1.7347  2.0183 -0.1418
   34MOL   H18024666   5.208   3.151   1.698 -1.6629 -2.8952 -1.3292
   34MOL   H18124667   5.076   3.272   1.695  1.2169  0.4008  1.3592
   34MOL   H18224668   4.907   3.089   1.687  0.8060 -0.1919 -1.6002
   34MOL   H18324669   5.038   2.970   1.712 -0.8983  0.6301  2.2759
   34MOL   H18424670   4.989   2.959   1.481 -1.4190  0.9654 -0.4168
   34MOL   H18524671   5.137   3.031   1.484 -0.3536 -0.2034 -0.1123
   34MOL   H18624672   5.029   3.236   1.410 -0.8491  1.8713  2.1659
   34MOL   C18724673   4.844   3.172   1.397 -0.4666  0.6607  0.0852
   34MOL   O18824674   4.753   3.103   1.431  0.1642  0.7218 -0.5918
   34MOL   C18924675   4.810   3.291   1.311  0.0144 -0.2996 -0.5792
   34MOL   C19024676   4.723   3.404   1.368 -0.2477 -0.0629 -0.4712
   34MOL   C19124677   4.785   3.508   1.466 -0.3621 -0.2351  0.5601
   34MOL   C19224678   4.682   3.623   1.490 -0.4862  0.1739 -0.0431
   34MOL   C19324679   4.731   3.760   1.543 -0.5114 -0.6067 -0.1947
   34MOL   C19424680   4.620   3.864   1.553 -0.0161  0.3146  0.6443
   34MOL   C19524681   4.659   4.013   1.589 -0.6247 -0.1360  0.9759
   34MOL   C19624682   4.543   4.109   1.565  0.6209 -0.4403 -0.3939
   34MOL   C19724683   4.538   4.226   1.659 -0.2820 -1.1589 -0.5260
   34MOL   C19824684   4.650   4.342   1.640 -0.4409 -0.7866 -0.3943
   34MOL   C19924685   4.675   4.428   1.767  0.1706 -0.8473  0.9230
   34MOL   N20024686   4.754   4.548   1.738 -0.6496 -0.2699 -0.1390
   34MOL   H20124687   4.775   3.241   1.220 -1.9484 -2.1239  1.1179
   34MOL   H20224688   4.905   3.337   1.287  0.5681 -1.0477  0.1498
   34MOL   H20324689   4.667   3.439   1.281 -0.6170  2.5048  0.7618
   34MOL   H20424690   4.646   3.360   1.431 -0.1142 -0.1691 -0.3820
   34MOL   H20524691   4.877   3.543   1.419 -0.7042 -2.6901 -2.0602
   34MOL   H20624692   4.819   3.466   1.560 -1.1181 -0.7259  0.6171
   34MOL   H20724693   4.612   3.627   1.407 -0.8612  1.0996  0.3082
   34MOL   H20824694   4.615   3.582   1.566  1.5644  0.1381  1.8233
   34MOL   H20924695   4.806   3.803   1.477  0.1829 -2.3966 -0.5773
   34MOL   H21024696   4.770   3.751   1.645  0.0537 -0.9042 -0.4365
   34MOL   H21124697   4.550   3.819   1.623  1.7509 -1.0796  1.5480
   34MOL   H21224698   4.557   3.861   1.464  0.2181  1.7615  0.4181
   34MOL   H21324699   4.755   4.041   1.546  0.9041 -1.4939  3.3436
   34MOL   H21424700   4.689   4.012   1.694 -0.7720 -0.3078  1.0173
   34MOL   H21524701   4.449   4.054   1.560  1.3970 -1.9203  0.8418
   34MOL   H21624702   4.554   4.162   1.470  3.1469 -1.8213 -0.9253
   34MOL   H21724703   4.553   4.187   1.760  0.5815 -0.0917 -0.2241
   34MOL   H21824704   4.443   4.278   1.651 -1.0525 -2.8572 -3.2919
   34MOL   H21924705   4.621   4.408   1.559 -0.6122 -1.0806 -0.5709
   34MOL   H22024706   4.742   4.297   1.601 -0.3592 -0.0646 -1.0528
   34MOL   H22124707   4.712   4.365   1.849  1.9447 -1.0477 -0.0121
   34MOL   H22224708   4.580   4.466   1.806  0.1725  0.4636 -0.3255
   34MOL   H22324709   4.772   4.562   1.640 -0.3080 -0.3844 -0.0917
   34MOL   C22424710   4.796   4.636   1.824  0.5553 -0.6247  0.2123
   34MOL   O22524711   4.795   4.610   1.937  0.1825 -0.2203  0.1564
   34MOL   C22624712   4.870   4.767   1.767  0.1699  0.3049 -0.5671
   34MOL   C22724713   4.889   4.875   1.875  0.2623 -0.0181 -0.2877
   34MOL   C22824714   4.904   5.015   1.818  0.2673  0.5868 -0.0015
   34MOL   C22924715   4.925   5.114   1.928 -0.1925 -0.7280 -0.5540
   34MOL   C23024716   4.892   5.259   1.885 -0.2459  0.5983  0.4391
   34MOL   C23124717   4.909   5.358   2.000 -0.0738  0.2050  0.3138
   34MOL   C23224718   4.856   5.504   1.982  0.2181  0.8750 -0.1621
   34MOL   C23324719   4.878   5.580   2.118  0.5640 -0.5626 -0.1204
   34MOL   C23424720   4.853   5.729   2.103 -0.0614  0.3446  0.5990
   34MOL   C23524721   4.842   5.798   2.239  0.0435 -0.2559 -0.4328
   34MOL   C23624722   4.832   5.953   2.235  0.0622  0.1805 -0.2405
   34MOL   N23724723   4.701   5.996   2.167 -0.3919 -0.0868 -0.2186
   34MOL   H23824724   4.818   4.797   1.676 -1.0333  0.3050  0.1063
   34MOL   H23924725   4.972   4.736   1.742 -1.0284 -3.4076 -1.2149
   34MOL   H24024726   4.818   4.869   1.958  1.4684  1.0613  0.8483
   34MOL   H24124727   4.984   4.851   1.924 -0.8795 -2.4973  0.8240
   34MOL   H24224728   4.809   5.038   1.772  0.4132  1.2534  0.0290
   34MOL   H24324729   4.982   5.009   1.742  1.8205 -0.4095  1.6292
   34MOL   H24424730   4.857   5.094   2.011 -0.4576  1.8118 -0.1166
   34MOL   H24524731   5.022   5.098   1.976 -0.8170 -2.1428  0.2565
   34MOL   H24624732   4.786   5.275   1.861  0.2051  2.8868 -0.1229
   34MOL   H24724733   4.958   5.290   1.804  1.1513 -2.4413  0.3489
   34MOL   H24824734   5.015   5.351   2.023 -0.3247 -2.9239  0.8119
   34MOL   H24924735   4.856   5.321   2.088 -0.9804 -0.2676 -0.4248
   34MOL   H25024736   4.752   5.512   1.953  1.0352  1.5805 -3.0433
   34MOL   H25124737   4.908   5.567   1.909  1.5076  1.0866  0.9109
   34MOL   H25224738   4.979   5.564   2.155  0.0982  0.3194  1.5971
   34MOL   H25324739   4.817   5.547   2.203 -0.5096  0.9696 -0.2669
   34MOL   H25424740   4.762   5.750   2.047 -0.4797  0.5618  1.3535
   34MOL   H25524741   4.921   5.783   2.037  0.1846 -1.2054 -0.4587
   34MOL   H25624742   4.935   5.772   2.288  0.2241  0.6557 -0.2730
   34MOL   H25724743   4.768   5.753   2.305  1.1734  0.5010  1.3778
   34MOL   H25824744   4.914   5.990   2.174 -0.1119  0.9360 -0.0218
   34MOL   H25924745   4.841   5.995   2.335  0.1473 -0.5903  0.0718
   34MOL   H26024746   4.616   5.966   2.214 -0.6845 -1.4510 -1.5591
   34MOL   C26124747   4.698   6.057   2.050  0.2013  0.4484 -0.9030
   34MOL   O26224748   4.796   6.101   1.988 -0.5056 -0.1957 -0.6959
   34MOL   C26324749   4.558   6.086   1.992 -0.1701  1.0489  0.1921
   34MOL   C26424750   4.532   6.236   1.963  0.3321 -0.7464 -0.5062
   34MOL   C26524751   4.462   6.295   2.087 -0.2975 -0.1717  0.2227
   34MOL   C26624752   4.395   6.433   2.056 -0.2109  0.0906  0.2147
   34MOL   C26724753   4.351   6.491   2.189 -1.1227  0.6044  0.4644
   34MOL   C26824754   4.338   6.644   2.193 -0.0242  0.3628  0.6448
   34MOL   C26924755   4.299   6.695   2.332  0.8470 -0.7161  0.5328
   34MOL   C27024756   4.258   6.848   2.337  0.6783 -0.5895  0.5880
   34MOL   C27124757   4.379   6.943   2.317 -0.4099 -0.8465  0.3842
   34MOL   C27224758   4.403   6.967   2.165 -0.2385 -0.1155 -0.2968
   34MOL   C27324759   4.505   7.083   2.145 -0.1645  0.2876 -0.3862
   34MOL   N27424760   4.628   7.062   2.210  0.0971  0.1112 -0.0286
   34MOL   H27524761   4.476   6.048   2.053  1.1994 -0.7268  0.9725
   34MOL   H27624762   4.556   6.029   1.899 -1.0992  2.8721 -0.9414
   34MOL   H27724763   4.622   6.293   1.941  0.2893  0.6451  2.6856
   34MOL   H27824764   4.467   6.252   1.877 -0.7717 -1.1751  0.2272
   34MOL   H27924765   4.549   6.316   2.150  0.0847 -2.0743  0.3784
   34MOL   H28024766   4.404   6.236   2.158  0.6260 -0.0326  1.1058
   34MOL   H28124767   4.470   6.498   2.012  0.3736 -0.9213 -0.2983
   34MOL   H28224768   4.305   6.427   1.995 -0.3573  2.9961  0.0743
   34MOL   H28324769   4.432   6.475   2.260 -0.5924 -1.1669 -0.5026
   34MOL   H28424770   4.259   6.447   2.228 -1.2780 -0.5803 -1.1502
   34MOL   H28524771   4.257   6.662   2.121  0.5851 -2.7103 -0.9157
   34MOL   H28624772   4.429   6.697   2.163 -1.3541  1.8963 -0.8360
   34MOL   H28724773   4.376   6.682   2.408  0.6786  1.6223  1.1494
   34MOL   H28824774   4.209   6.642   2.363 -0.6750  0.8582 -1.1126
   34MOL   H28924775   4.209   6.857   2.434 -1.0124  0.4846 -0.3376
   34MOL   H29024776   4.172   6.872   2.275  0.4429 -0.0460  1.1224
   34MOL   H29124777   4.458   6.902   2.381 -0.0572  1.8460  1.7496
   34MOL   H29224778   4.338   7.034   2.360 -0.0313 -0.4132 -0.1612
   34MOL   H29324779   4.306   6.978   2.116 -1.1989 -0.4674  1.5037
   34MOL   H29424780   4.454   6.877   2.132  0.2450  0.5500 -1.4065
   34MOL   H29524781   4.462   7.178   2.177 -3.3024 -1.7748  1.9597
   34MOL   H29624782   4.515   7.094   2.037 -4.4993  1.0981 -0.8252
   34MOL   H29724783   4.663   7.138   2.266 -0.5569  0.2772  0.1512
   34MOL   C29824784   4.724   6.970   2.180  0.5409 -0.0963  0.3645
   34MOL   O29924785   4.697   6.886   2.091 -0.1611 -0.1378  0.0780
   34MOL   C30024786   4.857   6.973   2.261 -0.7843  0.1788 -0.6015
   34MOL   C30124787   4.957   7.019   2.161  0.1343 -0.2679  0.6981
   34MOL   C30224788   5.109   6.989   2.199  0.5076 -1.0235  0.2701
   34MOL   C30324789   5.212   7.016   2.082  0.1512 -0.5425  0.4112
   34MOL   C30424790   5.353   6.969   2.108 -0.3109 -0.3126  0.3305
   34MOL   C30524791   5.450   6.987   1.986  0.4496  0.8646 -0.3281
   34MOL   C30624792   5.599   6.990   2.026 -0.4510  0.1366  0.5121
   34MOL   C30724793   5.687   7.000   1.901  0.1208 -0.5057  1.1788
   34MOL   C30824794   5.836   7.023   1.924 -0.3871 -0.5207 -0.0413
   34MOL   C30924795   5.917   7.033   1.795  0.5263 -0.1386  0.2813
   34MOL   C31024796   6.060   7.068   1.834 -0.0451 -0.5743 -0.2762
   34MOL   N31124797   6.135   7.093   1.717 -0.4372 -0.1842 -0.7787
   34MOL   H31224798   4.877   6.871   2.293 -2.1043  0.8357  2.6111
   34MOL   H31324799   4.863   7.042   2.346  1.8520  2.2619 -2.3901
   34MOL   H31424800   4.952   6.973   2.062 -2.4006  2.3259 -0.4706
   34MOL   H31524801   4.950   7.126   2.137  0.1796 -0.6076 -0.9410
   34MOL   H31624802   5.106   6.883   2.224  2.3794 -1.0575  0.4156
   34MOL   H31724803   5.146   7.026   2.294 -0.8911  0.3520  0.2963
   34MOL   H31824804   5.171   6.969   1.993 -5.6433  0.3495  2.3800
   34MOL   H31924805   5.208   7.124   2.071  1.3826 -0.4566  0.7036
   34MOL   H32024806   5.351   6.867   2.146 -0.0167 -0.7457 -0.8040
   34MOL   H32124807   5.389   7.018   2.199  0.4585  0.1419 -0.2160
   34MOL   H32224808   5.413   7.082   1.945 -1.7752  1.2277  2.3379
   34MOL   H32324809   5.431   6.913   1.908  0.7755  1.0473 -0.5798
   34MOL   H32424810   5.631   6.906   2.088  3.2057  1.3056  0.3374
   34MOL   H32524811   5.608   7.082   2.084  0.9170 -0.4181  1.1910
   34MOL   H32624812   5.645   7.078   1.838  1.8101 -1.9312 -1.7911
   34MOL   H32724813   5.669   6.908   1.846 -0.0190 -0.7786  1.6802
   34MOL   H32824814   5.874   6.939   1.982 -1.9055 -0.1501  1.5340
   34MOL   H32924815   5.848   7.104   1.996  1.3214  1.2405 -2.2180
   34MOL   H33024816   5.876   7.102   1.722 -0.5225 -0.3080  0.7060
   34MOL   H33124817   5.925   6.939   1.740 -0.3355 -0.6904  1.0737
   34MOL   H33224818   6.102   6.985   1.892 -2.4005 -1.0491  0.7887
   34MOL   H33324819   6.054   7.156   1.897  1.1170 -0.3922 -0.3984
   34MOL   H33424820   6.089   7.057   1.634 -0.3454  1.6708 -1.6494
   34MOL   C33524821   6.236   7.179   1.696  0.2570  0.4050  0.3662
   34MOL   O33624822   6.312   7.221   1.785 -0.1480 -0.2424 -0.2895
   34MOL   C33724823   6.240   7.221   1.549 -0.0626  0.2711 -0.0235
   34MOL   C33824824   6.213   7.376   1.529  0.4482 -0.1387  0.1009
   34MOL   C33924825   6.066   7.418   1.527 -0.1305  0.4416  0.0701
   34MOL   C34024826   6.050   7.566   1.521  0.3202  0.0581  0.3006
   34MOL   C34124827   6.077   7.625   1.384 -0.5834  0.1318  0.0907
   34MOL   C34224828   6.103   0.077   1.392 -0.7022  0.5982  0.3164
   34MOL   C34324829   6.119   0.148   1.257 -0.4357 -0.5118 -0.1476
   34MOL   C34424830   6.241   0.114   1.183  0.4325 -0.0278 -0.0653
   34MOL   C34524831   6.361   0.205   1.220 -1.1547  0.2832  0.3390
   34MOL   C34624832   6.489   0.147   1.152 -1.0111  0.1143  0.4552
   34MOL   C34724833   6.598   0.253   1.171 -0.0173 -0.1466  0.4876
   34MOL   N34824834   6.723   0.212   1.107 -0.3813 -0.5541  0.4342
   34MOL   H34924835   6.164   7.171   1.489  0.0217  1.1795 -0.9128
   34MOL   H35024836   6.332   7.182   1.506  0.9929  2.3599  0.2557
   34MOL   H35124837   6.267   7.434   1.604  1.2845 -0.1717 -0.4700
   34MOL   H35224838   6.247   7.393   1.427 -2.2037 -1.4268 -1.0459
   34MOL   H35324839   6.012   7.381   1.614 -2.5708  0.1564 -1.5129
   34MOL   H35424840   6.020   7.377   1.437  0.7685  0.4115 -0.3819
   34MOL   H35524841   5.948   7.585   1.555 -0.3396 -0.3829 -1.3976
   34MOL   H35624842   6.121   7.606   1.593  1.5584 -1.0857 -0.2525
   34MOL   H35724843   5.996   7.598   1.316 -0.0454 -2.6624  0.5038
   34MOL   H35824844   6.162   7.571   1.342 -1.9392 -2.1610  0.1597
   34MOL   H35924845   6.188   0.084   1.459 -0.8410 -0.3733  0.6050
   34MOL   H36024846   6.023   0.116   1.455 -0.1011 -1.2857  2.2944
   34MOL   H36124847   6.116   0.255   1.276 -0.0950 -0.6847  0.9419
   34MOL   H36224848   6.030   0.140   1.194 -1.1462  1.0854  0.6164
   34MOL   H36324849   6.224   0.138   1.078 -2.0688 -0.7339  0.1499
   34MOL   H36424850   6.267   0.009   1.190  0.9606  0.1597  0.7687
   34MOL   H36524851   6.366   0.218   1.328 -0.2636 -0.8198  0.4385
   34MOL   H36624852   6.336   0.304   1.181 -2.0629 -0.7167 -1.6267
   34MOL   H36724853   6.480   0.129   1.045 -0.8797 -1.6589  0.7297
   34MOL   H36824854   6.509   0.052   1.201 -0.2214 -0.9676 -1.8744
   34MOL   H36924855   6.617   0.291   1.272 -2.1147  3.4705 -0.3993
   34MOL   H37024856   6.562   0.345   1.124  0.3016  0.2335  0.9779
   34MOL   H37124857   6.724   0.131   1.046 -0.2748  0.7017 -1.2554
   34MOL   C37224858   6.832   0.286   1.118 -0.0250 -0.1162 -1.0547
   34MOL   O37324859   6.842   0.384   1.193 -0.3230 -0.2573  0.1900
   34MOL   C37424860   6.947   0.244   1.027 -0.3192  0.3876  0.0499
   34MOL   C37524861   6.923   0.289   0.884  0.6463 -0.1224  0.3652
   34MOL   C37624862   6.958   0.440   0.862  0.2835 -0.2130  0.1491
   34MOL   C37724863   6.940   0.491   0.715  0.4579 -0.6263 -0.3709
   34MOL   C37824864   7.022   0.412   0.615 -0.9642  0.1212 -0.0728
   34MOL   C37924865   7.017   0.442   0.460  0.4801  0.0022  0.3940
   34MOL   C38024866   6.881   0.474   0.399 -0.5159  0.7969 -0.1597
   34MOL   C38124867   6.779   0.358   0.413 -0.6161 -0.4123  0.5938
   34MOL   C38224868   6.661   0.369   0.313  0.1820 -0.6589 -0.1394
   34MOL   C38324869   6.690   0.334   0.164 -0.2806  0.5789  0.1118
   34MOL   C38424870   6.556   0.325   0.089 -0.6073 -0.0975  0.7157
   34MOL   N38524871   6.562   0.269   7.651 -0.0875 -0.1758  0.4791
   34MOL   H38624872   6.943   0.136   1.021 -2.6440  0.3242  2.0449
   34MOL   H38724873   7.042   0.279   1.069 -1.7390  1.5565  2.3892
   34MOL   H38824874   6.974   0.225   0.812  0.1989  0.4131 -0.4309
   34MOL   H38924875   6.817   0.282   0.861  0.2065 -1.4899  2.5861
   34MOL   H39024876   7.058   0.470   0.894 -0.9023  3.0048  0.9692
   34MOL   H39124877   6.893   0.502   0.923  0.0834  1.9252 -2.1502
   34MOL   H39224878   6.836   0.491   0.685  0.2343  2.5646  0.1837
   34MOL   H39324879   6.947   0.600   0.724 -1.3386 -0.4447 -0.9988
   34MOL   H39424880   7.022   0.305   0.634 -1.1075 -0.0640 -1.1204
   34MOL   H39524881   7.123   0.437   0.648 -0.8508 -1.4358  0.8469
   34MOL   H39624882   7.049   0.353   0.406 -2.2233 -2.2520  2.3721
   34MOL   H39724883   7.077   0.529   0.431 -0.1291  0.7230  1.2467
   34MOL   H39824884   6.893   0.489   0.291 -0.3724  0.8496 -0.1368
   34MOL   H39924885   6.837   0.566   0.437 -2.6491 -0.1946 -0.1583
   34MOL   H40024886   6.727   0.362   0.509 -2.4647 -0.8233 -0.3782
   34MOL   H40124887   6.822   0.259   0.396 -0.8408 -0.3179 -0.5135
   34MOL   H40224888   6.623   0.471   0.318  1.0839 -0.2810 -0.9318
   34MOL   H40324889   6.579   0.306   0.347 -0.9074 -0.1831 -1.7984
   34MOL   H40424890   6.752   0.245   0.150 -0.3151  0.6660 -0.5841
   34MOL   H40524891   6.756   0.412   0.128 -1.1240  0.4620 -1.7270
   34MOL   H40624892   6.517   0.425   0.073 -1.4996 -0.9967 -3.2469
   34MOL   H40724893   6.486   0.268   0.150  1.8587 -3.2724  0.7228
   34MOL   H40824894   6.624   0.190   7.640  0.3782  0.3454 -0.7308
   34MOL   C40924895   6.467   0.288   7.557  0.3712 -0.1716  0.0528
   34MOL   O41024896   6.378   0.377   7.574 -0.3633  0.3608 -0.2763
   34MOL   C41124897   6.472   0.216   7.425 -0.0447 -0.5933 -0.0660
   34MOL   C41224898   6.404   0.077   7.431  0.3338 -0.1049 -0.3217
   34MOL   C41324899   6.253   0.074   7.432  0.0678  0.4459 -0.3190
   34MOL   C41424900   6.193   7.626   7.452  0.3369 -0.2446 -0.7644
   34MOL   C41524901   6.040   7.612   7.447 -0.2932  1.1213  0.2819
   34MOL   C41624902   6.005   7.473   7.484  0.7506  0.7218 -0.5319
   34MOL   C41724903   5.859   7.462   7.515 -0.2506  0.0514  0.1779
   34MOL   C41824904   5.817   7.322   7.551  0.2227 -0.5802  0.6497
   34MOL   C41924905   5.663   7.305   7.565 -0.0213 -0.6044  0.3129
   34MOL   C42024906   5.629   7.183   7.654  0.2903  0.3088 -0.6093
   34MOL   C42124907   5.486   7.136   7.681  0.0731 -0.2789  0.4098
   34MOL   N42224908   5.481   7.003   0.043 -0.7205 -0.9482 -0.5798
   34MOL   H42324909   6.565   0.202   7.371  0.3910  1.7406  0.0263
   34MOL   H42424910   6.406   0.279   7.365  0.8424  0.0062 -0.4256
   34MOL   H42524911   6.440   0.021   7.345  1.2199  0.0743 -0.0790
   34MOL   H42624912   6.435   0.022   7.520 -0.3572  0.6957  0.4230
   34MOL   H42724913   6.215   0.104   7.334 -1.0262 -2.9838 -1.0062
   34MOL   H42824914   6.207   0.150   7.496  0.2501  1.2529 -1.1480
   34MOL   H42924915   6.232   7.573   7.365 -1.2208 -2.9233  0.1036
   34MOL   H43024916   6.236   7.573   7.537  2.0665  1.5470 -0.4928
   34MOL   H43124917   6.011   7.644   7.347 -0.0899  1.0228  0.1914
   34MOL   H43224918   5.993   7.682   7.516 -2.0474 -0.4549  0.7578
   34MOL   H43324919   6.066   7.435   7.566  1.1787  1.0316 -0.7055
   34MOL   H43424920   6.035   7.404   7.406 -0.7323  0.3279 -0.7595
   34MOL   H43524921   5.805   7.509   7.433 -0.6282  0.4705  0.6631
   34MOL   H43624922   5.841   7.524   7.603  0.8983  1.1123 -0.3415
   34MOL   H43724923   5.861   7.295   7.646  1.9349  0.3899  0.1476
   34MOL   H43824924   5.860   7.251   7.480  1.3125  0.9275 -0.2371
   34MOL   H43924925   5.607   7.285   7.474 -0.7096 -0.6887  0.7528
   34MOL   H44024926   5.613   7.393   7.606 -1.2361 -1.4946  0.7649
   34MOL   H44124927   5.673   7.205   0.058 -0.6703 -0.2276 -0.0452
   34MOL   H44224928   5.685   7.093   7.629 -2.0845 -1.2675 -0.4186
   34MOL   H44324929   5.437   7.139   7.583  0.5956  0.7738  0.1746
   34MOL   H44424930   5.435   7.208   0.052  0.9918 -0.5381  1.4390
   34MOL   H44524931   5.529   6.931   7.685  1.6212  0.3358 -0.2893
   34MOL   C44624932   5.389   6.956   0.132  0.5600 -0.3462  0.6731
   34MOL   O44724933   5.343   7.038   0.218 -0.1783 -0.2455  0.1144
   34MOL   C44824934   5.354   6.805   0.136  0.1211 -0.3644 -0.6877
   34MOL   C44924935   5.285   6.758   0.274 -0.4215 -0.0811 -0.1391
   34MOL   C45024936   5.387   6.755   0.393 -0.0746 -0.1881  0.8575
   34MOL   C45124937   5.338   6.683   0.523  0.6533 -0.3402  0.3220
   34MOL   C45224938   5.443   6.651   0.632 -0.4301 -0.4011 -0.3268
   34MOL   C45324939   5.495   6.776   0.697  0.0678 -0.5706 -0.0866
   34MOL   C45424940   5.587   6.748   0.814 -0.2495  0.7272 -0.0856
   34MOL   C45524941   5.633   6.874   0.887 -0.2308  0.2495  0.1280
   34MOL   C45624942   5.702   6.857   1.022  0.1444  0.0028 -0.4088
   34MOL   C45724943   5.760   6.993   1.067 -0.1735  0.9762 -0.2966
   34MOL   C45824944   5.853   6.991   1.190 -0.3540 -0.2498  0.4560
   34MOL   N45924945   5.966   6.898   1.185  0.3890  0.0332 -0.4552
   34MOL   H46024946   5.444   6.749   0.112 -1.1548 -1.0020 -4.4417
   34MOL   H46124947   5.286   6.797   0.051  0.2258 -1.4230 -0.6782
   34MOL   H46224948   5.198   6.822   0.292 -1.6865 -1.7467 -0.1145
   34MOL   H46324949   5.250   6.656   0.260  1.0779 -0.8374  1.4424
   34MOL   H46424950   5.426   6.856   0.404  1.9899 -0.9560  0.9101
   34MOL   H46524951   5.466   6.692   0.351  0.3928  0.8106  0.2162
   34MOL   H46624952   5.269   6.744   0.581  2.7582  1.4596  1.0289
   34MOL   H46724953   5.285   6.593   0.493 -1.9801  1.4355 -0.4849
   34MOL   H46824954   5.519   6.590   0.583 -1.2224  0.2223 -2.3420
   34MOL   H46924955   5.403   6.595   0.717 -0.7394  0.2421 -0.0491
   34MOL   H47024956   5.415   6.841   0.732  0.8725  1.2386 -1.5232
   34MOL   H47124957   5.548   6.832   0.620  1.5763 -1.0738  0.5670
   34MOL   H47224958   5.667   6.682   0.779  0.3618  0.7121  1.2889
   34MOL   H47324959   5.531   6.689   0.886  1.4097 -0.6838  0.0982
   34MOL   H47424960   5.544   6.936   0.900 -0.0667  0.9160 -1.7278
   34MOL   H47524961   5.701   6.926   0.819  2.6050 -0.6658  2.1870
   34MOL   H47624962   5.771   6.772   1.016 -1.9815 -1.8062 -0.0591
   34MOL   H47724963   5.625   6.830   1.094  0.0470  1.3241 -0.0159
   34MOL   H47824964   5.676   7.058   1.089 -2.0734 -1.3190 -0.5253
   34MOL   H47924965   5.806   7.058   0.993 -0.4915  0.5450 -0.8855
   34MOL   H48024966   5.787   6.969   1.274 -0.4686  1.9625  0.9858
   34MOL   H48124967   5.894   7.090   1.214 -0.3260  0.2595 -1.6310
   34MOL   H48224968   5.957   6.826   1.114 -0.0474 -1.2229  0.8307
   34MOL   C48324969   6.060   6.880   1.281 -0.0607  1.0929 -0.2086
   34MOL   O48424970   6.086   6.959   1.368  0.7147 -0.8928  0.2745
   34MOL   C48524971   6.138   6.744   1.275  0.4885  0.1928 -0.9217
   34MOL   C48624972   6.280   6.755   1.229 -0.1514 -0.0105  0.3214
   34MOL   C48724973   6.351   6.625   1.240 -0.0273  0.0097 -0.3397
   34MOL   C48824974   6.496   6.644   1.199  0.5365 -0.2965 -0.1831
   34MOL   C48924975   6.577   6.511   1.176  1.0186  0.0566 -0.1812
   34MOL   C49024976   6.521   6.410   1.071 -0.2425 -0.0310  0.4312
   34MOL   C49124977   6.625   6.297   1.057  0.4777  0.4226  0.1549
   34MOL   C49224978   6.583   6.196   0.947  0.1886  0.0678 -0.7351
   34MOL   C49324979   6.490   6.096   0.997  0.2806  0.5166  0.4939
   34MOL   C49424980   6.534   5.988   1.095 -0.2150 -0.4599  0.1410
   34MOL   C49524981   6.622   5.878   1.038 -0.4279 -0.1007 -0.4757
   34MOL   N49624982   6.636   5.758   1.121  0.0647  0.6584  0.4451
   34MOL   H49724983   6.090   6.679   1.201  0.3969  0.5417 -1.1661
   34MOL   H49824984   6.114   6.702   1.373 -1.1980 -0.7407 -1.6964
   34MOL   H49924985   6.286   6.808   1.134 -1.6742 -0.0517  0.2021
   34MOL   H50024986   6.329   6.830   1.292  2.1575  0.4208 -1.8922
   34MOL   H50124987   6.308   6.555   1.168 -2.2651  0.3168  0.6708
   34MOL   H50224988   6.332   6.578   1.337  2.3642  1.2691  0.7815
   34MOL   H50324989   6.505   6.718   1.119 -2.6653 -0.3059 -0.6152
   34MOL   H50424990   6.541   6.697   1.283  1.4592  0.2942 -1.0363
   34MOL   H50524991   6.570   6.460   1.272  1.0238  1.0189  0.3402
   34MOL   H50624992   6.684   6.531   1.163  0.8732  0.3753 -0.9411
   34MOL   H50724993   6.499   6.462   0.978  1.3388 -1.3963 -0.7369
   34MOL   H50824994   6.430   6.371   1.116  0.5588 -2.6347 -0.1126
   34MOL   H50924995   6.671   6.266   1.151 -1.3141  0.3346  1.0079
   34MOL   H51024996   6.711   6.334   1.001  1.8515 -1.8947  0.6821
   34MOL   H51124997   6.667   6.141   0.905  0.1715 -0.4850 -0.0540
   34MOL   H51224998   6.539   6.255   0.866 -0.1349 -0.1226 -0.6975
   34MOL   H51324999   6.454   6.051   0.904  2.3259 -0.5785  0.1818
   34MOL   H51425000   6.409   6.153   1.042  0.2682  0.3788  0.6441
   34MOL   H51525001   6.442   5.935   1.120  0.4374 -1.9045 -0.4923
   34MOL   H51625002   6.564   6.031   1.191 -1.8346 -1.2743  1.0361
   34MOL   H51725003   6.718   5.930   1.029 -0.7410  0.3826 -1.0365
   34MOL   H51825004   6.587   5.855   0.938 -1.5057 -0.5192 -0.0034
   34MOL   H51925005   6.703   5.761   1.197  0.8570  1.4823 -0.2766
   34MOL   C52025006   6.571   5.644   1.090 -0.2578 -0.9030  0.3278
   34MOL   O52125007   6.488   5.645   1.000 -0.0194 -0.4366 -0.7232
   34MOL   C52225008   6.593   5.525   1.173  0.1016  0.5020  0.2094
   34MOL   C52325009   6.658   5.410   1.096  0.4516  0.2039  0.2570
   34MOL   C52425010   6.562   5.344   0.999 -0.0356 -0.7495 -0.4638
   34MOL   C52525011   6.615   5.220   0.930  0.2033  0.5602 -0.2656
   34MOL   C52625012   6.520   5.160   0.826 -0.3717  0.6939 -0.0122
   34MOL   C52725013   6.418   5.062   0.886  1.1324  0.5730 -0.5816
   34MOL   C52825014   6.295   5.039   0.793 -0.7927 -0.0207 -0.2456
   34MOL   C52925015   6.193   4.946   0.855  0.9257 -0.7326 -0.3047
   34MOL   C53025016   6.064   4.928   0.776  0.1837 -0.4382 -0.7210
   34MOL   C53125017   5.951   4.869   0.857 -0.0482  0.0152  0.1138
   34MOL   C53225018   5.811   4.862   0.787  0.0969  0.1611  0.3489
   34MOL   N53325019   5.760   4.994   0.753  0.0635 -0.1779 -0.3506
   34MOL   H53425020   6.495   5.493   1.208 -0.5490 -0.5687 -2.4692
   34MOL   H53525021   6.643   5.554   1.265  2.7272  2.4118 -1.7564
   34MOL   H53625022   6.743   5.449   1.040  1.2505 -0.4742  0.9853
   34MOL   H53725023   6.705   5.336   1.161 -1.3777 -1.0268  0.2069
   34MOL   H53825024   6.526   5.413   0.922 -0.7047  0.8181  1.2373
   34MOL   H53925025   6.475   5.310   1.054  0.4698  0.9076  1.3952
   34MOL   H54025026   6.702   5.251   0.872  1.0513 -0.3436  0.5034
   34MOL   H54125027   6.648   5.141   0.997 -2.9582 -1.0400 -0.5020
   34MOL   H54225028   6.578   5.114   0.746  0.2409  0.3913  0.5913
   34MOL   H54325029   6.470   5.244   0.780 -0.7417  1.8521  2.4212
   34MOL   H54425030   6.386   5.091   0.986 -0.3810  2.6033 -1.6133
   34MOL   H54525031   6.465   4.966   0.905 -0.4776  0.0958  1.1594
   34MOL   H54625032   6.320   4.996   0.696 -1.3158 -0.5920 -0.1256
   34MOL   H54725033   6.248   5.133   0.762 -0.5971 -0.6780 -2.6802
   34MOL   H54825034   6.173   4.985   0.955  1.1291  1.1096 -0.9602
   34MOL   H54925035   6.223   4.844   0.880 -1.7601 -2.2402 -2.8609
   34MOL   H55025036   6.094   4.864   0.693  2.0269 -1.2757  0.5325
   34MOL   H55125037   6.032   5.015   0.719  0.2799  1.6017  2.2029
   34MOL   H55225038   5.935   4.915   0.955 -2.4641 -0.2052 -0.1522
   34MOL   H55325039   5.984   4.771   0.889 -1.4056 -0.1919  0.9201
   34MOL   H55425040   5.750   4.803   0.855  0.5311  0.2936  0.8659
   34MOL   H55525041   5.831   4.816   0.691 -1.2631  1.0533 -0.3762
   34MOL   H55625042   5.822   5.056   0.703  0.8206 -1.1040 -0.5768
   34MOL   C55725043   5.644   5.044   0.798 -0.1242 -0.3912 -0.4308
   34MOL   O55825044   5.569   4.974   0.864  0.1694 -0.2184  0.3568
   34MOL   C55925045   5.609   5.190   0.782  0.1926 -0.2158  0.7592
   34MOL   C56025046   5.565   5.262   0.909  0.3134 -0.1606 -0.2996
   34MOL   C56125047   5.667   5.267   1.030  0.0256 -0.5635  0.4584
   34MOL   C56225048   5.604   5.324   1.158 -0.6240  0.3308 -0.3288
   34MOL   C56325049   5.699   5.387   1.266 -0.1825 -0.4616 -0.0414
   34MOL   C56425050   5.626   5.422   1.402  0.1078  0.1981  0.2279
   34MOL   C56525051   5.717   5.474   1.515  0.3113  0.2604 -0.4748
   34MOL   C56625052   5.808   5.358   1.581  0.2011 -0.2245  0.8577
   34MOL   C56725053   5.734   5.250   1.663 -0.0595 -0.0680 -1.0912
   34MOL   C56825054   5.800   5.114   1.670  0.2075 -0.3627 -0.6364
   34MOL   C56925055   5.743   5.025   1.783 -0.0547 -0.3476  0.5968
   34MOL   N57025056   5.796   5.056   1.913  0.3230  0.6519  0.4790
   34MOL   H57125057   5.518   5.187   0.722 -0.7209  0.7609  2.0703
   34MOL   H57225058   5.683   5.249   0.728 -0.3944 -0.0527  0.1221
   34MOL   H57325059   5.554   5.367   0.884 -0.3471  0.4406  2.3658
   34MOL   H57425060   5.478   5.210   0.949  1.6866 -3.6469 -1.6569
   34MOL   H57525061   5.753   5.328   1.003 -2.1558  0.2936 -5.0992
   34MOL   H57625062   5.708   5.168   1.052 -0.4607 -1.1196 -1.1085
   34MOL   H57725063   5.528   5.396   1.127  0.7648  1.3118 -1.4539
   34MOL   H57825064   5.537   5.253   1.207 -1.6142  0.6164 -1.2501
   34MOL   H57925065   5.753   5.476   1.233 -0.5511 -0.4950 -0.7307
   34MOL   H58025066   5.775   5.309   1.272 -0.3327 -0.5386  0.9012
   34MOL   H58125067   5.576   5.330   1.432  2.1551 -0.9408  0.2163
   34MOL   H58225068   5.544   5.490   1.379  2.3974  2.4708 -1.5056
   34MOL   H58325069   5.647   5.499   1.595 -1.0434  1.9926 -2.1646
   34MOL   H58425070   5.778   5.558   1.481  2.9966 -2.0459 -1.5719
   34MOL   H58525071   5.883   5.404   1.646  2.6251  0.1748 -2.1062
   34MOL   H58625072   5.869   5.316   1.502  0.1173 -0.4450  0.9114
   34MOL   H58725073   5.637   5.242   1.614 -1.1798 -0.6473  1.1565
   34MOL   H58825074   5.714   5.293   1.761 -0.5670  0.9485 -1.6416
   34MOL   H58925075   5.905   5.124   1.699 -0.4549 -2.2862  2.7403
   34MOL   H59025076   5.801   5.070   1.570  2.7448  0.9130 -1.2198
   34MOL   H59125077   5.738   4.919   1.759 -0.5866  0.0642 -1.1145
   34MOL   H59225078   5.636   5.046   1.786 -0.1701 -0.9206  0.4050
   34MOL   H59325079   5.844   5.143   1.930  2.4616 -0.4935  0.6228
   34MOL   C59425080   5.771   4.978   2.018  0.4142  0.6756  0.1836
   34MOL   O59525081   5.714   4.868   2.012 -0.5166 -0.2803 -0.4128
   34MOL   C59625082   5.803   5.030   2.154 -0.2822  0.5514 -0.4101
   34MOL   C59725083   5.791   4.926   2.262 -0.2105  1.3453 -0.2131
   34MOL   C59825084   5.819   4.990   2.398  0.7073  0.6807  0.1814
   34MOL   C59925085   5.810   4.887   2.513 -0.2250 -0.2521 -0.7399
   34MOL   C60025086   5.818   4.961   2.648  0.5389  0.4284  0.5370
   34MOL   C60125087   5.841   4.874   2.770  0.5037  0.0307 -0.0656
   34MOL   C60225088   5.776   4.923   2.899 -0.2674 -0.5369 -0.2618
   34MOL   C60325089   5.784   4.808   3.016  0.3895 -1.1659 -0.2767
   34MOL   C60425090   5.720   4.844   3.152  0.0330  0.3499  0.3666
   34MOL   C60525091   5.719   4.723   3.251  0.7658  0.1712  0.3574
   34MOL   C60625092   5.678   4.749   3.392 -0.0773  0.2392  0.2735
   34MOL   N60725093   5.545   4.810   3.391  0.1768  0.1728  0.4468
   34MOL   H60825094   5.745   5.121   2.166 -0.0991  0.4114  1.6334
   34MOL   H60925095   5.908   5.058   2.152  0.7661 -3.1723 -0.1495
   34MOL   H61025096   5.693   4.879   2.262 -0.9479  2.8546 -0.3759
   34MOL   H61125097   5.865   4.849   2.240  0.5166  1.8798  0.3223
   34MOL   H61225098   5.750   5.071   2.419 -1.0137 -0.9527  0.9600
   34MOL   H61325099   5.920   5.030   2.404  2.3350 -3.1564  0.0099
   34MOL   H61425100   5.716   4.836   2.493 -1.5506  2.5171 -1.9361
   34MOL   H61525101   5.891   4.815   2.510 -1.0825 -1.1851 -2.4302
   34MOL   H61625102   5.736   5.032   2.662  1.2151  1.3400  0.0010
   34MOL   H61725103   5.906   5.026   2.646  2.0940 -1.6404 -0.7113
   34MOL   H61825104   5.948   4.861   2.784  0.1348 -0.9207  2.1189
   34MOL   H61925105   5.801   4.777   2.739 -0.8551 -0.0905  1.9812
   34MOL   H62025106   5.668   4.936   2.888  0.1067  1.9111 -1.2929
   34MOL   H62125107   5.826   5.015   2.928  1.9597 -1.9357  0.4208
   34MOL   H62225108   5.883   4.763   3.024 -0.3547 -2.3696  2.9255
   34MOL   H62325109   5.713   4.728   2.999  0.7705 -1.5696  0.0266
   34MOL   H62425110   5.614   4.865   3.136 -0.4023 -1.4997  0.7149
   34MOL   H62525111   5.773   4.927   3.199 -0.6031  0.0138  1.7178
   34MOL   H62625112   5.824   4.693   3.259  0.7423 -0.0682 -0.2574
   34MOL   H62725113   5.670   4.637   3.207  0.7217  1.2480 -1.7240
   34MOL   H62825114   5.743   4.818   3.445  0.3777 -0.3809  0.5280
   34MOL   H62925115   5.687   4.653   3.444  3.3422  0.3765  0.0030
   34MOL   H63025116   5.486   4.808   3.309  1.0557  3.2214 -0.3268
   34MOL   C63125117   5.486   4.865   3.496  0.8683  0.5697  0.2590
   34MOL   O63225118   5.373   4.919   3.491  0.1253  0.1408  0.2327
   34MOL   C63325119   5.559   4.846   3.638  1.0052  0.5163  0.1529
   34MOL   C63425120   5.449   4.879   3.753 -0.3544 -0.3210  0.3165
   34MOL   C63525121   5.499   4.883   3.905 -0.2580 -0.3873 -0.1640
   34MOL   C63625122   5.382   4.895   4.003  0.2812  0.4760 -0.3226
   34MOL   C63725123   5.280   4.780   4.010 -0.4629  0.8842  0.2023
   34MOL   C63825124   5.139   4.827   4.046  0.7634 -0.5959 -0.5009
   34MOL   C63925125   5.027   4.729   4.003  0.0857  0.1354  0.2984
   34MOL   C64025126   5.000   4.616   4.097 -0.6249  0.1941 -0.3644
   34MOL   C64125127   5.088   4.496   4.088  0.2627 -0.0245 -0.1251
   34MOL   C64225128   5.028   4.365   4.154 -0.4040 -0.1913  0.1385
   34MOL   C64325129   5.106   4.231   4.128  0.6028 -0.6667  0.4027
   34MOL   N64425130   5.236   4.226   4.204  0.2558 -0.4585  0.0217
   34MOL   H64525131   5.643   4.914   3.652  0.3529  1.1905  0.8297
   34MOL   H64625132   5.582   4.740   3.648  1.4152  0.6190  0.3011
   34MOL   H64725133   5.407   4.977   3.732 -0.3840 -0.8124 -1.9844
   34MOL   H64825134   5.366   4.810   3.742 -0.1004 -1.0708  2.7568
   34MOL   H64925135   5.556   4.975   3.915  1.4841 -1.2678 -1.8127
   34MOL   H65025136   5.563   4.796   3.916  1.8495  1.3169  1.6731
   34MOL   H65125137   5.424   4.922   4.100  0.4425  0.9412 -0.5195
   34MOL   H65225138   5.331   4.990   3.988 -0.0925  0.4757  0.8871
   34MOL   H65325139   5.323   4.702   4.072 -0.4530  1.7113  1.2466
   34MOL   H65425140   5.278   4.728   3.914  0.0738  1.0432  0.1063
   34MOL   H65525141   5.117   4.918   3.989 -1.4328 -1.5743 -1.2709
   34MOL   H65625142   5.139   4.852   4.152  0.2329  3.2140 -1.3035
   34MOL   H65725143   5.042   4.692   3.902  0.3840  1.1173 -0.0281
   34MOL   H65825144   4.940   4.792   3.987 -0.9518 -1.5960 -1.0295
   34MOL   H65925145   4.902   4.585   4.060 -0.3754 -1.5721  0.3814
   34MOL   H66025146   4.975   4.642   4.200  2.4250 -3.6564  1.4511
   34MOL   H66125147   5.183   4.524   4.134  0.5257 -0.7792 -0.2037
   34MOL   H66225148   5.105   4.471   3.984 -1.1804 -0.6241 -0.2354
   34MOL   H66325149   4.925   4.352   4.120  0.0670  0.0911 -1.4505
   34MOL   H66425150   5.028   4.372   4.262  1.2810  1.6269  0.0485
   34MOL   H66525151   5.109   4.216   4.020 -0.5059 -1.0026  0.4121
   34MOL   H66625152   5.052   4.144   4.167  3.6993 -3.0228 -0.3076
   34MOL   H66725153   5.241   4.207   4.303  0.2448  2.5384  0.6476
   34MOL   C66825154   5.350   4.263   4.153 -0.1114  0.3009  0.4323
   34MOL   O66925155   5.365   4.307   4.042 -0.3349  0.3725  0.2750
   34MOL   C67025156   5.478   4.244   4.233  0.5711 -0.3018 -0.0277
   34MOL   C67125157   5.533   4.364   4.318  0.9373  1.2839 -0.2856
   34MOL   C67225158   5.592   4.485   4.239  0.5578  0.4926  0.3371
   34MOL   C67325159   5.630   4.586   4.337 -0.1608 -0.2255  0.3806
   34MOL   C67425160   5.662   4.725   4.292  0.0691 -0.3860  0.1564
   34MOL   C67525161   5.794   4.736   4.226 -0.2614  0.2610  0.2363
   34MOL   C67625162   5.821   4.885   4.183 -0.1097 -0.5581 -0.1425
   34MOL   C67725163   5.963   4.912   4.128  0.6795  0.1399  0.6400
   34MOL   C67825164   5.962   5.045   4.047  0.2242 -0.1101 -0.0032
   34MOL   C67925165   5.954   5.175   4.125  0.0431  0.4629 -0.0888
   34MOL   C68025166   5.963   5.293   4.031  0.0718 -0.1556 -0.0992
   34MOL   N68125167   5.954   5.424   4.088  0.0893  0.6488 -0.1623
   34MOL   H68225168   5.545   4.208   4.155 -0.4031  2.1834 -2.0787
   34MOL   H68325169   5.463   4.166   4.308 -1.0028 -0.7550 -0.7971
   34MOL   H68425170   5.444   4.405   4.367 -0.6878  0.6171 -2.5563
   34MOL   H68525171   5.601   4.313   4.386 -0.3353  2.6019  2.0613
   34MOL   H68625172   5.499   4.522   4.195  0.4728  0.8577  0.8188
   34MOL   H68725173   5.667   4.460   4.164  0.6641  1.5963  0.0616
   34MOL   H68825174   5.555   4.596   4.415 -3.1497 -0.2008 -2.4100
   34MOL   H68925175   5.719   4.544   4.384 -0.3285 -0.5933  0.3735
   34MOL   H69025176   5.650   4.789   4.380 -1.7193 -1.2454  0.5816
   34MOL   H69125177   5.578   4.767   4.237 -1.3498 -3.4211 -0.1529
   34MOL   H69225178   5.794   4.669   4.140 -0.3150 -0.2593  0.6408
   34MOL   H69325179   5.874   4.708   4.293  0.2474 -1.0883 -0.8988
   34MOL   H69425180   5.806   4.958   4.263 -4.1324  0.7760 -2.0002
   34MOL   H69525181   5.747   4.926   4.114 -3.3816 -1.8474  2.4595
   34MOL   H69625182   5.998   4.827   4.069 -1.7563 -1.1047  0.9310
   34MOL   H69725183   6.028   4.920   4.216  1.2535 -1.4007  0.3818
   34MOL   H69825184   5.884   5.050   3.971 -0.2145  1.4942  0.5266
   34MOL   H69925185   6.052   5.045   3.985 -0.3368 -2.3058 -0.8683
   34MOL   H70025186   6.035   5.187   4.197 -0.4384  0.7430  0.4090
   34MOL   H70125187   5.857   5.177   4.174 -0.7515 -1.5659 -1.5302
   34MOL   H70225188   5.883   5.277   3.959 -0.7735  3.0756  0.0525
   34MOL   H70325189   6.055   5.287   3.974 -0.3852  0.7405 -0.9498
   34MOL   H70425190   5.920   5.430   4.183 -1.1559 -0.1549 -0.5445
   34MOL   C70525191   6.003   5.529   4.030 -0.7424 -0.7187 -0.0903
   34MOL   O70625192   6.045   5.524   3.918 -0.0396 -0.0872  0.5341
   34MOL   C70725193   5.996   5.666   4.098  0.4419  0.1850  0.0396
   34MOL   C70825194   6.110   5.766   4.077  0.0309 -0.4314 -0.2622
   34MOL   C70925195   6.241   5.731   4.148  0.2154  0.2300  0.5445
   34MOL   C71025196   6.342   5.853   4.145  0.5090 -0.3173 -0.1085
   34MOL   C71125197   6.481   5.810   4.201  0.3477 -0.9074  0.6384
   34MOL   C71225198   6.579   5.921   4.230  0.6922 -0.5212 -0.0173
   34MOL   C71325199   6.704   5.873   4.311 -0.2674 -0.0279  0.2658
   34MOL   C71425200   6.797   5.776   4.233  0.2680  0.3997  0.1004
   34MOL   C71525201   6.847   5.848   4.108 -0.3830  0.1902 -0.5928
   34MOL   C71625202   6.926   5.985   4.115  0.6992  0.0445 -0.0517
   34MOL   C71725203   6.936   6.071   3.990 -0.1493  0.0022 -0.0988
   34MOL   N71825204   7.037   6.172   4.010 -0.9872  0.3536 -0.4917
   34MOL   H71925205   5.949   5.667   4.196 -1.5904  1.5914 -0.9249
   34MOL   H72025206   5.913   5.710   4.043  0.3764  1.8895  1.4535
   34MOL   H72125207   6.132   5.771   3.970 -2.4029 -1.3694 -0.8299
   34MOL   H72225208   6.076   5.863   4.113  2.9300  0.5211  0.0685
   34MOL   H72325209   6.283   5.645   4.095 -1.9138 -0.5326  0.0486
   34MOL   H72425210   6.215   5.705   4.250 -0.6750  3.2325  1.1176
   34MOL   H72525211   6.340   5.903   4.048 -2.2789  0.6351  0.4111
   34MOL   H72625212   6.295   5.923   4.213  0.0454  0.5415 -1.2911
   34MOL   H72725213   6.515   5.733   4.132  2.7135  0.7006 -0.0673
   34MOL   H72825214   6.450   5.762   4.294 -1.3191  0.3246  0.7442
   34MOL   H72925215   6.538   6.003   4.289  0.2074 -0.5296 -0.3386
   34MOL   H73025216   6.609   5.980   4.143  1.0832  0.6986  0.9291
   34MOL   H73125217   6.671   5.832   4.407  1.0355 -2.4977 -0.2742
   34MOL   H73225218   6.772   5.954   4.337 -0.4774 -0.2645  1.6314
   34MOL   H73325219   6.752   5.678   4.221  1.4686  0.0554 -1.7081
   34MOL   H73425220   6.881   5.754   4.298  0.3514 -0.9347 -0.4452
   34MOL   H73525221   6.759   5.869   4.047  0.9037  2.1771 -1.8284
   34MOL   H73625222   6.902   5.772   4.054  0.4672 -0.9139  1.7383
   34MOL   H73725223   7.024   5.971   4.161  1.8260  0.5125 -2.2191
   34MOL   H73825224   6.879   6.051   4.187  0.8739 -1.0416  1.0747
   34MOL   H73925225   6.835   6.109   3.971 -0.4622 -0.2973  0.9311
   34MOL   H74025226   6.971   6.015   3.903 -1.3521 -2.2089  0.8009
   34MOL   H74125227   6.988   6.227   4.079  0.0790  0.1264  0.4530
   34MOL   H74225228   7.033   6.230   3.927  1.4433  0.6144 -0.4558
   35MOL     C125229   5.743   7.636   3.960 -0.6181  0.2170  0.1415
   35MOL     O225230   5.814   7.538   3.981 -0.3222  0.7485  0.2457
   35MOL     C325231   5.667   7.649   3.826 -0.1906 -0.0014  0.6882
   35MOL     C425232   5.758   7.630   3.704  0.6272  0.4079 -0.4642
   35MOL     C525233   5.806   0.069   3.651  0.6566  0.7736  0.4491
   35MOL     C625234   5.895   0.144   3.752 -0.3744  0.6696 -0.2040
   35MOL     C725235   5.978   0.251   3.688  0.0566 -0.3372 -0.4539
   35MOL     C825236   6.065   0.336   3.784  0.3093 -0.5033  0.0716
   35MOL     C925237   6.124   0.462   3.723  0.0555 -0.4298  0.5781
   35MOL    C1025238   6.204   0.550   3.818 -0.7022  0.0642  0.3954
   35MOL    C1125239   6.349   0.487   3.823  0.1752  0.1839  0.5812
   35MOL    C1225240   6.439   0.548   3.709 -0.2872  0.2776 -0.2700
   35MOL    C1325241   6.588   0.555   3.742 -0.3070  0.2755 -0.3814
   35MOL    N1425242   6.665   0.601   3.619 -0.0367  0.5037 -0.3904
   35MOL    H1525243   5.613   0.050   3.821 -0.9286 -0.4191  0.6669
   35MOL    H1625244   5.590   7.572   3.828  1.8853 -2.1789 -0.5263
   35MOL    H1725245   5.845   7.570   3.733  0.4135  0.7964  1.0477
   35MOL    H1825246   5.699   7.572   3.634  0.1397  1.7799 -1.1969
   35MOL    H1925247   5.725   0.130   3.610  1.6399  1.1317 -1.0395
   35MOL    H2025248   5.859   0.026   3.565  0.0528  1.7546 -0.4355
   35MOL    H2125249   5.832   0.188   3.829 -1.8791 -1.2772 -0.2478
   35MOL    H2225250   5.965   0.077   3.801 -2.4757 -0.9621  0.6715
   35MOL    H2325251   5.921   0.318   3.623 -1.0005 -0.6486  0.1332
   35MOL    H2425252   6.038   0.191   3.620  0.9156  0.7737 -0.6871
   35MOL    H2525253   6.146   0.268   3.807  0.8862  1.1489  3.2843
   35MOL    H2625254   6.022   0.360   3.881  1.9006 -0.4295  0.7778
   35MOL    H2725255   6.042   0.518   3.678  1.1404 -0.6365 -1.7259
   35MOL    H2825256   6.189   0.436   3.640 -0.5311 -2.2947  0.6884
   35MOL    H2925257   6.159   0.563   3.917 -0.7536  2.8312  0.0689
   35MOL    H3025258   6.221   0.651   3.780 -0.0716  0.0255  0.5648
   35MOL    H3125259   6.346   0.380   3.804  0.4834  0.1419  0.7630
   35MOL    H3225260   6.402   0.512   3.915 -1.9142 -0.7250  2.0765
   35MOL    H3325261   6.420   0.653   3.688 -0.3249  0.9126  2.7182
   35MOL    H3425262   6.427   0.488   3.618  0.2535  1.5094 -1.1645
   35MOL    H3525263   6.624   0.458   3.777 -0.8288  1.2104  2.9264
   35MOL    H3625264   6.593   0.622   3.828 -1.1158 -1.5165  1.0932
   35MOL    H3725265   6.712   0.526   3.570 -1.3527  0.4223 -1.5405
   35MOL    H3825266   5.716   0.021   4.030 -0.4523  0.4094 -0.0098
   35MOL    C3925267   6.702   0.726   3.595 -0.1562  0.5040  0.0568
   35MOL    O4025268   6.657   0.824   3.661 -0.4151 -0.7593 -0.3382
   35MOL    C4125269   6.799   0.750   3.483 -0.3278  0.1292  0.3940
   35MOL    C4225270   6.871   0.888   3.471 -0.5630 -0.1980  0.0794
   35MOL    C4325271   6.963   0.923   3.586  0.2414  0.1187 -0.1463
   35MOL    C4425272   7.037   1.058   3.556 -0.2690  0.3014  0.1880
   35MOL    C4525273   7.131   1.103   3.679  0.6760  0.0896  0.2269
   35MOL    C4625274   7.055   1.141   3.807 -0.4029 -0.0827 -0.3731
   35MOL    C4725275   7.149   1.192   3.911 -0.7048  0.5560 -0.9305
   35MOL    C4825276   7.081   1.208   4.046  0.7103 -0.2297  0.3606
   35MOL    C4925277   7.165   1.273   4.157  0.0037  0.3526 -0.2062
   35MOL    C5025278   7.096   1.301   4.289  0.4711  0.2233  0.8318
   35MOL    C5125279   7.191   1.371   4.393 -0.3087  0.1784  0.1027
   35MOL    N5225280   7.106   1.451   4.486 -0.2270 -0.0666 -0.2325
   35MOL    H5325281   6.740   0.737   3.392 -0.7621  0.2371  0.6590
   35MOL    H5425282   6.877   0.674   3.488 -2.1540 -1.7229  1.8789
   35MOL    H5525283   6.911   0.903   3.371  2.6883 -0.8537  1.2192
   35MOL    H5625284   6.797   0.968   3.469  1.8772  2.1899  1.2964
   35MOL    H5725285   7.037   0.843   3.589  0.2747  0.1850  1.1382
   35MOL    H5825286   6.911   0.922   3.682  0.1975 -0.0751 -0.1740
   35MOL    H5925287   7.101   1.038   3.470 -0.4054 -0.8474  0.3570
   35MOL    H6025288   6.965   1.136   3.531 -0.8195 -0.3339 -0.2347
   35MOL    H6125289   7.201   1.183   3.653 -0.6447  1.9967  2.3719
   35MOL    H6225290   7.199   1.021   3.703  0.8595  0.5638  1.3212
   35MOL    H6325291   6.990   1.059   3.837  0.8632 -0.8023  0.4046
   35MOL    H6425292   6.977   1.217   3.795  0.1631  0.5350 -0.1432
   35MOL    H6525293   7.197   1.287   3.887 -0.1904  0.0412 -1.9610
   35MOL    H6625294   7.231   1.121   3.919 -0.7371  0.8029  2.2365
   35MOL    H6725295   7.035   1.114   4.077  0.6710  0.3048  1.9843
   35MOL    H6825296   6.997   1.275   4.030 -0.0835 -1.2038  0.4132
   35MOL    H6925297   7.201   1.370   4.124  0.0062  0.6639  0.6858
   35MOL    H7025298   7.259   1.221   4.173  0.1121  1.0177  1.5053
   35MOL    H7125299   7.050   1.211   4.330 -1.8545  1.2952  0.6404
   35MOL    H7225300   7.016   1.370   4.264 -0.1537 -0.5454  0.6696
   35MOL    H7325301   7.262   1.437   4.342  0.3144 -0.5765 -0.0125
   35MOL    H7425302   7.247   1.297   4.449  1.3082  1.3911  0.1248
   35MOL    H7525303   7.009   1.424   4.480  0.3933 -2.3212 -0.5837
   35MOL    C7625304   7.151   1.541   4.574  0.2206  0.1291 -0.1992
   35MOL    O7725305   7.270   1.567   4.590  0.6905 -0.2223  0.3294
   35MOL    C7825306   7.039   1.608   4.653  0.3693  0.2556  0.3179
   35MOL    C7925307   7.083   1.637   4.801 -0.2287  0.8092  0.0259
   35MOL    C8025308   6.987   1.713   4.891  0.2319  0.4318  0.2288
   35MOL    C8125309   6.867   1.632   4.940 -0.9962 -0.4207 -0.6609
   35MOL    C8225310   6.804   1.713   5.050  0.1534 -0.0328 -0.1071
   35MOL    C8325311   6.679   1.648   5.118 -0.5402 -0.8303 -0.6092
   35MOL    C8425312   6.620   1.735   5.232 -0.0986  0.2084  0.3745
   35MOL    C8525313   6.706   1.720   5.365  0.0559  0.1633 -0.2160
   35MOL    C8625314   6.700   1.841   5.451  0.4523  0.4082  0.7094
   35MOL    C8725315   6.775   1.963   5.407  0.0159  0.3258 -0.0283
   35MOL    C8825316   6.808   2.059   5.522  1.0091  0.5259  0.0427
   35MOL    N8925317   6.907   2.160   5.481  0.2474  0.2282  0.0010
   35MOL    H9025318   6.953   1.540   4.650  0.7610 -0.2180 -0.4888
   35MOL    H9125319   7.025   1.708   4.612  1.3541  0.3830  0.2780
   35MOL    H9225320   7.103   1.548   4.860 -4.0530 -1.1286 -1.3987
   35MOL    H9325321   7.173   1.698   4.803  1.1243 -1.1634  0.8910
   35MOL    H9425322   6.956   1.807   4.845 -0.3738 -1.8574 -4.3017
   35MOL    H9525323   7.040   1.743   4.982 -2.4894  1.5616  1.5036
   35MOL    H9625324   6.789   1.611   4.866 -0.3028  0.0376 -1.5351
   35MOL    H9725325   6.904   1.537   4.979 -1.0830 -0.1128  0.1886
   35MOL    H9825326   6.779   1.818   5.031  0.5517  0.2016  0.6649
   35MOL    H9925327   6.878   1.717   5.130  1.7331  0.6857 -1.5964
   35MOL   H10025328   6.699   1.548   5.155 -4.4650 -2.2395 -2.1260
   35MOL   H10125329   6.602   1.638   5.042 -0.5702  0.1280 -0.7124
   35MOL   H10225330   6.514   1.712   5.246 -0.2104  1.3209  1.3806
   35MOL   H10325331   6.627   1.838   5.200  3.0608  0.0100  0.3173
   35MOL   H10425332   6.812   1.710   5.342 -0.0248  0.4750 -0.7570
   35MOL   H10525333   6.680   1.635   5.427  0.3205  0.2327 -0.0078
   35MOL   H10625334   6.737   1.820   5.551 -0.5580  0.2115  1.0521
   35MOL   H10725335   6.593   1.860   5.449  0.5451  0.7825 -1.7564
   35MOL   H10825336   6.726   2.015   5.324  1.9944  1.0723 -0.7502
   35MOL   H10925337   6.869   1.930   5.364  0.6587  0.4855  1.2436
   35MOL   H11025338   6.839   2.009   5.614 -0.5283  0.7528  0.7064
   35MOL   H11125339   6.716   2.115   5.542  1.1256  0.6494  0.2329
   35MOL   H11225340   6.985   2.166   5.545  1.2870  0.1353 -1.2409
   35MOL   C11325341   6.896   2.253   5.386  0.2724 -0.4055  0.3411
   35MOL   O11425342   6.801   2.255   5.311 -0.0296 -0.2283 -0.2466
   35MOL   C11525343   7.010   2.352   5.362 -0.7639 -0.4270  0.8650
   35MOL   C11625344   6.986   2.490   5.412  0.3270  0.1502 -0.0520
   35MOL   C11725345   7.103   2.554   5.482 -0.5633 -0.5892 -0.5017
   35MOL   C11825346   7.066   2.696   5.551  0.0369 -0.0326  0.5075
   35MOL   C11925347   7.188   2.771   5.607  0.4631 -0.6762 -0.0803
   35MOL   C12025348   7.280   2.826   5.498 -0.4831  0.3382  0.0390
   35MOL   C12125349   7.406   2.738   5.472  0.5182 -0.2401 -0.4283
   35MOL   C12225350   7.518   2.810   5.396 -0.6004 -0.7114  0.2853
   35MOL   C12325351   7.489   2.847   5.250  0.2576  0.0640 -0.9051
   35MOL   C12425352   7.602   2.916   5.176  0.8926  0.6203  0.0975
   35MOL   C12525353   7.569   2.938   5.031  0.1497 -0.1299  0.4830
   35MOL   N12625354   7.547   2.808   4.962 -0.3378  0.3463 -0.0934
   35MOL   H12725355   7.017   2.352   5.253 -1.4282  1.2120  0.8260
   35MOL   H12825356   7.101   2.320   5.413  0.4052  1.6870  0.1595
   35MOL   H12925357   6.964   2.541   5.318  2.9904  0.6332 -0.4637
   35MOL   H13025358   6.892   2.496   5.466  0.1864  2.5651 -0.4983
   35MOL   H13125359   7.187   2.554   5.413 -0.7682  1.5579 -0.7705
   35MOL   H13225360   7.124   2.494   5.570 -2.1323 -0.3085  0.0829
   35MOL   H13325361   7.010   2.759   5.482 -2.1414  0.5176  2.7018
   35MOL   H13425362   7.000   2.680   5.636  0.3139  1.1665  0.9443
   35MOL   H13525363   7.252   2.703   5.664  0.9180  0.2598  0.5510
   35MOL   H13625364   7.152   2.851   5.672 -0.6080 -1.5329  0.3921
   35MOL   H13725365   7.306   2.926   5.534 -1.4453 -0.6455  3.6495
   35MOL   H13825366   7.221   2.837   5.407 -0.2988 -0.9045 -0.2435
   35MOL   H13925367   7.384   2.641   5.427 -0.6940 -0.2301  0.1221
   35MOL   H14025368   7.439   2.713   5.573 -0.2304 -1.6155 -0.5104
   35MOL   H14125369   7.605   2.745   5.405 -0.1921 -0.6160 -2.4303
   35MOL   H14225370   7.547   2.903   5.445  0.4039 -1.2648  0.7502
   35MOL   H14325371   7.396   2.902   5.235  0.2653  0.2061 -0.4184
   35MOL   H14425372   7.464   2.752   5.202  2.5515 -0.7265 -0.5944
   35MOL   H14525373   7.686   2.850   5.197  0.2840 -0.2954 -0.3053
   35MOL   H14625374   7.629   3.012   5.219  0.7018  1.2217 -1.1169
   35MOL   H14725375   7.647   2.994   4.981 -1.3523  1.2483 -0.3584
   35MOL   H14825376   7.480   3.001   5.022  0.9647  1.2900  2.1000
   35MOL   H14925377   7.453   2.772   4.956 -1.2243  2.3126  1.6683
   35MOL   C15025378   7.640   2.740   4.892  0.4291 -0.1071  0.0594
   35MOL   O15125379   0.071   2.763   4.896 -0.1246  0.3276 -0.3169
   35MOL   C15225380   7.596   2.632   4.794 -0.8241 -0.2702  0.3256
   35MOL   C15325381   7.612   2.497   4.867  0.0570 -0.7981 -0.4145
   35MOL   C15425382   7.527   2.385   4.797  0.2723 -0.5176 -0.0780
   35MOL   C15525383   7.568   2.253   4.852  0.1217  0.4485 -0.5528
   35MOL   C15625384   7.481   2.138   4.795  0.0237 -0.2939  0.2874
   35MOL   C15725385   7.535   2.013   4.851  0.0475 -0.1196  0.1517
   35MOL   C15825386   7.449   1.894   4.812  0.2150 -0.1483 -0.2780
   35MOL   C15925387   7.507   1.764   4.855 -0.2725 -1.0481 -0.3368
   35MOL   C16025388   7.620   1.714   4.759 -0.3130  0.0637  1.0744
   35MOL   C16125389   7.692   1.588   4.806  0.0104 -0.2867  0.5076
   35MOL   C16225390   0.138   1.571   4.735 -0.4719  0.1233 -0.1450
   35MOL   N16325391   0.216   1.464   4.794  0.0335  0.0915 -0.1594
   35MOL   H16425392   7.669   2.629   4.714 -1.7474  0.6459 -0.5630
   35MOL   H16525393   7.499   2.634   4.744 -0.9129  0.3076  0.5241
   35MOL   H16625394   0.022   2.462   4.862  0.5652  0.7626 -1.3573
   35MOL   H16725395   7.579   2.495   4.971 -1.2995 -0.7398 -0.8359
   35MOL   H16825396   7.541   2.381   4.689 -0.3491  2.0510 -0.2935
   35MOL   H16925397   7.420   2.403   4.810  0.5100  0.5772  0.4330
   35MOL   H17025398   7.674   2.236   4.833  0.5460  0.8966  1.3365
   35MOL   H17125399   7.558   2.260   4.960  0.5042 -1.8507 -0.3400
   35MOL   H17225400   7.481   2.140   4.686  2.9066  0.2154  0.2683
   35MOL   H17325401   7.378   2.143   4.831  0.3004  0.2087  1.0151
   35MOL   H17425402   7.528   2.032   4.958  0.3856 -1.7847  0.4924
   35MOL   H17525403   7.637   1.994   4.817  0.8629  0.5983  2.1700
   35MOL   H17625404   7.418   1.909   4.708 -2.1495  0.5977  0.4978
   35MOL   H17725405   7.355   1.901   4.867 -0.8193 -1.5981 -1.7782
   35MOL   H17825406   7.430   1.687   4.859 -1.5047  0.2051  0.8186
   35MOL   H17925407   7.544   1.768   4.958 -1.0874  2.4078 -0.1052
   35MOL   H18025408   0.006   1.787   4.742  1.9493 -2.5938 -0.1830
   35MOL   H18125409   7.587   1.701   4.656  0.3350  1.3811  0.6871
   35MOL   H18225410   7.633   1.499   4.785 -1.1387  0.1322  1.8349
   35MOL   H18325411   0.025   1.589   4.912 -2.1938  0.1166  1.0872
   35MOL   H18425412   0.197   1.662   4.749 -0.5773 -0.1902  2.7705
   35MOL   H18525413   0.114   1.560   4.630  0.6185 -0.8288 -0.3040
   35MOL   H18625414   0.240   1.478   4.891 -0.6088  2.3043 -0.2882
   35MOL   C18725415   0.269   1.366   4.719  0.2444  0.0300 -0.2801
   35MOL   O18825416   0.249   1.349   4.603 -0.2347  0.4700 -0.3676
   35MOL   C18925417   0.379   1.275   4.779  0.0080 -0.1852  0.3620
   35MOL   C19025418   0.332   1.130   4.797  0.1707  0.0931 -0.3448
   35MOL   C19125419   0.441   1.039   4.855 -0.0939  0.4034  0.1830
   35MOL   C19225420   0.390   0.902   4.906  0.3150  0.9269  0.0306
   35MOL   C19325421   0.468   0.850   5.027 -0.0358  0.0727  0.6194
   35MOL   C19425422   0.391   0.873   5.161  0.0797 -0.0624 -0.2757
   35MOL   C19525423   0.390   1.021   5.205  0.0721  0.6115  0.3683
   35MOL   C19625424   0.298   1.034   5.332 -0.7319 -0.7525  0.9614
   35MOL   C19725425   0.322   1.171   5.392 -0.2769  0.1839  0.9180
   35MOL   C19825426   0.227   1.200   5.508  0.1971 -0.2800  0.7410
   35MOL   C19925427   0.257   1.338   5.571  0.3753 -0.3277 -0.2240
   35MOL   N20025428   0.155   1.376   5.671 -0.4551 -0.1778  0.1616
   35MOL   H20125429   0.414   1.315   4.874  0.3881  0.5664 -0.0879
   35MOL   H20225430   0.463   1.272   4.710 -0.2600 -0.1890  0.0321
   35MOL   H20325431   0.249   1.134   4.867  0.5414 -1.6881  0.2361
   35MOL   H20425432   0.289   1.084   4.708 -1.7181 -1.4409  1.3283
   35MOL   H20525433   0.499   1.099   4.924 -0.0308  0.2864  0.2321
   35MOL   H20625434   0.527   1.028   4.788 -0.1525 -1.5078  0.3902
   35MOL   H20725435   0.282   0.891   4.916  0.1535  0.2411 -2.1861
   35MOL   H20825436   0.390   0.838   4.818 -0.8933  0.7789  0.1232
   35MOL   H20925437   0.563   0.903   5.029 -1.2312  2.2613  2.9321
   35MOL   H21025438   0.483   0.746   4.996  1.2883  0.0331  1.3581
   35MOL   H21125439   0.418   0.801   5.238  1.4284 -0.5005 -1.1355
   35MOL   H21225440   0.290   0.848   5.129  0.7013 -1.1846 -1.4292
   35MOL   H21325441   0.344   1.078   5.125  2.1329  1.7347 -0.0323
   35MOL   H21425442   0.493   1.050   5.224  0.6804 -0.1994 -1.5724
   35MOL   H21525443   0.336   0.966   5.408 -2.1885 -1.1465  1.3462
   35MOL   H21625444   0.193   1.012   5.313  0.1243 -2.2269 -2.5103
   35MOL   H21725445   0.312   1.240   5.308 -0.5268  0.7785  1.4318
   35MOL   H21825446   0.427   1.176   5.419 -0.5117  0.2990  1.8374
   35MOL   H21925447   0.234   1.123   5.585  1.6136 -1.8176 -0.8744
   35MOL   H22025448   0.125   1.203   5.470  0.1722  2.6581  0.9737
   35MOL   H22125449   0.254   1.413   5.493 -1.5499  0.5100  0.6071
   35MOL   H22225450   0.355   1.343   5.618  0.5699 -0.2108 -0.6413
   35MOL   H22325451   0.069   1.324   5.679  0.2289 -1.3410  0.0620
   35MOL   C22425452   0.176   1.463   5.771  0.1892  0.7594  0.5794
   35MOL   O22525453   0.106   1.455   5.872  0.0610 -0.5708  0.0309
   35MOL   C22625454   0.283   1.569   5.758 -1.3158 -0.1710 -0.1491
   35MOL   C22725455   0.233   1.715   5.730  0.4680 -0.6051 -0.6448
   35MOL   C22825456   0.179   1.733   5.590  0.1322  0.1835 -1.2623
   35MOL   C22925457   0.105   1.870   5.592  0.3366 -0.3234  0.0336
   35MOL   C23025458   0.016   1.890   5.465 -1.0554 -0.7638  0.0146
   35MOL   C23125459   7.651   2.032   5.484  0.4983 -0.0266  0.3956
   35MOL   C23225460   7.581   2.073   5.357  0.7567  0.3335  0.0007
   35MOL   C23325461   7.494   2.203   5.368  0.5022 -0.8661 -0.3900
   35MOL   C23425462   7.462   2.263   5.228  0.8164  0.2872  0.1485
   35MOL   C23525463   7.334   2.353   5.225  0.5129  0.2302 -0.4306
   35MOL   C23625464   7.334   2.465   5.114 -1.0193  0.0127  0.9309
   35MOL   N23725465   7.200   2.532   5.101 -0.0588 -0.1143 -0.0623
   35MOL   H23825466   0.364   1.535   5.693 -0.7397 -1.8682  1.4034
   35MOL   H23925467   0.340   1.568   5.851  0.5380  0.3624 -1.2529
   35MOL   H24025468   0.149   1.732   5.797 -0.3767  0.6941 -1.9993
   35MOL   H24125469   0.318   1.781   5.743 -0.0699  0.1815 -1.1017
   35MOL   H24225470   0.102   1.658   5.573  1.8086 -2.0020  0.5800
   35MOL   H24325471   0.258   1.727   5.515  0.1019  2.0327 -1.4752
   35MOL   H24425472   0.047   1.883   5.683 -2.0037  0.1426 -1.4860
   35MOL   H24525473   0.178   1.950   5.608  0.0828  0.1132 -0.8899
   35MOL   H24625474   7.630   1.816   5.457 -1.9957  0.0132  1.8594
   35MOL   H24725475   0.075   1.886   5.374  0.6421 -0.1054  1.0483
   35MOL   H24825476   0.039   2.095   5.522 -0.2212 -0.2470  2.3495
   35MOL   H24925477   7.576   2.030   5.562  0.3446 -3.4069  0.2305
   35MOL   H25025478   7.516   1.991   5.325  1.4626 -1.1266  2.1721
   35MOL   H25125479   7.647   2.077   5.270 -1.5089  3.2549 -1.6694
   35MOL   H25225480   7.557   2.278   5.415  1.3252 -0.8879 -1.4357
   35MOL   H25325481   7.407   2.189   5.432  1.0957 -2.2004  0.1405
   35MOL   H25425482   7.441   2.187   5.152 -1.9111  3.2195 -2.1620
   35MOL   H25525483   7.556   2.316   5.208  0.3172  1.0717 -0.1195
   35MOL   H25625484   7.317   2.390   5.326  0.8071  0.1221 -0.3429
   35MOL   H25725485   7.256   2.279   5.207 -0.1796  1.4349 -2.6011
   35MOL   H25825486   7.362   2.420   5.019  0.2921 -1.6441  2.0686
   35MOL   H25925487   7.406   2.543   5.134 -0.5052  0.0066 -0.8241
   35MOL   H26025488   7.116   2.478   5.114  0.2233 -0.9188 -1.5041
   35MOL   C26125489   7.183   2.660   5.058  0.0107  0.6967 -0.1200
   35MOL   O26225490   7.276   2.730   5.016  0.2484 -0.0118 -0.2735
   35MOL   C26325491   7.043   2.720   5.041  0.0039 -0.2484 -0.6162
   35MOL   C26425492   7.018   2.839   5.140 -0.0619 -0.3019 -0.5899
   35MOL   C26525493   6.866   2.874   5.168  0.5296  0.0926 -0.5526
   35MOL   C26625494   6.794   2.769   5.259  0.0235  0.1551  0.5079
   35MOL   C26725495   6.653   2.818   5.274  0.1331  0.0405 -0.9286
   35MOL   C26825496   6.561   2.725   5.362  0.1993 -0.2169  0.1441
   35MOL   C26925497   6.416   2.772   5.375 -0.1186 -0.5019 -0.3412
   35MOL   C27025498   6.408   2.899   5.468  1.3112  0.2193  0.4373
   35MOL   C27125499   6.260   2.948   5.472 -0.3879  0.4818  0.4071
   35MOL   C27225500   6.231   3.043   5.591  0.1149 -0.4198  0.6298
   35MOL   C27325501   6.083   3.066   5.602 -0.2848  0.0900 -0.9674
   35MOL   N27425502   6.056   3.133   5.730  0.0107 -0.2495 -0.0148
   35MOL   H27525503   6.973   2.641   5.069 -1.8461  0.9898 -1.6112
   35MOL   H27625504   7.034   2.747   4.936  1.5894  1.9889 -0.2088
   35MOL   H27725505   7.057   2.804   5.236  1.9063  2.2279 -0.4170
   35MOL   H27825506   7.070   2.934   5.127 -1.9891  0.9355  0.4741
   35MOL   H27925507   6.819   2.886   5.071  0.0701 -3.3955 -0.8211
   35MOL   H28025508   6.856   2.970   5.218 -1.6806 -0.5433  0.2808
   35MOL   H28125509   6.801   2.672   5.210 -0.4009 -0.0660  0.8827
   35MOL   H28225510   6.849   2.770   5.353 -0.4215  1.0060  0.7635
   35MOL   H28325511   6.618   2.817   5.170  2.4029 -0.3511 -1.7301
   35MOL   H28425512   6.653   2.924   5.302  0.5850 -0.6124  1.6241
   35MOL   H28525513   6.610   2.724   5.459 -3.6071  0.6177  2.1509
   35MOL   H28625514   6.574   2.624   5.324 -0.8891 -0.1335 -0.4518
   35MOL   H28725515   6.352   2.697   5.421 -0.9043  0.8059  0.7458
   35MOL   H28825516   6.376   2.787   5.274  0.2453 -0.6559 -0.5095
   35MOL   H28925517   6.472   2.978   5.429  1.2963  0.0520  0.0732
   35MOL   H29025518   6.444   2.874   5.568  1.5033 -1.8221 -0.1103
   35MOL   H29125519   6.191   2.863   5.478 -0.9509  0.9971  1.3937
   35MOL   H29225520   6.236   2.986   5.373 -0.2804 -0.4362  0.0185
   35MOL   H29325521   6.274   3.143   5.586 -1.1924  0.2272  1.9439
   35MOL   H29425522   6.267   2.990   5.679 -0.6236  0.6078  1.5605
   35MOL   H29525523   6.022   2.976   5.605 -2.0588  1.3171  0.3214
   35MOL   H29625524   6.059   3.124   5.513 -0.0294 -0.2902 -1.2942
   35MOL   H29725525   6.004   3.093   5.807 -2.4835  0.9545 -0.9860
   35MOL   C29825526   6.080   3.260   5.752  0.6428  0.2749  0.1861
   35MOL   O29925527   6.139   3.336   5.677  0.2210  0.1233 -0.2162
   35MOL   C30025528   6.040   3.316   5.888  0.1827  0.0653 -0.6084
   35MOL   C30125529   6.162   3.318   5.981  0.0441 -0.3856  0.0110
   35MOL   C30225530   6.236   3.184   6.004  0.3410  0.2967  0.0471
   35MOL   C30325531   6.373   3.212   6.064  0.0905  0.7260 -0.5311
   35MOL   C30425532   6.447   3.077   6.092 -0.0170 -0.3756 -0.7350
   35MOL   C30525533   6.576   3.099   6.167 -0.0916  0.3747  0.1561
   35MOL   C30625534   6.567   3.129   6.312  0.1237  0.3224 -0.5782
   35MOL   C30725535   6.698   3.137   6.392 -0.0525 -0.2662 -0.2496
   35MOL   C30825536   6.750   3.000   6.449  0.8197 -0.4180  0.2914
   35MOL   C30925537   6.876   3.011   6.526  0.1999  0.5395 -0.5409
   35MOL   C31025538   6.915   2.878   6.591 -0.1722  0.1610  0.2074
   35MOL   N31125539   6.926   2.775   6.492  0.1969  0.4491  0.7526
   35MOL   H31225540   5.951   3.273   5.934  1.4384  0.8546  2.7160
   35MOL   H31325541   6.014   3.421   5.877  1.3378  0.3890 -0.3307
   35MOL   H31425542   6.227   3.400   5.950 -1.3079  1.1771  1.2371
   35MOL   H31525543   6.120   3.348   6.077  0.8951 -0.2914  0.3613
   35MOL   H31625544   6.267   3.140   5.909  0.2985 -0.5247  0.4169
   35MOL   H31725545   6.182   3.115   6.068 -0.6343 -0.6057 -1.7243
   35MOL   H31825546   6.433   3.275   5.997  1.5355 -0.6817 -0.5994
   35MOL   H31925547   6.370   3.266   6.159  0.7740 -0.6354  0.2862
   35MOL   H32025548   6.474   3.026   5.999 -0.7900 -0.6736 -0.8011
   35MOL   H32125549   6.384   3.008   6.148  0.8590  0.6075  1.4900
   35MOL   H32225550   6.644   3.160   6.108 -0.0802 -0.1220 -0.3500
   35MOL   H32325551   6.631   3.005   6.160 -0.9421  0.0047 -1.7917
   35MOL   H32425552   6.490   3.061   6.347 -0.6042  0.4502 -1.8855
   35MOL   H32525553   6.536   3.233   6.305 -0.4038  0.0832 -2.0477
   35MOL   H32625554   6.672   3.209   6.469 -2.3484 -0.0850 -1.1563
   35MOL   H32725555   6.776   3.194   6.342 -0.8586  1.0839  0.0185
   35MOL   H32825556   6.753   2.921   6.374 -0.2816  0.2856 -0.5109
   35MOL   H32925557   6.675   2.958   6.516  1.2415 -2.5178 -0.4881
   35MOL   H33025558   6.875   3.098   6.591  1.7552 -1.7100  2.6367
   35MOL   H33125559   6.955   3.041   6.457  0.0471 -0.4365 -1.1506
   35MOL   H33225560   6.838   2.853   6.664 -0.4996  1.3930  0.2783
   35MOL   H33325561   7.007   2.892   6.648  0.2155  0.6718 -0.5296
   35MOL   H33425562   6.967   2.801   6.403 -0.3833  1.7244  0.8482
   35MOL   C33525563   6.856   2.659   6.493 -0.6120 -0.1376 -0.1146
   35MOL   O33625564   6.803   2.615   6.592 -0.2415  0.0202  0.1533
   35MOL   C33725565   6.852   2.574   6.369 -0.1278 -0.3641 -0.6231
   35MOL   C33825566   6.716   2.509   6.335 -0.1780 -0.0669 -0.2279
   35MOL   C33925567   6.613   2.623   6.315 -1.4709 -0.3891 -0.1622
   35MOL   C34025568   6.471   2.570   6.291 -0.1093  0.3091 -0.0270
   35MOL   C34125569   6.368   2.684   6.279  0.8119 -0.1827  0.3373
   35MOL   C34225570   6.216   2.637   6.296 -0.4388  0.0656 -0.0425
   35MOL   C34325571   6.114   2.751   6.305  0.1351  0.3554 -0.0490
   35MOL   C34425572   6.110   2.831   6.441  0.0162  0.0737  0.1849
   35MOL   C34525573   5.993   2.930   6.458 -0.7869  0.0829 -0.0568
   35MOL   C34625574   6.000   3.058   6.374 -0.7245  0.1307  0.5567
   35MOL   C34725575   5.920   3.173   6.417  0.2061 -0.0549  0.2488
   35MOL   N34825576   5.937   3.285   6.327 -0.0627 -0.2352  0.2466
   35MOL   H34925577   6.915   2.488   6.392  1.6205  0.9105 -0.5643
   35MOL   H35025578   6.895   2.638   6.292 -1.4000  2.0907  0.6434
   35MOL   H35125579   6.705   2.444   6.247  0.7507  1.3957 -1.4523
   35MOL   H35225580   6.686   2.448   6.420  0.6179 -1.3698 -0.8591
   35MOL   H35325581   6.645   2.695   6.241  1.7240 -1.7260 -0.1568
   35MOL   H35425582   6.613   2.673   6.412 -0.3169  0.8563 -0.7938
   35MOL   H35525583   6.460   2.517   6.197  0.5984  1.3899 -0.7294
   35MOL   H35625584   6.433   2.505   6.370  0.1991 -0.9609 -0.9215
   35MOL   H35725585   6.388   2.741   6.188  0.8038  0.5068  0.7617
   35MOL   H35825586   6.393   2.755   6.358 -1.0381 -0.1060  0.8728
   35MOL   H35925587   6.197   2.572   6.381  0.5451  0.9161  0.8385
   35MOL   H36025588   6.201   2.585   6.201  3.5314  1.8351 -1.7604
   35MOL   H36125589   6.015   2.714   6.278 -0.2969  2.3392 -1.2980
   35MOL   H36225590   6.127   2.827   6.228 -1.8119  0.5453 -0.2057
   35MOL   H36325591   6.206   2.881   6.459  0.6144 -1.3495  0.9916
   35MOL   H36425592   6.091   2.761   6.523 -1.5816 -0.4428 -0.6092
   35MOL   H36525593   5.988   2.957   6.563 -0.3870 -1.2089  0.2944
   35MOL   H36625594   5.904   2.869   6.444  1.1260 -3.3684  2.2628
   35MOL   H36725595   5.971   3.023   6.275  0.0558  0.9895  0.0147
   35MOL   H36825596   6.106   3.082   6.367 -0.8013  0.7309  1.4371
   35MOL   H36925597   5.941   3.195   6.521  1.9997 -2.0864  0.3625
   35MOL   H37025598   5.813   3.151   6.417  0.2366 -0.3006  2.2088
   35MOL   H37125599   5.995   3.259   6.248 -0.5025  0.2381 -0.2372
   35MOL   C37225600   5.882   3.404   6.352 -1.1654 -0.0947  0.2104
   35MOL   O37325601   5.812   3.412   6.452  0.1370 -0.0421 -0.2967
   35MOL   C37425602   5.938   3.528   6.284 -0.2347 -0.8229 -0.3880
   35MOL   C37525603   5.841   3.602   6.192  0.0813  0.3342 -0.0183
   35MOL   C37625604   5.724   3.668   6.266  0.7623 -0.1106  0.2429
   35MOL   C37725605   5.645   3.764   6.177 -0.4990  0.0349 -0.0634
   35MOL   C37825606   5.571   3.700   6.062  0.1809  0.3927 -0.4247
   35MOL   C37925607   5.544   3.805   5.959 -0.3340  0.2716 -0.0887
   35MOL   C38025608   5.516   3.750   5.826  0.1771 -0.0920  0.6148
   35MOL   C38125609   5.367   3.735   5.788 -0.1295 -0.2551  0.1853
   35MOL   C38225610   5.326   3.716   5.635  0.7367  0.6317 -0.0843
   35MOL   C38325611   5.412   3.607   5.565 -0.3787  0.5206  0.6313
   35MOL   C38425612   5.385   3.589   5.414  0.2371  0.4102 -0.3733
   35MOL   N38525613   5.437   3.466   5.346 -0.6418 -0.4045 -0.1734
   35MOL   H38625614   6.037   3.517   6.240  0.2119  0.5443  0.2486
   35MOL   H38725615   5.971   3.590   6.367 -1.5462  2.9593 -2.5702
   35MOL   H38825616   5.887   3.680   6.132  1.5989  0.4709  1.2827
   35MOL   H38925617   5.807   3.523   6.126  1.6787  1.6987 -2.5732
   35MOL   H39025618   5.771   3.725   6.346 -1.3938  0.0931  1.4095
   35MOL   H39125619   5.652   3.599   6.312  0.3013 -0.4406 -0.9700
   35MOL   H39225620   5.581   3.834   6.231  1.0629  2.1686 -0.8836
   35MOL   H39325621   5.727   3.828   6.144  1.1746 -2.7544 -1.5222
   35MOL   H39425622   5.478   3.654   6.095  0.6271  0.7596  1.4125
   35MOL   H39525623   5.624   3.613   6.025 -2.5618 -0.6444 -2.0138
   35MOL   H39625624   5.625   3.879   5.953 -0.7606  0.6746 -1.1372
   35MOL   H39725625   5.452   3.855   5.988 -1.2520  0.2863 -2.8601
   35MOL   H39825626   5.574   3.662   5.801  1.5424  0.7096  0.8822
   35MOL   H39925627   5.549   3.824   5.752 -0.2934 -0.4615  0.0340
   35MOL   H40025628   5.327   3.829   5.826 -2.1109 -1.7361  1.8973
   35MOL   H40125629   5.313   3.664   5.851  0.6553 -0.0565  1.0862
   35MOL   H40225630   5.344   3.813   5.589 -2.4556  1.4890  0.3725
   35MOL   H40325631   5.221   3.687   5.629  1.3772 -1.5989 -1.1061
   35MOL   H40425632   5.401   3.510   5.614  2.0238  0.5587  1.3155
   35MOL   H40525633   5.518   3.629   5.575 -0.0367  0.3212 -2.1190
   35MOL   H40625634   5.421   3.679   5.365  0.0324  0.9744  0.5102
   35MOL   H40725635   5.277   3.598   5.396 -0.0143 -1.1544  0.2704
   35MOL   H40825636   5.535   3.448   5.359 -0.3893 -1.3536 -3.0063
   35MOL   C40925637   5.367   3.398   5.256 -0.3534 -0.5274  0.0702
   35MOL   O41025638   5.249   3.420   5.233  0.2155 -0.8385  0.1986
   35MOL   C41125639   5.435   3.283   5.173 -0.3034 -0.7449 -0.0973
   35MOL   C41225640   5.365   3.241   5.051 -0.6618  0.1562  0.6104
   35MOL   C41325641   5.456   3.153   4.958  0.4545  0.6761  0.5102
   35MOL   C41425642   5.362   3.109   4.843 -0.5846 -0.1431  0.2575
   35MOL   C41525643   5.438   3.024   4.740 -0.2506  0.2898 -0.0517
   35MOL   C41625644   5.345   3.005   4.614  0.1836  0.0586  0.2797
   35MOL   C41725645   5.383   2.893   4.517  0.8759  0.1223 -0.2186
   35MOL   C41825646   5.512   2.917   4.440  0.1904 -0.6985  0.5375
   35MOL   C41925647   5.508   3.029   4.337  0.0921 -0.1261 -0.6439
   35MOL   C42025648   5.637   3.044   4.253 -0.4217 -0.7910 -0.1379
   35MOL   C42125649   5.636   3.170   4.160  0.2496  0.3048 -0.1758
   35MOL   N42225650   5.769   3.200   4.116 -0.1756  0.5931 -0.4997
   35MOL   H42325651   5.447   3.192   5.234 -0.8020 -1.0113 -0.3978
   35MOL   H42425652   5.541   3.304   5.161 -0.2985 -1.4229 -1.3485
   35MOL   H42525653   5.282   3.177   5.080 -1.5668  0.6027 -0.8934
   35MOL   H42625654   5.339   3.330   4.993 -0.2090 -0.8491 -1.1750
   35MOL   H42725655   5.507   3.068   5.004 -1.1002 -1.1455 -1.0102
   35MOL   H42825656   5.535   3.219   4.924 -0.3353  1.4937  0.2334
   35MOL   H42925657   5.273   3.064   4.887  0.1064 -2.1284 -0.3611
   35MOL   H43025658   5.336   3.203   4.793 -1.3505  0.2009  1.2920
   35MOL   H43125659   5.463   2.929   4.787 -0.2214  0.2692 -0.1098
   35MOL   H43225660   5.530   3.075   4.713  1.5256 -2.2487  0.9599
   35MOL   H43325661   5.331   3.101   4.564  0.3468  0.0784  0.2729
   35MOL   H43425662   5.246   2.970   4.644 -0.8230  3.4922  1.2370
   35MOL   H43525663   5.312   2.898   4.435  0.6364  0.9605  0.0413
   35MOL   H43625664   5.374   2.794   4.562 -0.5583 -0.2396 -1.2644
   35MOL   H43725665   5.540   2.826   4.388  0.7343  0.1325 -0.6616
   35MOL   H43825666   5.598   2.939   4.503 -0.2293 -1.1185  1.2643
   35MOL   H43925667   5.498   3.125   4.388 -0.8239 -0.3530 -0.3913
   35MOL   H44025668   5.419   3.009   4.277  1.4574 -1.5913 -2.2632
   35MOL   H44125669   5.643   2.954   4.191 -2.5270  1.8644 -4.4314
   35MOL   H44225670   5.718   3.057   4.325 -1.3989  1.6791  0.5577
   35MOL   H44325671   5.609   3.262   4.213 -0.5105 -0.4986  0.8499
   35MOL   H44425672   5.569   3.142   4.078  0.1280 -3.4809  1.1483
   35MOL   H44525673   5.825   3.234   4.192 -1.5948 -0.6969  1.1773
   35MOL   C44625674   5.817   3.184   3.992  0.3704 -0.0509  0.1183
   35MOL   O44725675   5.753   3.126   3.904 -0.6550 -0.1632 -0.0831
   35MOL   C44825676   5.956   3.243   3.955 -0.5594 -0.4403 -0.8488
   35MOL   C44925677   6.009   3.209   3.816 -0.0124  0.2468  0.6115
   35MOL   C45025678   6.075   3.073   3.804 -0.3849  0.2591  0.5036
   35MOL   C45125679   6.145   3.052   3.666 -0.3412 -0.6116  0.1656
   35MOL   C45225680   6.191   2.908   3.639  1.1211  0.3738 -0.0578
   35MOL   C45325681   6.071   2.812   3.604 -0.8132 -0.2114 -0.1823
   35MOL   C45425682   6.109   2.681   3.538 -0.0527 -0.4903 -0.1562
   35MOL   C45525683   5.994   2.580   3.517 -0.0799 -0.0741  0.4026
   35MOL   C45625684   6.022   2.465   3.413  0.1953 -0.7962  0.3352
   35MOL   C45725685   5.902   2.378   3.399  0.4494  0.3132  0.3099
   35MOL   C45825686   5.906   2.285   3.275 -0.2545  0.6222 -0.2467
   35MOL   N45925687   5.775   2.210   3.261 -0.1074 -0.0576 -0.4342
   35MOL   H46025688   6.035   3.212   4.023 -0.6379 -3.9842 -2.2550
   35MOL   H46125689   5.957   3.351   3.966  2.6826 -0.5801  0.5958
   35MOL   H46225690   5.931   3.225   3.741 -0.5907 -0.8020  0.9814
   35MOL   H46325691   6.069   3.298   3.797 -0.8115  1.0013  1.5557
   35MOL   H46425692   5.987   3.009   3.809 -0.4997  0.3404 -0.3793
   35MOL   H46525693   6.137   3.043   3.889  2.5913 -1.8482 -2.2786
   35MOL   H46625694   6.082   3.082   3.582  0.6558 -1.2519 -0.8314
   35MOL   H46725695   6.224   3.126   3.675 -0.0699 -1.1809  2.7117
   35MOL   H46825696   6.253   2.854   3.711  1.0984  0.2924 -0.0988
   35MOL   H46925697   6.249   2.919   3.547  1.2788 -2.9664 -0.4303
   35MOL   H47025698   6.015   2.867   3.528 -1.4194 -1.2708 -0.5313
   35MOL   H47125699   6.011   2.776   3.688  1.1696 -0.2179  1.2591
   35MOL   H47225700   6.197   2.643   3.590 -0.1783 -0.0183  0.3998
   35MOL   H47325701   6.147   2.704   3.439  0.4063 -1.3014 -0.1731
   35MOL   H47425702   5.897   2.623   3.494  0.1555  1.0071  1.3817
   35MOL   H47525703   5.983   2.536   3.616  3.9918  1.4580  1.6752
   35MOL   H47625704   6.114   2.415   3.440  0.2907  0.5722  2.5917
   35MOL   H47725705   6.047   2.509   3.316  0.1285  1.1453  1.1772
   35MOL   H47825706   5.811   2.438   3.392  0.3341 -0.0705 -2.1777
   35MOL   H47925707   5.902   2.315   3.487 -0.7079  3.4801  2.6774
   35MOL   H48025708   5.991   2.217   3.281 -1.0978 -0.5147 -0.7309
   35MOL   H48125709   5.924   2.338   3.181  0.2261 -1.0064 -1.1001
   35MOL   H48225710   5.696   2.242   3.314  0.2434  1.0472 -0.5630
   35MOL   C48325711   5.751   2.123   3.160  0.4313  1.0216  0.2986
   35MOL   O48425712   5.845   2.076   3.088  0.2020 -0.0576 -0.0358
   35MOL   C48525713   5.607   2.069   3.144  0.3378 -0.2617 -0.2162
   35MOL   C48625714   5.524   2.145   3.040 -0.8179  0.0449 -0.8835
   35MOL   C48725715   5.498   2.293   3.072 -0.0229  0.2293 -0.2083
   35MOL   C48825716   5.437   2.370   2.954  0.2911  0.3654  0.3669
   35MOL   C48925717   5.423   2.519   2.994  0.1947 -0.2467  0.4753
   35MOL   C49025718   5.322   2.549   3.111  0.3334  0.0979 -0.0056
   35MOL   C49125719   5.287   2.698   3.119  0.0319  0.7778 -0.4570
   35MOL   C49225720   5.183   2.720   3.227  0.7273 -0.0568 -0.0986
   35MOL   C49325721   5.168   2.869   3.259  0.2735 -0.1361  0.1414
   35MOL   C49425722   5.076   2.900   3.385 -0.0823  0.3381 -0.0289
   35MOL   C49525723   4.939   2.833   3.381  0.4774 -0.1947 -0.9201
   35MOL   N49625724   4.845   2.880   3.487  0.0948 -0.3315 -0.2718
   35MOL   H49725725   5.560   2.061   3.242 -0.3146  1.1115 -0.4094
   35MOL   H49825726   5.616   1.969   3.102  3.2015 -0.3347  0.4373
   35MOL   H49925727   5.576   2.142   2.944  1.6934 -0.5184  0.4760
   35MOL   H50025728   5.430   2.091   3.029  0.0401 -1.9315  1.3816
   35MOL   H50125729   5.589   2.342   3.105  0.3430  0.4251 -1.4698
   35MOL   H50225730   5.433   2.310   3.158 -0.1419 -0.4356 -0.1626
   35MOL   H50325731   5.486   2.349   2.859 -1.2841  2.3559 -0.9328
   35MOL   H50425732   5.335   2.335   2.936 -0.7744  2.8836  1.2927
   35MOL   H50525733   5.386   2.573   2.906 -0.5136  1.1901  1.6355
   35MOL   H50625734   5.522   2.555   3.021 -0.1740  0.6198  0.6957
   35MOL   H50725735   5.374   2.515   3.201  0.2438 -0.7439 -0.2625
   35MOL   H50825736   5.228   2.495   3.103  0.4118 -0.0656  0.1689
   35MOL   H50925737   5.250   2.732   3.022  0.7138 -1.4060 -1.5221
   35MOL   H51025738   5.379   2.753   3.142 -0.7602  2.1539 -0.5343
   35MOL   H51125739   5.196   2.660   3.317 -1.7819 -0.2367  0.1631
   35MOL   H51225740   5.094   2.681   3.178  1.5381 -0.1921 -1.5137
   35MOL   H51325741   5.124   2.923   3.175  0.2268 -2.2400 -1.2301
   35MOL   H51425742   5.259   2.925   3.274  0.6577 -1.4729  3.0851
   35MOL   H51525743   5.061   3.007   3.395 -1.9931  0.1855 -1.1684
   35MOL   H51625744   5.134   2.875   3.475  3.4213  2.4076 -1.6263
   35MOL   H51725745   4.932   2.727   3.405 -2.6918  0.0979 -0.3749
   35MOL   H51825746   4.905   2.830   3.277 -3.0085  1.1017  0.1213
   35MOL   H51925747   4.866   2.847   3.580 -1.0442 -0.1130  0.0728
   35MOL   C52025748   4.766   2.990   3.475  0.0652  0.0598  0.7042
   35MOL   O52125749   4.758   3.062   3.378 -0.1803 -0.4627  0.5069
   35MOL   C52225750   4.709   3.045   3.610 -0.2954  0.6348 -0.1865
   35MOL   C52325751   4.559   3.042   3.622 -0.1195  0.1487  0.1743
   35MOL   C52425752   4.488   2.903   3.638 -0.4207  0.2370  0.4531
   35MOL   C52525753   4.504   2.854   3.780 -0.3829  0.1181  0.2484
   35MOL   C52625754   4.426   2.734   3.813 -0.0583  0.0032  0.3192
   35MOL   C52725755   4.479   2.603   3.753 -0.0561  0.1408  0.2133
   35MOL   C52825756   4.370   2.495   3.737  0.5030 -0.1141 -0.3227
   35MOL   C52925757   4.418   2.353   3.720 -0.7622 -0.4411 -0.6747
   35MOL   C53025758   4.500   2.301   3.834 -0.5285  0.6550  0.7874
   35MOL   C53125759   4.455   2.168   3.886  0.2150  0.5877 -0.6858
   35MOL   C53225760   4.320   2.163   3.965 -0.6094  0.0465 -0.2567
   35MOL   N53325761   4.302   2.277   4.054 -0.0073  0.1544  0.3533
   35MOL   H53425762   4.754   3.144   3.616 -0.9413  0.9816 -1.0415
   35MOL   H53525763   4.745   2.985   3.694 -0.9268  2.1058  1.1611
   35MOL   H53625764   4.524   3.097   3.709  1.7896 -2.7936  2.8935
   35MOL   H53725765   4.512   3.081   3.531 -2.0947  0.7262  1.4292
   35MOL   H53825766   4.526   2.826   3.571  0.1011 -0.0342  1.0452
   35MOL   H53925767   4.386   2.929   3.612  0.1391  1.9153 -0.0943
   35MOL   H54025768   4.609   2.833   3.803 -0.7868  0.6275  2.6715
   35MOL   H54125769   4.472   2.929   3.852  0.7472  0.4368  0.4354
   35MOL   H54225770   4.326   2.751   3.773 -0.6307 -1.9401  0.8714
   35MOL   H54325771   4.417   2.728   3.922  0.8740  2.5418  0.5620
   35MOL   H54425772   4.553   2.574   3.827  1.3148  1.3327 -0.6412
   35MOL   H54525773   4.516   2.618   3.651  0.2639 -0.0443  0.3019
   35MOL   H54625774   4.318   2.523   3.646 -1.4642  0.6310  1.0047
   35MOL   H54725775   4.298   2.501   3.819  1.1407 -1.5385  0.3647
   35MOL   H54825776   4.470   2.330   3.627  3.8319 -0.0172  1.6551
   35MOL   H54925777   4.324   2.301   3.704 -1.1479  0.1521 -0.3522
   35MOL   H55025778   4.487   2.370   3.917 -2.0782  1.7705 -0.3589
   35MOL   H55125779   4.603   2.299   3.798 -0.1538  0.5266  1.8467
   35MOL   H55225780   4.527   2.134   3.960 -1.7542 -0.5760  0.7613
   35MOL   H55325781   4.444   2.090   3.810  0.8560  0.8975 -1.0969
   35MOL   H55425782   4.314   2.067   4.016  0.3932  0.1890  0.1463
   35MOL   H55525783   4.237   2.171   3.895 -0.3445 -0.7364 -0.6690
   35MOL   H55625784   4.224   2.339   4.035  0.4767  0.7634  0.3676
   35MOL   C55725785   4.366   2.286   4.170 -0.0785  0.0061 -0.0057
   35MOL   O55825786   4.447   2.202   4.203 -0.3364 -0.3190  0.7929
   35MOL   C55925787   4.338   2.415   4.257 -0.5938 -0.2181  0.6760
   35MOL   C56025788   4.458   2.513   4.249 -0.2484  0.0944 -0.5852
   35MOL   C56125789   4.568   2.505   4.353  0.2044  0.6532 -0.3459
   35MOL   C56225790   4.664   2.623   4.372  0.6811 -0.0144 -0.4018
   35MOL   C56325791   4.772   2.620   4.483 -0.1455  0.4685  0.2952
   35MOL   C56425792   4.885   2.727   4.469  0.4204  0.4532 -0.2874
   35MOL   C56525793   4.832   2.872   4.431  0.5116  0.2201  0.1147
   35MOL   C56625794   4.945   2.960   4.374  0.1298 -0.0871  0.6527
   35MOL   C56725795   4.972   2.921   4.225  0.3251 -0.2881 -0.3156
   35MOL   C56825796   4.855   2.975   4.145  0.1089 -0.2841  0.1786
   35MOL   C56925797   4.837   2.940   3.996  0.4004  0.5353  0.5556
   35MOL   N57025798   4.943   3.000   3.921 -0.4232  0.1260 -0.0263
   35MOL   H57125799   4.307   2.396   4.360 -0.0201 -2.4275  0.4747
   35MOL   H57225800   4.249   2.465   4.218 -0.7077  0.4595  1.8009
   35MOL   H57325801   4.515   2.486   4.160  0.1680  3.4627 -1.4126
   35MOL   H57425802   4.430   2.619   4.244  3.3657  1.1751  0.3234
   35MOL   H57525803   4.624   2.412   4.344 -0.2409  0.0804  2.2946
   35MOL   H57625804   4.520   2.492   4.450 -0.0488  0.7240 -0.4615
   35MOL   H57725805   4.701   2.651   4.273  1.2912  1.2666  0.1729
   35MOL   H57825806   4.607   2.712   4.395  0.5292 -0.0999 -0.4479
   35MOL   H57925807   4.822   2.523   4.491  2.4244  1.1894 -5.3080
   35MOL   H58025808   4.726   2.625   4.582  1.7809  1.7691  1.1633
   35MOL   H58125809   4.954   2.692   4.391 -0.0350 -0.4257 -0.3120
   35MOL   H58225810   4.938   2.721   4.564 -2.9872 -0.3868  1.6148
   35MOL   H58325811   4.800   2.913   4.527  0.0703  1.0032 -0.3612
   35MOL   H58425812   4.746   2.873   4.365 -0.5087  0.1529  1.4325
   35MOL   H58525813   5.030   2.942   4.441  0.7692  0.6651  0.0434
   35MOL   H58625814   4.909   3.062   4.378 -1.6219 -0.6581 -0.1944
   35MOL   H58725815   4.977   2.813   4.216 -0.6332 -0.4072  0.5182
   35MOL   H58825816   5.064   2.965   4.185  0.7944 -0.1675  0.8805
   35MOL   H58925817   4.847   3.084   4.153 -0.3642 -0.2909 -0.2000
   35MOL   H59025818   4.755   2.955   4.182 -0.7962  1.6736 -1.1543
   35MOL   H59125819   4.741   2.965   3.950  0.0511  0.6664  1.3339
   35MOL   H59225820   4.842   2.833   3.977 -2.4097  0.5911 -0.7921
   35MOL   H59325821   4.978   3.080   3.971 -1.7102 -0.5956  2.0890
   35MOL   C59425822   5.006   2.953   3.814 -0.2802 -0.0357  0.3182
   35MOL   O59525823   4.960   2.865   3.743  0.0039  0.3607 -0.1645
   35MOL   C59625824   5.138   3.015   3.783  0.3015 -0.4287 -0.1536
   35MOL   C59725825   5.243   2.977   3.884 -0.3982 -0.0513  0.4223
   35MOL   C59825826   5.275   2.834   3.907  0.1846 -0.0374 -0.4714
   35MOL   C59925827   5.339   2.801   4.037  0.4132 -0.5056 -0.0964
   35MOL   C60025828   5.369   2.653   4.061 -0.1547 -0.3705 -0.1759
   35MOL   C60125829   5.378   2.602   4.210 -0.1469  0.4053  0.1894
   35MOL   C60225830   5.368   2.446   4.219  0.1147 -0.4075  0.3934
   35MOL   C60325831   5.350   2.404   4.368 -0.2086  0.2172  0.5229
   35MOL   C60425832   5.200   2.425   4.403  0.0022  0.1688  0.1225
   35MOL   C60525833   5.119   2.301   4.366 -0.6556  0.4827 -0.2395
   35MOL   C60625834   5.140   2.184   4.462  0.2200 -0.2173  0.0418
   35MOL   N60725835   5.055   2.071   4.423 -0.0493 -0.2072 -0.5622
   35MOL   H60825836   5.140   3.123   3.774  1.3881 -0.2963  1.4700
   35MOL   H60925837   5.180   2.988   3.686  0.8594  0.3173 -0.1256
   35MOL   H61025838   5.330   3.042   3.871  1.1639 -1.6222  2.6188
   35MOL   H61125839   5.195   3.019   3.973 -0.7526  0.2208  0.1052
   35MOL   H61225840   5.329   2.790   3.823  0.4904  0.4917 -0.5552
   35MOL   H61325841   5.185   2.771   3.905  0.5123 -0.4907 -1.6256
   35MOL   H61425842   5.428   2.860   4.059  0.3853 -0.4315 -0.1781
   35MOL   H61525843   5.269   2.841   4.111  1.8510 -2.8541  2.5757
   35MOL   H61625844   5.459   2.618   4.010  0.2928  0.0130  0.3411
   35MOL   H61725845   5.287   2.590   4.028 -0.7976  0.0013  0.6942
   35MOL   H61825846   5.297   2.636   4.275 -0.1484  1.1873 -0.2068
   35MOL   H61925847   5.470   2.643   4.253  0.1311  0.9027 -0.8404
   35MOL   H62025848   5.460   2.403   4.178  0.5894  1.9745 -1.1013
   35MOL   H62125849   5.280   2.418   4.162 -1.4089  2.2223  1.3874
   35MOL   H62225850   5.410   2.463   4.437  1.5044 -0.3224 -0.4800
   35MOL   H62325851   5.389   2.303   4.386  1.2302  0.5380 -0.6196
   35MOL   H62425852   5.149   2.512   4.361  0.4043  1.8368  2.9562
   35MOL   H62525853   5.198   2.456   4.508  2.8146  0.0244  0.2454
   35MOL   H62625854   5.132   2.283   4.260 -4.1074  3.1856 -1.2484
   35MOL   H62725855   5.015   2.331   4.381 -0.6421  0.0290  0.8227
   35MOL   H62825856   5.108   2.219   4.560  1.3359  0.1731  0.2716
   35MOL   H62925857   5.247   2.163   4.464  0.2948  0.2786  1.7435
   35MOL   H63025858   5.007   2.089   4.336 -0.8063  2.0012  0.2745
   35MOL   C63125859   5.054   1.962   4.496 -0.3996 -0.6504 -0.7957
   35MOL   O63225860   5.138   1.942   4.583  0.3042  0.0324  0.0176
   35MOL   C63325861   4.939   1.867   4.478 -0.8442 -0.3797 -0.4466
   35MOL   C63425862   4.909   1.769   4.590 -0.1696  0.2565  0.1211
   35MOL   C63525863   4.764   1.711   4.597  0.2477  0.2434 -0.5657
   35MOL   C63625864   4.760   1.588   4.692 -0.7285  0.0888 -0.3456
   35MOL   C63725865   4.621   1.559   4.752 -1.1937 -0.4457 -0.0261
   35MOL   C63825866   4.616   1.418   4.815 -0.6933 -0.1514  0.1554
   35MOL   C63925867   4.470   1.380   4.842 -0.3510  0.0555  0.1486
   35MOL   C64025868   4.453   1.236   4.898 -0.2716  0.3614  0.5795
   35MOL   C64125869   4.310   1.180   4.885  0.0637  0.5162 -0.0150
   35MOL   C64225870   4.298   1.033   4.928 -1.0761 -0.1036  0.3837
   35MOL   C64325871   4.157   0.979   4.926 -0.0947 -0.6400  0.8102
   35MOL   N64425872   4.130   0.961   4.788 -0.0152  1.1151 -0.9527
   35MOL   H64525873   4.941   1.819   4.381 -2.1111 -1.1650 -0.1064
   35MOL   H64625874   4.849   1.928   4.470 -1.7122 -1.5941 -0.0812
   35MOL   H64725875   4.986   1.692   4.588  0.3614  0.8008 -0.4067
   35MOL   H64825876   4.926   1.820   4.684 -0.3872 -1.2749  1.0084
   35MOL   H64925877   4.736   1.686   4.495 -0.6916  1.0847 -0.5182
   35MOL   H65025878   4.703   1.788   4.646 -1.2972 -2.0746  1.2885
   35MOL   H65125879   4.785   1.505   4.626 -0.4807  1.0050 -1.4127
   35MOL   H65225880   4.837   1.600   4.768 -0.0715 -1.7762 -0.6791
   35MOL   H65325881   4.550   1.566   4.670 -0.7076 -0.2607 -0.4349
   35MOL   H65425882   4.569   1.631   4.814  0.7495  2.6132 -1.8031
   35MOL   H65525883   4.668   1.426   4.910 -1.6583  0.0435  0.6709
   35MOL   H65625884   4.665   1.348   4.747  0.3388  0.8556 -0.1617
   35MOL   H65725885   4.410   1.389   4.751  0.3231 -2.9419 -0.6550
   35MOL   H65825886   4.426   1.446   4.916 -0.2844 -0.7712  0.9275
   35MOL   H65925887   4.476   1.233   5.005  0.2645 -1.6871  0.4337
   35MOL   H66025888   4.519   1.167   4.844 -2.5753 -1.3139 -0.1865
   35MOL   H66125889   4.274   1.191   4.783  0.6084 -1.4874 -0.4438
   35MOL   H66225890   4.237   1.243   4.937 -2.1578  0.0422 -2.4461
   35MOL   H66325891   4.337   1.035   5.030  0.1350  0.5212 -0.0929
   35MOL   H66425892   4.365   0.982   4.860 -0.5813  2.5447 -1.1644
   35MOL   H66525893   4.083   1.031   4.986  0.3590 -0.2728  1.0540
   35MOL   H66625894   4.155   0.875   4.961 -0.2752 -0.7600  0.4486
   35MOL   H66725895   4.201   0.913   4.734  1.0227 -1.2805  2.3997
   35MOL   C66825896   4.027   1.020   4.725  0.4022  0.1377  0.2692
   35MOL   O66925897   3.956   1.104   4.774  0.1490 -0.4656 -0.0565
   35MOL   C67025898   3.993   0.967   4.588  0.3429  0.4728 -0.7175
   35MOL   C67125899   3.851   0.989   4.552  0.1506 -0.2259 -0.4865
   35MOL   C67225900   3.747   0.924   4.654  0.0703  0.5268  0.0361
   35MOL   C67325901   3.606   0.950   4.605 -0.9421 -0.2645  0.0067
   35MOL   C67425902   3.501   0.911   4.709 -0.3446  0.4839  0.1958
   35MOL   C67525903   3.500   0.767   4.760 -0.4650 -0.4217 -0.1632
   35MOL   C67625904   3.447   0.677   4.648  0.0477 -0.0238 -0.2360
   35MOL   C67725905   3.384   0.554   4.704 -0.2935  1.1201 -0.2043
   35MOL   C67825906   3.299   0.479   4.599  0.3867 -0.0683  0.3883
   35MOL   C67925907   3.158   0.544   4.574 -0.5107 -0.5094  1.0545
   35MOL   C68025908   3.077   0.477   4.456  0.1376 -0.7376  0.2446
   35MOL   N68125909   2.943   0.536   4.445 -0.3248  0.2043  0.1858
   35MOL   H68225910   4.018   0.861   4.584  0.5055  0.5132 -0.7841
   35MOL   H68325911   4.051   1.031   4.521  0.9393  1.0967  0.3933
   35MOL   H68425912   3.832   1.095   4.540  1.5553  0.2902  1.5598
   35MOL   H68525913   3.830   0.949   4.453  2.5396 -2.6655 -0.0604
   35MOL   H68625914   3.755   0.983   4.745  0.0768 -0.9010  0.9776
   35MOL   H68725915   3.763   0.817   4.673  1.5865  1.1983  2.8259
   35MOL   H68825916   3.595   1.056   4.584  0.9423 -0.3022 -1.3194
   35MOL   H68925917   3.602   0.901   4.508  2.5268 -3.3517  1.3140
   35MOL   H69025918   3.399   0.925   4.673 -0.6596 -1.6357  0.1630
   35MOL   H69125919   3.502   0.976   4.796 -1.7378  0.4936  0.2157
   35MOL   H69225920   3.433   0.761   4.845  1.8187 -0.5112  1.6946
   35MOL   H69325921   3.596   0.732   4.797 -1.2773  0.7481  3.1694
   35MOL   H69425922   3.524   0.657   4.574 -1.3109 -1.1167 -1.3711
   35MOL   H69525923   3.367   0.731   4.596 -0.6487  0.1270  0.9696
   35MOL   H69625924   3.325   0.574   4.794 -0.0211  0.2015  0.1878
   35MOL   H69725925   3.463   0.488   4.739 -0.6638  1.9461  2.2921
   35MOL   H69825926   3.287   0.373   4.623 -1.0153 -0.0226 -0.0405
   35MOL   H69925927   3.355   0.481   4.505 -0.2595 -0.7763 -0.0215
   35MOL   H70025928   3.178   0.649   4.554 -1.7324 -0.0375  2.2147
   35MOL   H70125929   3.096   0.548   4.664 -0.9153  1.2628  0.7088
   35MOL   H70225930   3.069   0.368   4.453  0.3057 -0.7267 -1.0832
   35MOL   H70325931   3.134   0.501   4.366  0.6836 -2.7546  0.0327
   35MOL   H70425932   2.868   0.476   4.475 -1.4595  1.7964  0.6285
   35MOL   C70525933   2.917   0.636   4.363 -1.5685 -0.2125 -0.1695
   35MOL   O70625934   3.002   0.705   4.306 -0.0466 -0.7082  0.9673
   35MOL   C70725935   2.770   0.660   4.346  0.6743 -0.2644  0.0894
   35MOL   C70825936   2.732   0.757   4.229 -0.9711  0.2897 -0.5840
   35MOL   C70925937   2.732   0.710   4.087 -0.6438  0.1245 -0.2039
   35MOL   C71025938   2.661   0.581   4.060 -0.0272 -0.2441  0.2679
   35MOL   C71125939   2.638   0.566   3.903 -0.2382 -0.4828 -0.6841
   35MOL   C71225940   2.588   0.429   3.866  0.9429  0.7420 -0.3414
   35MOL   C71325941   2.557   0.427   3.722 -0.0514 -0.1981  0.7100
   35MOL   C71425942   2.511   0.291   3.668  0.8494  0.6346  0.0297
   35MOL   C71525943   2.427   0.287   3.534  0.9743 -0.0174  0.6915
   35MOL   C71625944   2.391   0.146   3.481 -0.8313 -0.5266 -0.3042
   35MOL   C71725945   2.288   0.072   3.566 -0.7617 -0.2786 -0.7412
   35MOL   N71825946   2.297   7.621   3.517 -0.5902  0.6057  0.1038
   35MOL   H71925947   2.747   0.719   4.435 -0.6036  0.5485 -0.7612
   35MOL   H72025948   2.721   0.563   4.351  3.2562 -1.6241  0.0460
   35MOL   H72125949   2.630   0.787   4.257 -0.5861  1.3022 -0.2303
   35MOL   H72225950   2.783   0.853   4.235 -1.7189  0.6534  0.0679
   35MOL   H72325951   2.834   0.706   4.049 -0.3429  1.5033  0.4193
   35MOL   H72425952   2.684   0.784   4.023 -0.4799  0.5012  0.1112
   35MOL   H72525953   2.708   0.488   4.092  0.5209 -0.1616 -0.3020
   35MOL   H72625954   2.569   0.584   4.119 -0.3924 -1.0030 -0.2717
   35MOL   H72725955   2.734   0.584   3.854  0.1308 -1.7246 -0.4338
   35MOL   H72825956   2.570   0.637   3.856  0.6152  0.2139 -0.8658
   35MOL   H72925957   2.490   0.404   3.908  0.4524 -0.2743 -2.0237
   35MOL   H73025958   2.669   0.360   3.891  0.2759  0.3773  0.8570
   35MOL   H73125959   2.647   0.466   3.674 -0.5192 -1.3085 -1.1257
   35MOL   H73225960   2.488   0.500   3.679 -0.1966 -0.1056  1.0964
   35MOL   H73325961   2.449   0.243   3.744 -1.7508  0.1930 -2.2973
   35MOL   H73425962   2.598   0.227   3.658 -0.5731 -1.0353 -1.8129
   35MOL   H73525963   2.482   0.347   3.462 -0.5417 -0.3348 -0.7620
   35MOL   H73625964   2.336   0.347   3.543  1.1395  0.0511  1.9734
   35MOL   H73725965   2.489   0.100   3.490 -0.6418  0.1764  1.4505
   35MOL   H73825966   2.353   0.144   3.379 -0.3391 -1.2151 -0.4736
   35MOL   H73925967   2.186   0.095   3.537 -1.9009 -1.2482  2.3844
   35MOL   H74025968   2.306   0.081   3.673 -0.2617 -0.0808 -0.8395
   35MOL   H74125969   2.283   7.613   3.418 -0.8608  2.1476  0.0175
   35MOL   H74225970   2.219   7.565   3.549  0.0497 -0.7976 -0.7672
   36MOL     C125971   2.804   2.184   2.228  0.2431 -0.2320  1.0124
   36MOL     O225972   2.901   2.112   2.242 -0.0559  0.2205 -0.0818
   36MOL     C325973   2.778   2.300   2.315 -0.1190 -0.6388 -0.3278
   36MOL     C425974   2.826   2.297   2.458  0.1948  0.0322  0.1195
   36MOL     C525975   2.778   2.182   2.544 -0.4049  0.0084  0.0065
   36MOL     C625976   2.845   2.185   2.683  0.2504 -0.5675 -0.4186
   36MOL     C725977   2.794   2.077   2.778 -0.5910 -0.1054  0.4303
   36MOL     C825978   2.863   2.092   2.919  0.2232  0.2057 -0.1477
   36MOL     C925979   2.894   1.958   2.993  0.0530  0.2287  0.3138
   36MOL    C1025980   2.750   1.900   3.025  0.2410  0.4556 -0.0025
   36MOL    C1125981   2.765   1.778   3.112 -0.0542  0.1999  0.2660
   36MOL    C1225982   2.854   1.666   3.062 -0.4849  0.3490  0.3720
   36MOL    C1325983   2.852   1.537   3.145  1.1954  0.0449 -0.0592
   36MOL    N1425984   2.907   1.429   3.063  0.0759  0.3710  0.4258
   36MOL    H1525985   2.671   2.315   2.311 -0.1080  0.4599  2.2241
   36MOL    H1625986   2.828   2.387   2.271 -0.0106  1.2649  3.3240
   36MOL    H1725987   2.934   2.283   2.456  0.3892 -0.0020  5.1113
   36MOL    H1825988   2.798   2.391   2.505  0.8130  0.7149 -0.8468
   36MOL    H1925989   2.815   2.090   2.499  0.0980 -0.3438  1.1205
   36MOL    H2025990   2.669   2.180   2.546 -0.3951  0.2298  0.7089
   36MOL    H2125991   2.953   2.180   2.673  0.3197  2.0482 -1.0991
   36MOL    H2225992   2.809   2.281   2.719 -0.6635 -0.5138 -1.4277
   36MOL    H2325993   2.823   1.980   2.739  0.5973  0.1948  0.5361
   36MOL    H2425994   2.686   2.091   2.785 -0.6053 -0.1564  0.3079
   36MOL    H2525995   2.806   2.154   2.988  0.8612  0.6473 -0.0186
   36MOL    H2625996   2.957   2.145   2.913  0.0605  0.5444  0.3253
   36MOL    H2725997   2.949   1.966   3.087 -1.0244 -1.3835  1.0968
   36MOL    H2825998   2.949   1.889   2.928  1.0636 -0.3944  1.8082
   36MOL    H2925999   2.704   1.867   2.932 -0.9426 -0.5336  0.9120
   36MOL    H3026000   2.688   1.976   3.072 -0.7853  0.9907 -2.1562
   36MOL    H3126001   2.676   1.726   3.147  0.8672 -2.5168 -1.3000
   36MOL    H3226002   2.816   1.816   3.201  0.9836 -0.0595 -0.2085
   36MOL    H3326003   2.954   1.708   3.056 -0.8491  1.1423 -0.3992
   36MOL    H3426004   2.823   1.642   2.960  0.1265 -0.7899  0.4523
   36MOL    H3526005   2.746   1.513   3.157  0.8775  2.0039  1.2472
   36MOL    H3626006   2.900   1.567   3.239 -1.2484  1.3876  0.7980
   36MOL    H3726007   2.838   1.372   3.016  0.5735 -0.0672  0.2227
   36MOL    H3826008   2.738   2.178   2.142 -1.3902  0.4936  2.1861
   36MOL    C3926009   3.034   1.410   3.026  0.4144  0.6477  0.3186
   36MOL    O4026010   3.126   1.492   3.057  0.0360 -0.1517  0.2995
   36MOL    C4126011   3.062   1.287   2.944  0.2893  0.0726 -0.2772
   36MOL    C4226012   3.207   1.242   2.939  0.7001  0.6744 -0.6875
   36MOL    C4326013   3.237   1.145   2.823 -0.0834  0.4601 -0.8211
   36MOL    C4426014   3.381   1.113   2.833  0.5405 -0.1213  0.1181
   36MOL    C4526015   3.444   1.032   2.714 -0.6475 -0.4136  0.2901
   36MOL    C4626016   3.574   0.965   2.742  0.1776  0.6612 -0.7274
   36MOL    C4726017   3.630   0.900   2.616  0.2857  0.0120  0.7636
   36MOL    C4826018   3.754   0.817   2.646 -0.3589 -0.4489 -0.9745
   36MOL    C4926019   3.794   0.731   2.535 -0.0286 -0.7736  0.6246
   36MOL    C5026020   3.944   0.696   2.549  0.4903  0.1262  0.2304
   36MOL    C5126021   3.996   0.632   2.420  0.1807 -0.3299 -0.0604
   36MOL    N5226022   3.906   0.519   2.386  0.2764 -0.0610  0.6405
   36MOL    H5326023   3.026   1.306   2.843  0.0707  0.3655 -0.1460
   36MOL    H5426024   3.010   1.201   2.985 -0.1591  1.5444  2.3645
   36MOL    H5526025   3.266   1.331   2.918  0.2649  0.9157 -0.9062
   36MOL    H5626026   3.245   1.198   3.031 -0.9116  0.6202 -0.0396
   36MOL    H5726027   3.194   1.181   2.730 -1.6439  0.6000 -0.0597
   36MOL    H5826028   3.182   1.055   2.849  0.8371  0.2190  0.3203
   36MOL    H5926029   3.439   1.206   2.837  1.2118 -0.5384  0.0193
   36MOL    H6026030   3.391   1.060   2.928  1.9481  1.0878  0.6645
   36MOL    H6126031   3.467   1.105   2.636  0.1305 -0.0382  0.8599
   36MOL    H6226032   3.370   0.961   2.676 -0.9483 -0.8067  1.5894
   36MOL    H6326033   3.549   0.884   2.811  1.0823  0.9026 -0.1019
   36MOL    H6426034   3.651   1.025   2.791 -0.9377  1.1485  0.4476
   36MOL    H6526035   3.647   0.982   2.547 -2.6603  0.8671  0.9954
   36MOL    H6626036   3.548   0.843   2.572  0.3781  2.1750 -2.3936
   36MOL    H6726037   3.736   0.763   2.739  0.5303  0.8749 -0.0147
   36MOL    H6826038   3.823   0.899   2.662 -0.3546 -0.6140 -0.1314
   36MOL    H6926039   3.782   0.781   2.439 -1.1950  2.1670  2.2435
   36MOL    H7026040   3.736   0.639   2.536 -0.5436 -0.4635  2.7330
   36MOL    H7126041   3.952   0.628   2.634 -2.2211  1.2173  1.3997
   36MOL    H7226042   4.008   0.779   2.579  1.4208  0.4123 -2.3932
   36MOL    H7326043   4.099   0.596   2.413 -0.6816 -2.7085 -0.8281
   36MOL    H7426044   3.992   0.709   2.343  0.8959 -0.1552  0.0712
   36MOL    H7526045   3.833   0.536   2.318  1.8713 -1.3184 -1.4510
   36MOL    C7626046   3.906   0.397   2.439  0.6612  0.5023 -0.4601
   36MOL    O7726047   3.975   0.362   2.534 -0.3980 -0.4255  0.3161
   36MOL    C7826048   3.823   0.288   2.375 -0.1107 -0.3041  0.8378
   36MOL    C7926049   3.686   0.254   2.432  0.1665 -0.6140  0.3983
   36MOL    C8026050   3.645   0.109   2.396 -0.6601  0.4052  0.1325
   36MOL    C8126051   3.503   0.056   2.436 -0.2884  0.1529 -0.5140
   36MOL    C8226052   3.471   7.612   2.375  0.1173 -0.3896  0.7498
   36MOL    C8326053   3.540   7.493   2.452  0.2624 -0.4720 -0.4721
   36MOL    C8426054   3.498   7.361   2.387  0.0497 -0.1388 -0.1574
   36MOL    C8526055   3.568   7.228   2.442  0.0374 -0.6212 -0.1600
   36MOL    C8626056   3.525   7.104   2.370  0.7238  0.5108 -0.1594
   36MOL    C8726057   3.375   7.067   2.371  0.3983  0.3397  0.3539
   36MOL    C8826058   3.341   6.951   2.276  0.3572  0.1205 -0.0937
   36MOL    N8926059   3.389   6.973   2.140  0.0156  0.2004 -0.0199
   36MOL    H9026060   3.882   0.199   2.353  0.5813  0.5205 -0.7974
   36MOL    H9126061   3.799   0.331   2.278  1.2756  0.7333  0.9414
   36MOL    H9226062   3.678   0.265   2.541 -0.6079  2.4225  0.0768
   36MOL    H9326063   3.614   0.328   2.397 -0.7179  0.2699  3.8210
   36MOL    H9426064   3.712   0.049   2.459  1.9756  1.2568 -1.8082
   36MOL    H9526065   3.668   0.070   2.297 -0.6728  0.4840  0.0989
   36MOL    H9626066   3.516   0.051   2.544 -0.9266  1.8821 -0.3410
   36MOL    H9726067   3.437   0.140   2.414 -2.3763 -0.3416  3.3017
   36MOL    H9826068   3.496   7.608   2.269 -0.7583  1.0407  0.4715
   36MOL    H9926069   3.364   7.598   2.388 -0.1643  1.8431  1.0456
   36MOL   H10026070   3.505   7.496   2.555 -0.5817 -0.1539 -0.7605
   36MOL   H10126071   3.648   7.503   2.452  0.1934  0.6218  1.5021
   36MOL   H10226072   3.513   7.381   2.281 -1.7490 -1.1215 -0.6110
   36MOL   H10326073   3.390   7.358   2.403  0.2745 -0.7952  1.3406
   36MOL   H10426074   3.527   7.212   2.541 -0.5335  0.2752 -0.2454
   36MOL   H10526075   3.677   7.235   2.437 -0.0040  1.6275  1.3858
   36MOL   H10626076   3.592   7.032   2.418  1.4360  0.7870 -0.7333
   36MOL   H10726077   3.554   7.117   2.266 -1.0623 -0.2307 -0.7590
   36MOL   H10826078   3.307   7.151   2.360  1.0496  0.6433 -1.3947
   36MOL   H10926079   3.342   7.030   2.468 -0.9580 -1.2263 -0.6768
   36MOL   H11026080   3.236   6.926   2.266  1.1363 -2.8900 -1.3923
   36MOL   H11126081   3.384   6.860   2.319 -1.4171 -0.4901  0.4192
   36MOL   H11226082   3.430   7.060   2.111  1.5293 -0.4689  0.1097
   36MOL   C11326083   3.362   6.890   2.040  0.0551 -0.7511  0.3026
   36MOL   O11426084   3.295   6.788   2.061  0.3886 -0.0128  0.2035
   36MOL   C11526085   3.407   6.929   1.893  0.0562 -0.2118  0.5263
   36MOL   C11626086   3.319   6.867   1.779 -0.4995  0.5856 -1.0370
   36MOL   C11726087   3.195   6.941   1.745  0.3855 -0.5473 -0.0937
   36MOL   C11826088   3.224   7.060   1.647  1.1425  0.1761 -0.0174
   36MOL   C11926089   3.094   7.128   1.595 -0.1153  0.9722  0.0810
   36MOL   C12026090   2.991   7.166   1.703 -0.5213 -0.4109 -0.1401
   36MOL   C12126091   2.870   7.250   1.660  0.3169 -0.5878  0.0770
   36MOL   C12226092   2.757   7.261   1.763 -0.2739 -0.5957  0.1790
   36MOL   C12326093   2.795   7.301   1.913 -0.7654  0.3446 -0.8801
   36MOL   C12426094   2.680   7.320   2.011  0.5930  0.0221 -0.3386
   36MOL   C12526095   2.741   7.353   2.151  0.6289  0.0970 -1.2990
   36MOL   N12626096   2.644   7.352   2.258  0.3069  0.3538  0.1278
   36MOL   H12726097   3.499   6.873   1.874 -2.3612 -4.7191  1.4818
   36MOL   H12826098   3.420   7.037   1.881  0.4837 -0.4736 -1.6443
   36MOL   H12926099   3.384   6.864   1.692  0.6687 -1.0356 -0.1349
   36MOL   H13026100   3.298   6.765   1.812  1.0941  1.0038  1.3813
   36MOL   H13126101   3.124   6.965   1.824 -1.3364 -0.0178 -1.7785
   36MOL   H13226102   3.143   6.870   1.681  0.7860 -0.6844 -0.2632
   36MOL   H13326103   3.269   7.145   1.699  1.0084  0.9234 -1.1194
   36MOL   H13426104   3.296   7.035   1.569  0.7996 -0.6416 -0.0811
   36MOL   H13526105   3.041   7.057   1.532  1.2683 -0.2047  0.2329
   36MOL   H13626106   3.118   7.219   1.540  0.4006 -0.1087 -1.4928
   36MOL   H13726107   3.048   7.222   1.777  0.2045  1.8893 -2.3812
   36MOL   H13826108   2.953   7.078   1.755 -1.0950  0.7991  1.5233
   36MOL   H13926109   2.825   7.208   1.570  0.7087 -0.9808  0.0626
   36MOL   H14026110   2.910   7.350   1.641 -1.1554  0.3099  1.4839
   36MOL   H14126111   2.709   7.163   1.768  0.6389 -1.1147 -1.0607
   36MOL   H14226112   2.679   7.332   1.736  1.1507  1.4693  1.3154
   36MOL   H14326113   2.860   7.388   1.917 -1.2806  0.6788  0.4012
   36MOL   H14426114   2.848   7.210   1.943 -1.7622  0.8382  2.5495
   36MOL   H14526115   2.622   7.228   2.018 -0.0947  0.4020 -0.9829
   36MOL   H14626116   2.607   7.394   1.977  0.1880 -0.0792  0.2820
   36MOL   H14726117   2.803   7.443   2.152  1.5907 -0.5567  0.1300
   36MOL   H14826118   2.807   7.270   2.177  0.4418  0.4489  0.3185
   36MOL   H14926119   2.625   7.265   2.306  0.1348 -0.2015 -0.9155
   36MOL   C15026120   2.589   7.461   2.309  0.4285 -0.6104  0.6440
   36MOL   O15126121   2.603   7.563   2.245 -0.0684 -0.4565 -0.2111
   36MOL   C15226122   2.521   7.462   2.442  0.9552 -0.6236 -0.6217
   36MOL   C15326123   2.631   7.481   2.549  0.4536  0.1155  0.2095
   36MOL   C15426124   2.605   7.606   2.638  0.3180 -0.1080  0.4343
   36MOL   C15526125   2.477   7.585   2.728 -0.0371 -1.2889  0.0170
   36MOL   C15626126   2.499   7.469   2.825 -0.8183 -0.0091  0.2146
   36MOL   C15726127   2.423   7.487   2.961  0.7533  0.1251 -0.8856
   36MOL   C15826128   2.449   7.382   3.059 -0.4423  0.1786  0.4806
   36MOL   C15926129   2.354   7.393   3.180 -0.0136  0.1550 -0.4761
   36MOL   C16026130   2.389   7.287   3.297 -0.8490  0.0822 -0.1439
   36MOL   C16126131   2.283   7.267   3.397  0.0257  0.0526  0.4934
   36MOL   C16226132   2.324   7.147   3.493 -0.0509  0.0208  0.4274
   36MOL   N16326133   2.243   7.154   3.616  0.2614 -0.2171 -0.0658
   36MOL   H16426134   2.465   7.370   2.458 -0.2139  0.7168  3.6217
   36MOL   H16526135   2.447   7.542   2.442  0.9432 -0.6100  1.2984
   36MOL   H16626136   2.639   7.389   2.607 -0.7080  0.1258  0.4075
   36MOL   H16726137   2.726   7.499   2.500  1.1911 -2.1559  0.7268
   36MOL   H16826138   2.582   0.007   2.589 -1.4054 -0.5376  0.3918
   36MOL   H16926139   2.703   7.615   2.686  1.4806 -1.9571 -1.4780
   36MOL   H17026140   2.452   7.671   2.790 -0.5769 -1.5209  0.1227
   36MOL   H17126141   2.385   7.561   2.674 -2.5970  0.7846  3.2860
   36MOL   H17226142   2.603   7.466   2.858 -0.8241  0.5473  0.2761
   36MOL   H17326143   2.471   7.379   2.770 -1.9301 -0.0113  0.7689
   36MOL   H17426144   2.317   7.485   2.934  0.4311  0.9548  0.2851
   36MOL   H17526145   2.435   7.586   3.004  0.5580 -0.7988  1.3326
   36MOL   H17626146   2.547   7.412   3.096  0.3003  0.7766 -1.8749
   36MOL   H17726147   2.456   7.281   3.017 -1.6542  0.4170 -0.3079
   36MOL   H17826148   2.250   7.378   3.151  0.1941 -0.3674 -0.9567
   36MOL   H17926149   2.369   7.492   3.224  2.3063 -0.0812 -0.6679
   36MOL   H18026150   2.477   7.308   3.358 -0.0002 -1.2375 -0.8725
   36MOL   H18126151   2.408   7.189   3.252  1.7377 -0.6831  2.4413
   36MOL   H18226152   2.186   7.246   3.353  0.1733 -2.2929  1.2122
   36MOL   H18326153   2.277   7.356   3.459  2.0420  1.9268 -1.8836
   36MOL   H18426154   2.430   7.152   3.518 -0.0086  0.5980  0.1290
   36MOL   H18526155   2.323   7.047   3.449 -0.2738  0.1662  0.1057
   36MOL   H18626156   2.172   7.225   3.616 -1.7772 -2.2256  1.1214
   36MOL   C18726157   2.239   7.071   3.718 -0.5758  0.2058  0.1967
   36MOL   O18826158   2.301   6.964   3.721  0.0870 -0.5326  0.0575
   36MOL   C18926159   2.164   7.117   3.843 -0.3332  0.5318 -0.1325
   36MOL   C19026160   2.249   7.096   3.974  0.0695 -0.6512 -0.2420
   36MOL   C19126161   2.172   7.111   4.103  0.5648  0.3017  0.5687
   36MOL   C19226162   2.267   7.118   4.228  0.1998 -0.1348 -0.0742
   36MOL   C19326163   2.316   6.977   4.265  0.7929 -0.0706  0.4205
   36MOL   C19426164   2.434   6.959   4.365 -0.4238 -0.0639  0.5139
   36MOL   C19526165   2.483   6.817   4.371  0.2175 -0.2018  0.0995
   36MOL   C19626166   2.620   6.786   4.436  0.1991  0.5163 -0.4333
   36MOL   C19726167   2.678   6.650   4.405  0.0068 -0.0165 -0.2931
   36MOL   C19826168   2.746   6.660   4.269 -0.1486 -0.6595  0.4851
   36MOL   C19926169   2.768   6.523   4.210 -0.4642 -0.4177 -0.3024
   36MOL   N20026170   2.834   6.429   4.293 -0.4343  0.0121 -0.2558
   36MOL   H20126171   2.070   7.062   3.842 -0.0319 -0.0332  1.3468
   36MOL   H20226172   2.132   7.220   3.832 -1.3466  0.1724 -0.6239
   36MOL   H20326173   2.293   6.996   3.964  0.6910 -0.4641  0.5773
   36MOL   H20426174   2.342   7.152   3.985  0.3957 -1.2745  0.2120
   36MOL   H20526175   2.096   7.033   4.094  0.3103  0.3508  2.1528
   36MOL   H20626176   2.114   7.203   4.105  1.7236  1.2278 -3.2306
   36MOL   H20726177   2.348   7.187   4.204  0.3689  0.1010  1.1322
   36MOL   H20826178   2.215   7.157   4.316 -0.0389 -0.0219 -0.2650
   36MOL   H20926179   2.325   6.912   4.178  0.1755  0.1609  0.1832
   36MOL   H21026180   2.221   6.941   4.306  0.6249  0.9319  0.9422
   36MOL   H21126181   2.418   6.999   4.465 -2.3724 -2.4919  1.2090
   36MOL   H21226182   2.512   7.028   4.333  0.7526 -2.2270 -1.3895
   36MOL   H21326183   2.498   6.789   4.267 -1.2217  1.1879 -0.5147
   36MOL   H21426184   2.399   6.759   4.407 -0.8653  1.0793 -0.2984
   36MOL   H21526185   2.605   6.800   4.543 -1.4555  1.3821 -0.7547
   36MOL   H21626186   2.685   6.872   4.423 -1.0677  1.4886 -0.5022
   36MOL   H21726187   2.612   6.564   4.412  2.5297 -1.9261  0.7473
   36MOL   H21826188   2.754   6.623   4.478 -0.7921  0.8546  0.8767
   36MOL   H21926189   2.838   6.718   4.284 -0.0154  0.1062 -2.8792
   36MOL   H22026190   2.692   6.723   4.198  0.6331  0.5553  0.9497
   36MOL   H22126191   2.812   6.534   4.111  2.7150 -3.6996  0.6306
   36MOL   H22226192   2.669   6.491   4.179 -0.6279  1.3059 -1.6876
   36MOL   H22326193   2.935   6.422   4.291 -0.5132 -1.1657 -0.6644
   36MOL   C22426194   2.788   6.329   4.368 -0.2528  0.6583  0.2187
   36MOL   O22526195   2.667   6.304   4.372 -0.4614  0.6618 -0.0832
   36MOL   C22626196   2.871   6.238   4.455 -0.4966  0.0623  0.0953
   36MOL   C22726197   2.834   6.093   4.463  0.2037 -0.1426 -0.1579
   36MOL   C22826198   2.722   6.068   4.559  0.3949  0.1810  0.1407
   36MOL   C22926199   2.699   5.917   4.586  0.0153 -0.1719  0.7051
   36MOL   C23026200   2.689   5.829   4.463  0.5495 -0.2431  0.1035
   36MOL   C23126201   2.618   5.703   4.495 -0.2088  0.0190 -0.7955
   36MOL   C23226202   2.606   5.615   4.372 -0.3400 -0.5707 -0.2344
   36MOL   C23326203   2.552   5.467   4.391 -0.1301 -0.2102  0.1432
   36MOL   C23426204   2.551   5.398   4.254 -0.0279 -0.2289  0.4394
   36MOL   C23526205   2.442   5.448   4.149 -0.5038 -0.0921  0.6995
   36MOL   C23626206   2.416   5.339   4.037 -0.1378 -0.0307 -0.0864
   36MOL   N23726207   2.347   5.406   3.928 -0.0888  0.3573 -0.2784
   36MOL   H23826208   2.876   6.281   4.555 -2.5395  1.4204 -0.3428
   36MOL   H23926209   2.976   6.244   4.427  0.1540  3.5659  2.9433
   36MOL   H24026210   2.793   6.061   4.367  3.3539  0.4724 -1.7526
   36MOL   H24126211   2.921   6.033   4.491  0.3769  0.8464  1.4852
   36MOL   H24226212   2.627   6.113   4.530  0.4854 -0.9030 -1.9278
   36MOL   H24326213   2.741   6.112   4.657 -0.9070 -0.7384  0.8289
   36MOL   H24426214   2.789   5.882   4.638  1.4893 -0.8024 -2.1550
   36MOL   H24526215   2.611   5.901   4.648  0.6347  2.1871  2.2674
   36MOL   H24626216   2.791   5.806   4.430  0.2152  0.2547 -1.3020
   36MOL   H24726217   2.641   5.877   4.377  0.5078 -0.9660 -0.2841
   36MOL   H24826218   2.524   5.721   4.546  0.3855 -0.4285  0.4931
   36MOL   H24926219   2.681   5.653   4.569  0.2798  0.7859 -0.6838
   36MOL   H25026220   2.703   5.617   4.323 -0.1853 -0.2532  0.0905
   36MOL   H25126221   2.536   5.669   4.308 -1.6863 -1.8070  0.1645
   36MOL   H25226222   2.453   5.483   4.434  0.1368 -0.4224  0.8449
   36MOL   H25326223   2.614   5.401   4.452  3.2933  0.3995 -2.5081
   36MOL   H25426224   2.519   5.294   4.267  0.4256 -0.2320  1.5598
   36MOL   H25526225   2.648   5.393   4.204 -0.0199  0.6673  0.3694
   36MOL   H25626226   2.490   5.537   4.106  1.0868 -0.9159  0.7178
   36MOL   H25726227   2.351   5.479   4.200 -0.7678 -1.3020  0.9594
   36MOL   H25826228   2.352   5.258   4.071  0.6301 -0.6261 -0.0447
   36MOL   H25926229   2.507   5.288   4.008  1.1322  0.2869  3.1772
   36MOL   H26026230   2.347   5.507   3.929 -0.3609  0.3563  1.3459
   36MOL   C26126231   2.269   5.348   3.840  0.6778  0.2132  0.6399
   36MOL   O26226232   2.244   5.224   3.839  0.0281  0.4874  0.1448
   36MOL   C26326233   2.208   5.449   3.745  0.1507 -0.1652  0.6188
   36MOL   C26426234   2.187   5.391   3.599  0.2525  0.4154 -0.0894
   36MOL   C26526235   2.316   5.368   3.521 -0.9357 -0.5645  0.3353
   36MOL   C26626236   2.300   5.267   3.413 -0.3015  0.2396 -0.5193
   36MOL   C26726237   2.434   5.245   3.341 -0.4348  0.2838 -0.2810
   36MOL   C26826238   2.402   5.153   3.223  0.4458  0.5891 -0.3962
   36MOL   C26926239   2.532   5.124   3.150  0.5721  0.7375 -0.2997
   36MOL   C27026240   2.497   5.028   3.030  0.0303 -0.1076  0.2974
   36MOL   C27126241   2.625   4.979   2.968  0.4717  0.1164 -0.7991
   36MOL   C27226242   2.702   4.874   3.054  0.8443 -0.0432  0.6415
   36MOL   C27326243   2.834   4.822   2.992 -0.1500  0.6004  0.5146
   36MOL   N27426244   2.941   4.926   2.996  0.2442  0.2313 -0.4288
   36MOL   H27526245   2.268   5.539   3.728 -0.5733  0.0783 -0.7569
   36MOL   H27626246   2.115   5.473   3.796  1.0040  2.6875  0.9283
   36MOL   H27726247   2.134   5.296   3.608  2.5715 -0.8738  0.2149
   36MOL   H27826248   2.120   5.456   3.542  2.4536  2.0577 -0.8780
   36MOL   H27926249   2.397   5.328   3.582  0.8606 -0.7367 -2.0874
   36MOL   H28026250   2.342   5.464   3.477 -0.3705 -0.6704  0.4320
   36MOL   H28126251   2.263   5.175   3.457  0.7312  0.9954  2.0125
   36MOL   H28226252   2.219   5.310   3.354 -0.4401 -0.1268 -0.5918
   36MOL   H28326253   2.501   5.196   3.411 -0.8896 -0.7853 -0.5885
   36MOL   H28426254   2.475   5.340   3.308 -0.6410  0.6258  0.4320
   36MOL   H28526255   2.331   5.201   3.155  2.0261  1.7974 -1.2488
   36MOL   H28626256   2.355   5.065   3.265 -0.0355  0.8104 -0.4722
   36MOL   H28726257   2.599   5.074   3.221 -2.1991 -2.2928  0.2817
   36MOL   H28826258   2.581   5.212   3.109  2.9927  0.0747  0.9995
   36MOL   H28926259   2.427   5.080   2.965 -3.0307 -2.3059  1.6681
   36MOL   H29026260   2.446   4.937   3.064  0.5253 -0.6774 -0.4635
   36MOL   H29126261   2.694   5.054   2.928  1.5389 -0.0712  0.6768
   36MOL   H29226262   2.604   4.935   2.870 -0.8810  1.2686 -1.0453
   36MOL   H29326263   2.640   4.786   3.071 -0.8749  0.7330 -1.3521
   36MOL   H29426264   2.726   4.914   3.152 -0.8350  0.6024  0.8082
   36MOL   H29526265   2.826   4.785   2.890  0.0137  0.6192  0.4955
   36MOL   H29626266   2.869   4.739   3.054  0.0905  0.7221  0.5408
   36MOL   H29726267   2.943   4.981   2.911 -1.2020  0.6593 -0.2052
   36MOL   C29826268   3.054   4.933   3.075  0.1382  0.3459  0.7046
   36MOL   O29926269   3.081   4.860   3.170 -0.1237 -0.5574  0.1563
   36MOL   C30026270   3.159   5.034   3.021  0.0370  0.2096  0.2297
   36MOL   C30126271   3.232   5.112   3.130  0.3050  0.0386 -0.1995
   36MOL   C30226272   3.328   5.222   3.082  0.7932  0.7892  0.1021
   36MOL   C30326273   3.439   5.154   2.995  1.2110  0.3143 -0.0117
   36MOL   C30426274   3.567   5.234   2.989 -0.3578  0.1700 -0.1693
   36MOL   C30526275   3.650   5.190   3.108  0.2948 -0.8025  0.2586
   36MOL   C30626276   3.772   5.281   3.139 -0.8012 -0.1194  0.0673
   36MOL   C30726277   3.861   5.229   3.249 -0.5680 -0.1187  0.7102
   36MOL   C30826278   3.956   5.119   3.193  0.7339 -0.5586 -0.7230
   36MOL   C30926279   4.024   5.043   3.310  0.5712 -0.0201 -0.0981
   36MOL   C31026280   4.131   4.944   3.247  0.1457  0.0805 -0.0985
   36MOL   N31126281   4.210   4.888   3.355 -0.6084  0.9273 -0.4149
   36MOL   H31226282   3.100   5.104   2.962 -0.4863 -1.2922 -1.0727
   36MOL   H31326283   3.230   4.992   2.950  1.5509  0.2545  1.6851
   36MOL   H31426284   3.151   5.153   3.189  0.1459 -1.2087  0.4785
   36MOL   H31526285   3.297   5.048   3.191 -0.0914 -1.1570 -1.0252
   36MOL   H31626286   3.363   5.278   3.168  2.3798 -1.6674  1.0715
   36MOL   H31726287   3.267   5.290   3.020 -0.5686  0.4401  1.0389
   36MOL   H31826288   3.469   5.053   3.023 -0.4421 -0.7620 -1.9387
   36MOL   H31926289   3.413   5.148   2.889 -0.4815 -2.5759  0.5020
   36MOL   H32026290   3.547   5.341   2.997 -0.9851  0.1265 -1.1758
   36MOL   H32126291   3.637   5.209   2.909 -0.6489 -0.8048 -0.1284
   36MOL   H32226292   3.691   5.089   3.110  0.7886 -0.6870 -2.3729
   36MOL   H32326293   3.585   5.201   3.194  0.9752  0.5202  0.6275
   36MOL   H32426294   3.751   5.386   3.161 -1.0956  0.3176 -2.2477
   36MOL   H32526295   3.833   5.280   3.049  0.8723 -1.3341  1.1941
   36MOL   H32626296   3.797   5.183   3.325 -0.4204  0.0380  0.9320
   36MOL   H32726297   3.911   5.312   3.300 -2.7081  2.9130 -1.9756
   36MOL   H32826298   4.016   5.168   3.116 -0.4227  1.5875 -0.2916
   36MOL   H32926299   3.904   5.040   3.138  2.0454 -1.8895 -0.0887
   36MOL   H33026300   3.950   4.983   3.363 -0.9116  2.3708  0.6078
   36MOL   H33126301   4.076   5.117   3.371  1.6715 -0.2584 -0.7507
   36MOL   H33226302   4.195   5.012   3.191  0.8573 -1.6839 -1.4434
   36MOL   H33326303   4.096   4.859   3.190 -0.6730  0.3807 -0.0618
   36MOL   H33426304   4.299   4.930   3.376  0.2630 -1.2169  0.3133
   36MOL   C33526305   4.174   4.779   3.423 -0.7345  0.7059 -0.2781
   36MOL   O33626306   4.076   4.710   3.391 -0.1564  0.1648 -0.3656
   36MOL   C33726307   4.272   4.739   3.538  0.0482 -1.2592 -1.2079
   36MOL   C33826308   4.185   4.734   3.667 -0.5327  0.6079 -0.5251
   36MOL   C33926309   4.138   4.875   3.716 -0.3908 -0.6301  0.3632
   36MOL   C34026310   4.098   4.877   3.865  0.0567 -0.1113  0.2848
   36MOL   C34126311   4.199   4.840   3.974 -0.7215  0.4826  0.0869
   36MOL   C34226312   4.184   4.918   4.110 -0.4595  0.0409  0.1600
   36MOL   C34326313   4.297   4.905   4.213 -0.3538  0.6005 -0.0123
   36MOL   C34426314   4.279   4.972   4.345 -0.4767  0.2640 -0.4373
   36MOL   C34526315   4.405   4.953   4.428 -0.5209 -0.5414  1.0765
   36MOL   C34626316   4.392   5.060   4.543 -0.0549 -0.5618  0.2934
   36MOL   C34726317   4.532   5.095   4.611 -0.1871 -0.1114  0.3204
   36MOL   N34826318   4.517   5.205   4.708  0.3684 -0.0555 -0.5958
   36MOL   H34926319   4.348   4.817   3.545 -0.7412 -0.5241 -0.6669
   36MOL   H35026320   4.321   4.644   3.519 -0.4397 -1.1832 -2.9109
   36MOL   H35126321   4.101   4.666   3.653 -2.1118  2.4666 -0.2851
   36MOL   H35226322   4.249   4.694   3.746 -1.1404  0.9499  0.1524
   36MOL   H35326323   4.057   4.917   3.657 -0.4340  0.8733  1.4597
   36MOL   H35426324   4.210   4.955   3.701 -0.6158 -0.1855  1.6240
   36MOL   H35526325   4.071   4.981   3.880 -0.0931 -0.3288  1.6026
   36MOL   H35626326   4.006   4.822   3.888 -0.3846  0.5186  0.0345
   36MOL   H35726327   4.290   4.882   3.932  0.1416 -1.4079  0.0085
   36MOL   H35826328   4.221   4.733   3.975  3.7126  1.2637 -1.7015
   36MOL   H35926329   4.089   4.879   4.148  0.1058  1.6889  3.4613
   36MOL   H36026330   4.167   5.023   4.089 -1.4062 -0.3116 -0.8324
   36MOL   H36126331   4.382   4.945   4.158 -0.2158  0.1822 -0.1070
   36MOL   H36226332   4.323   4.802   4.235  0.6706  0.1971 -2.9320
   36MOL   H36326333   4.203   4.917   4.401  1.2063  0.7044  2.4332
   36MOL   H36426334   4.249   5.075   4.327 -0.7692  0.2318 -0.1341
   36MOL   H36526335   4.497   4.971   4.371 -0.5000 -3.9086 -0.0719
   36MOL   H36626336   4.437   4.855   4.461  0.9750  0.2258  1.9697
   36MOL   H36726337   4.312   5.035   4.614 -0.3172 -0.2828  0.0959
   36MOL   H36826338   4.368   5.156   4.499 -0.1508 -0.1533  1.2128
   36MOL   H36926339   4.600   5.130   4.533  0.1333 -0.3240  0.5024
   36MOL   H37026340   4.578   5.013   4.665 -2.4653 -0.7487  1.3433
   36MOL   H37126341   4.487   5.183   4.802 -2.9050  2.3674 -0.9640
   36MOL   C37226342   4.526   5.332   4.669  0.6038 -0.6685 -0.2582
   36MOL   O37326343   4.564   5.367   4.552  0.0614  0.3036 -0.2813
   36MOL   C37426344   4.489   5.445   4.766 -0.6105 -0.3305 -0.1824
   36MOL   C37526345   4.581   5.556   4.769 -0.3114 -0.0983  0.2832
   36MOL   C37626346   4.725   5.529   4.813 -0.3234  0.0794 -0.3133
   36MOL   C37726347   4.732   5.469   4.955  0.1148 -0.2322 -0.5402
   36MOL   C37826348   4.875   5.443   5.001  0.2838  0.6203 -0.8764
   36MOL   C37926349   4.889   5.372   5.130  0.1655  0.5087  0.2104
   36MOL   C38026350   4.888   5.462   5.253  0.8039 -0.6035  0.0717
   36MOL   C38126351   4.913   5.389   5.386  0.5808 -0.2132  0.2643
   36MOL   C38226352   4.954   5.469   5.510 -0.2542 -0.2735 -0.2630
   36MOL   C38326353   4.846   5.578   5.550 -0.0122  0.4009  0.5151
   36MOL   C38426354   4.868   5.683   5.658  0.3756 -0.3116  1.0520
   36MOL   N38526355   4.752   5.748   5.690 -0.4248 -0.4851 -0.1669
   36MOL   H38626356   4.467   5.407   4.866  3.4115 -1.9310  0.1607
   36MOL   H38726357   4.395   5.484   4.728 -1.4745 -1.9217  0.2328
   36MOL   H38826358   4.583   5.609   4.674 -2.0706  1.1835  0.9336
   36MOL   H38926359   4.546   5.630   4.842  2.7363  0.7357  0.9897
   36MOL   H39026360   4.781   5.622   4.800 -0.0718  0.1584  1.2810
   36MOL   H39126361   4.780   5.456   4.753 -0.1764  0.5358 -0.7341
   36MOL   H39226362   4.665   5.521   5.024  1.2658 -1.6238  1.6950
   36MOL   H39326363   4.672   5.378   4.961 -0.0255 -0.1205 -0.2239
   36MOL   H39426364   4.931   5.536   4.999  0.6356  0.4054 -1.5704
   36MOL   H39526365   4.931   5.392   4.922  1.1441 -1.5903  1.0972
   36MOL   H39626366   4.984   5.319   5.138  0.2967  0.8919  1.2913
   36MOL   H39726367   4.817   5.293   5.151  0.8067 -0.0544  0.3403
   36MOL   H39826368   4.795   5.518   5.259  0.0449 -1.7961 -0.3016
   36MOL   H39926369   4.967   5.531   5.225  1.4456 -1.7028 -0.8887
   36MOL   H40026370   5.004   5.330   5.378  1.6286  1.4092 -0.0815
   36MOL   H40126371   4.833   5.316   5.400  0.1219  0.1220 -0.5766
   36MOL   H40226372   5.050   5.519   5.498  0.3284 -1.2344  0.3757
   36MOL   H40326373   4.971   5.401   5.593  2.1926  0.9562  0.3216
   36MOL   H40426374   4.764   5.512   5.576  2.6588 -3.0119  0.7335
   36MOL   H40526375   4.803   5.627   5.463  1.4896  2.0599  0.6723
   36MOL   H40626376   4.954   5.741   5.624 -1.1097 -0.2510 -2.9023
   36MOL   H40726377   4.911   5.637   5.746 -0.4191 -2.7368  0.2057
   36MOL   H40826378   4.671   5.696   5.720 -2.3061  2.3343 -0.0841
   36MOL   C40926379   4.736   5.885   5.686 -0.5056  0.1889  0.9232
   36MOL   O41026380   4.830   5.958   5.653 -0.4608  0.2239 -0.9952
   36MOL   C41126381   4.612   5.948   5.745  0.0527  0.1996  0.1895
   36MOL   C41226382   4.549   6.059   5.666  0.1112 -0.5401  0.1625
   36MOL   C41326383   4.633   6.195   5.664 -0.3940  0.1263  0.0093
   36MOL   C41426384   4.578   6.297   5.569  0.0004  0.4465 -0.4947
   36MOL   C41526385   4.619   6.267   5.424  0.0999 -0.2525  0.1669
   36MOL   C41626386   4.767   6.264   5.384 -0.1581  0.3489  0.3485
   36MOL   C41726387   4.786   6.245   5.235  0.6802 -0.0803  0.2013
   36MOL   C41826388   4.936   6.261   5.218  0.0231 -0.3216  0.2691
   36MOL   C41926389   4.992   6.248   5.071 -0.6068 -0.1982 -0.6431
   36MOL   C42026390   5.132   6.303   5.053  0.0070  0.1142 -0.2921
   36MOL   C42126391   5.245   6.249   5.146 -0.2179  0.5960 -0.4913
   36MOL   N42226392   5.370   6.314   5.114 -0.2710 -0.3609  0.5483
   36MOL   H42326393   4.636   5.986   5.844 -1.7551 -0.6776  0.9907
   36MOL   H42426394   4.551   5.861   5.770  1.2212  0.0990  2.8295
   36MOL   H42526395   4.533   6.014   5.568  1.2281 -2.2945  0.7713
   36MOL   H42626396   4.448   6.066   5.706  0.0921 -1.3886  0.2778
   36MOL   H42726397   4.739   6.179   5.647 -0.2061  1.1686  0.1718
   36MOL   H42826398   4.621   6.246   5.760 -1.3057  1.7460 -0.9278
   36MOL   H42926399   4.472   6.317   5.583 -0.2384 -1.3044  0.3209
   36MOL   H43026400   4.634   6.387   5.593  1.9728 -0.9268  0.1457
   36MOL   H43126401   4.565   6.344   5.369  2.6838 -0.8678 -3.4054
   36MOL   H43226402   4.574   6.178   5.380  0.7200 -0.5008  0.0275
   36MOL   H43326403   4.816   6.177   5.428  0.5172 -0.7489 -2.4824
   36MOL   H43426404   4.823   6.351   5.418  0.5369  0.0716 -0.0848
   36MOL   H43526405   4.724   6.304   5.167  2.2831  1.5716  0.1436
   36MOL   H43626406   4.771   6.143   5.199 -1.1600  1.6674 -4.3664
   36MOL   H43726407   4.994   6.199   5.287 -0.1895 -1.1390 -0.2836
   36MOL   H43826408   4.962   6.363   5.247  1.7971 -0.8174  0.4733
   36MOL   H43926409   4.930   6.299   4.998  0.4467  2.9656  0.6074
   36MOL   H44026410   4.979   6.144   5.042  1.7823 -0.9820  0.9162
   36MOL   H44126411   5.131   6.411   5.070 -0.7075  0.3843 -1.9120
   36MOL   H44226412   5.149   6.281   4.947  2.4158 -1.0531  0.3113
   36MOL   H44326413   5.267   6.143   5.131 -0.7787  0.1991  1.3803
   36MOL   H44426414   5.215   6.248   5.250  2.3316  0.4509  0.2654
   36MOL   H44526415   5.450   6.256   5.094  1.0425  1.0682  1.5003
   36MOL   C44626416   5.400   6.442   5.142  0.0419  0.4501  0.3309
   36MOL   O44726417   5.318   6.510   5.201 -0.1003 -0.0391  0.0870
   36MOL   C44826418   5.547   6.487   5.112  0.9572 -0.2410 -0.5274
   36MOL   C44926419   5.564   6.633   5.046  0.1233  0.7147  0.0181
   36MOL   C45026420   5.496   6.647   4.910 -0.0829 -0.1012 -0.2914
   36MOL   C45126421   5.432   6.784   4.889  0.7671  0.2768 -1.1676
   36MOL   C45226422   5.317   6.821   4.983 -0.4975  0.2610  0.3308
   36MOL   C45326423   5.252   6.952   4.937 -0.1924 -1.1818  0.1361
   36MOL   C45426424   5.139   6.999   5.023  0.1707 -0.3528 -0.5626
   36MOL   C45526425   5.092   7.141   4.986 -0.7911  0.4377  0.1117
   36MOL   C45626426   4.997   7.192   5.097  0.2834 -0.2571  0.3278
   36MOL   C45726427   4.933   7.328   5.076 -0.7825  0.4271  0.2353
   36MOL   C45826428   5.017   7.449   5.117 -0.4406  0.4150  0.0816
   36MOL   N45926429   4.935   7.571   5.120 -1.0053  0.1829  0.1092
   36MOL   H46026430   5.602   6.411   5.056  1.9626  0.8624 -1.0742
   36MOL   H46126431   5.601   6.507   5.205  0.5691  1.3076 -0.6118
   36MOL   H46226432   5.517   6.702   5.116  0.4553  0.3363  0.6235
   36MOL   H46326433   5.669   6.659   5.034  0.4972 -0.9354 -0.4546
   36MOL   H46426434   5.435   6.559   4.889  0.9393 -0.2083 -3.0877
   36MOL   H46526435   5.569   6.635   4.829 -1.0216 -0.9669 -1.0344
   36MOL   H46626436   5.511   6.858   4.893  1.0640 -0.0553 -0.7500
   36MOL   H46726437   5.394   6.775   4.787 -1.3363  2.1158 -0.5819
   36MOL   H46826438   5.340   6.823   5.090  1.7186  2.0441 -0.1567
   36MOL   H46926439   5.248   6.737   4.977 -1.1598  0.9881 -3.1643
   36MOL   H47026440   5.212   6.956   4.835 -1.4935  0.3946  0.6871
   36MOL   H47126441   5.331   7.027   4.939 -0.5491 -0.6580 -2.8929
   36MOL   H47226442   5.180   7.001   5.123  0.2647 -0.5690 -0.5964
   36MOL   H47326443   5.049   6.937   5.015  0.3639 -0.6265 -0.6408
   36MOL   H47426444   5.027   7.133   4.899 -1.2674  3.2888  0.1867
   36MOL   H47526445   5.177   7.209   4.982 -1.3528  1.2281  1.5045
   36MOL   H47626446   5.037   7.186   5.198 -1.8364  0.6878  1.2500
   36MOL   H47726447   4.913   7.122   5.101  0.2355 -0.1898  0.5145
   36MOL   H47826448   4.841   7.325   5.134 -0.5957 -0.7965  0.4761
   36MOL   H47926449   4.909   7.344   4.971 -0.9539  1.0622  0.3732
   36MOL   H48026450   5.091   7.457   5.037 -0.4031 -2.6029 -0.2663
   36MOL   H48126451   5.067   7.440   5.214  1.4467  0.8622 -0.8207
   36MOL   H48226452   4.838   7.557   5.144 -1.7698 -0.3465 -3.0658
   36MOL   C48326453   4.982   7.693   5.090  0.1970 -0.2970  0.0425
   36MOL   O48426454   5.085   0.014   5.029 -0.3244 -0.5279 -0.2871
   36MOL   C48526455   4.896   0.120   5.114  0.7054  0.4552 -0.0188
   36MOL   C48626456   4.855   0.191   4.983  0.6800 -0.5987 -0.0748
   36MOL   C48726457   4.794   0.329   5.010 -0.0743 -0.1424  0.3582
   36MOL   C48826458   4.771   0.410   4.880 -0.3294  0.0662  0.0714
   36MOL   C48926459   4.644   0.378   4.801 -0.6198  0.3308 -0.6832
   36MOL   C49026460   4.520   0.429   4.865  0.2699 -0.1726 -0.1325
   36MOL   C49126461   4.394   0.396   4.776 -0.6784 -0.3748  0.0004
   36MOL   C49226462   4.275   0.483   4.824 -0.5653  0.3195  0.2731
   36MOL   C49326463   4.150   0.467   4.739  0.0743  0.2451  0.4767
   36MOL   C49426464   4.038   0.572   4.768 -0.1592  0.2333 -0.2851
   36MOL   C49526465   3.904   0.552   4.697 -0.0473 -0.8145  0.5126
   36MOL   N49626466   3.918   0.579   4.551  0.7884  0.2590 -0.4589
   36MOL   H49726467   4.963   0.183   5.172 -0.0069  0.2405  1.0528
   36MOL   H49826468   4.807   0.086   5.167 -1.0684 -0.2180 -3.2767
   36MOL   H49926469   4.940   0.223   4.923  0.5662  0.9077  0.5327
   36MOL   H50026470   4.796   0.128   4.916  0.8737  1.2573 -2.0588
   36MOL   H50126471   4.864   0.390   5.067  0.4745 -1.4952  1.1321
   36MOL   H50226472   4.697   0.316   5.057 -0.1429 -0.6290  0.0835
   36MOL   H50326473   4.765   0.514   4.910 -1.6550 -0.2345  0.9008
   36MOL   H50426474   4.865   0.408   4.825  1.2222 -0.2263  2.6237
   36MOL   H50526475   4.624   0.273   4.780  2.8326 -0.4624 -0.3748
   36MOL   H50626476   4.649   0.426   4.703 -0.2116  1.3059 -0.1926
   36MOL   H50726477   4.530   0.537   4.873  1.7344 -0.4038  1.2451
   36MOL   H50826478   4.507   0.386   4.964 -0.9124 -0.3641 -0.3638
   36MOL   H50926479   4.380   0.288   4.771  0.3892 -0.4434 -2.2916
   36MOL   H51026480   4.416   0.420   4.672 -0.2978 -1.3370 -0.1513
   36MOL   H51126481   4.314   0.583   4.842 -0.8876  0.3694  0.6788
   36MOL   H51226482   4.252   0.459   4.927 -1.4077 -0.6529 -0.1289
   36MOL   H51326483   4.109   0.370   4.766  0.6327  0.3721  1.8487
   36MOL   H51426484   4.175   0.464   4.633  1.1608 -0.0219  0.7279
   36MOL   H51526485   4.072   0.673   4.749 -0.3210  0.3927  0.2651
   36MOL   H51626486   4.012   0.580   4.874  1.7601 -0.0274  0.2372
   36MOL   H51726487   3.837   0.630   4.732  1.5044  0.2788  1.1250
   36MOL   H51826488   3.871   0.448   4.706 -0.6359 -0.6257  0.5152
   36MOL   H51926489   4.007   0.620   4.528  1.2402 -0.1599  0.4823
   36MOL   C52026490   3.827   0.542   4.455  0.2727  0.3277 -1.0255
   36MOL   O52126491   3.718   0.486   4.472  0.2066 -0.1050  0.0363
   36MOL   C52226492   3.864   0.568   4.310  0.1647 -0.4422 -0.5695
   36MOL   C52326493   3.810   0.479   4.198  0.4231  0.1891 -0.6664
   36MOL   C52426494   3.848   0.331   4.208  0.7068 -0.6205 -0.0338
   36MOL   C52526495   3.827   0.238   4.083 -0.3664  0.9081  0.0516
   36MOL   C52626496   3.888   0.099   4.115  0.1674 -0.0412 -0.2375
   36MOL   C52726497   3.873   0.001   3.997 -0.2988 -0.4467 -0.1220
   36MOL   C52826498   3.975   7.580   3.981 -0.4792 -0.5003  0.1957
   36MOL   C52926499   3.983   7.504   4.110 -0.3656 -0.0889  0.5171
   36MOL   C53026500   4.076   7.380   4.089 -0.5798 -0.6203  0.6017
   36MOL   C53126501   4.227   7.412   4.114 -0.5779  0.9930  0.9926
   36MOL   C53226502   4.310   7.286   4.101  0.3791 -0.3012 -0.7051
   36MOL   N53326503   4.448   7.317   4.116  0.1882 -0.3661  0.2645
   36MOL   H53426504   3.971   0.547   4.308  0.6605  1.0919  3.7738
   36MOL   H53526505   3.843   0.671   4.283  0.2128 -0.2013  0.2822
   36MOL   H53626506   3.702   0.482   4.191  0.3186 -1.5449 -0.1495
   36MOL   H53726507   3.858   0.511   4.106 -0.2499  0.6601 -0.8493
   36MOL   H53826508   3.788   0.295   4.292 -0.2733  0.9621 -0.0531
   36MOL   H53926509   3.944   0.317   4.258 -1.4164  0.3785  4.5173
   36MOL   H54026510   3.728   0.232   4.040 -0.9361  1.5002  1.2592
   36MOL   H54126511   3.879   0.278   3.996  2.1966  0.7977  1.4698
   36MOL   H54226512   3.844   0.052   4.203  2.6442 -3.1194 -0.5280
   36MOL   H54326513   3.993   0.104   4.145 -0.2102  0.5683  1.0092
   36MOL   H54426514   3.878   0.058   3.904 -0.3219 -1.1796 -0.5738
   36MOL   H54526515   3.769   7.661   3.992 -0.6724  0.7593 -1.0035
   36MOL   H54626516   4.066   7.633   3.953 -1.1197  1.9354  2.5747
   36MOL   H54726517   3.955   7.519   3.893  0.2224 -0.6342  0.1235
   36MOL   H54826518   3.878   7.476   4.123 -0.6347  0.7140  0.0853
   36MOL   H54926519   4.013   7.568   4.193 -2.8073  0.1631  1.2424
   36MOL   H55026520   4.063   7.324   3.997 -1.4271 -0.0894  0.3974
   36MOL   H55126521   4.052   7.296   4.154 -0.8744 -0.6912  0.3962
   36MOL   H55226522   4.255   7.461   4.207 -1.1478  0.4509  1.4591
   36MOL   H55326523   4.253   7.477   4.030  0.8305 -0.3961  0.3243
   36MOL   H55426524   4.290   7.236   4.006  0.0639  0.2586 -0.9388
   36MOL   H55526525   4.289   7.208   4.174 -1.8075 -0.7460 -1.7858
   36MOL   H55626526   4.489   7.311   4.208  2.5000  0.3482 -0.6748
   36MOL   C55726527   4.528   7.360   4.020 -0.4472  0.3678 -0.3095
   36MOL   O55826528   4.489   7.370   3.902  0.5694 -0.9808 -0.8645
   36MOL   C55926529   4.674   7.383   4.066  0.7940 -0.0522 -0.1994
   36MOL   C56026530   4.789   7.321   3.978  0.1956  0.7799 -0.3322
   36MOL   C56126531   4.925   7.369   4.033  0.2104  0.0111 -0.0052
   36MOL   C56226532   5.048   7.274   4.009 -0.3385  0.2828  0.2096
   36MOL   C56326533   5.181   7.339   4.011 -0.1704 -0.2591  0.0277
   36MOL   C56426534   5.288   7.231   4.017  0.3165 -0.2935 -0.3255
   36MOL   C56526535   5.306   7.146   3.888  0.2324  1.0538  0.5270
   36MOL   C56626536   5.220   7.015   3.882  0.1380  0.0581 -0.0076
   36MOL   C56726537   5.257   6.909   3.989 -0.4324 -0.7769 -0.2596
   36MOL   C56826538   5.231   6.765   3.939 -0.2962  0.2251  0.1686
   36MOL   C56926539   5.239   6.639   4.027 -0.1863 -0.0479  0.2853
   36MOL   N57026540   5.196   6.665   4.163 -0.4117 -0.0896  0.3492
   36MOL   H57126541   4.678   7.365   4.174 -2.0196 -2.1304 -0.3714
   36MOL   H57226542   4.690   7.489   4.049 -0.7586  0.1981 -0.2432
   36MOL   H57326543   4.784   7.212   3.979 -1.3352  0.7946  3.6435
   36MOL   H57426544   4.783   7.356   3.875 -2.1103 -1.3865 -0.9835
   36MOL   H57526545   4.917   7.389   4.140  1.1040  0.0397  0.0631
   36MOL   H57626546   4.941   7.461   3.977 -0.8741  0.6641  0.7295
   36MOL   H57726547   5.041   7.185   4.072  2.4418 -0.3819 -0.3625
   36MOL   H57826548   5.027   7.233   3.910  0.2658 -1.1964  0.6804
   36MOL   H57926549   5.192   7.397   4.103  0.4687 -1.1725  0.5508
   36MOL   H58026550   5.194   7.403   3.925 -1.3348  0.6323  0.5046
   36MOL   H58126551   5.273   7.152   4.090  1.4544  0.3559  0.6196
   36MOL   H58226552   5.378   7.289   4.037 -0.4597  1.5942 -2.0914
   36MOL   H58326553   5.412   7.125   3.875 -0.1534 -0.2198 -0.7345
   36MOL   H58426554   5.287   7.202   3.796  1.4509 -1.8422 -1.5723
   36MOL   H58526555   5.215   6.976   3.780  1.5581 -1.0863  0.3448
   36MOL   H58626556   5.112   7.028   3.888  0.3146  1.4584  0.2594
   36MOL   H58726557   5.206   6.929   4.084  2.1288 -3.0832  1.6856
   36MOL   H58826558   5.364   6.921   4.006 -0.1148 -3.1207 -0.4770
   36MOL   H58926559   5.298   6.756   3.853  0.0260  2.2653  0.1694
   36MOL   H59026560   5.127   6.759   3.906 -0.1179  2.1396 -0.8567
   36MOL   H59126561   5.337   6.593   4.034  0.4304  1.0607 -0.7106
   36MOL   H59226562   5.174   6.560   3.991 -1.3450  0.9283  0.1769
   36MOL   H59326563   5.262   6.681   4.238 -0.1846 -0.9151  0.3319
   36MOL   C59426564   5.067   6.699   4.186  0.1587  0.6184 -0.2987
   36MOL   O59526565   4.982   6.691   4.100 -0.4964 -0.3505 -0.5117
   36MOL   C59626566   5.028   6.743   4.327 -0.3414 -0.6993 -0.1122
   36MOL   C59726567   4.943   6.872   4.323  0.2604  0.6909  0.1622
   36MOL   C59826568   5.006   6.994   4.391 -0.0132 -0.2605  0.4106
   36MOL   C59926569   4.941   7.125   4.371  0.0210 -0.1215  0.0389
   36MOL   C60026570   4.986   7.239   4.451  0.4057  0.1123  0.2176
   36MOL   C60126571   4.900   7.366   4.450 -0.3859  0.2887 -0.0666
   36MOL   C60226572   4.959   7.468   4.550 -0.0033  0.4964 -0.1203
   36MOL   C60326573   4.893   7.601   4.532  0.5014  0.7117  0.5928
   36MOL   C60426574   4.946   0.007   4.635 -0.3301 -0.7555 -0.4535
   36MOL   C60526575   5.063   0.085   4.581 -0.3523 -0.2906  0.1536
   36MOL   C60626576   5.157   0.139   4.689  0.6166  0.2529 -0.4247
   36MOL   N60726577   5.202   0.030   4.777  0.4445  0.2332  0.5351
   36MOL   H60826578   5.116   6.748   4.391  1.2590  0.3267 -2.3601
   36MOL   H60926579   4.976   6.655   4.365  1.2521 -1.2869  0.7771
   36MOL   H61026580   4.907   6.901   4.224 -0.3663 -1.0965 -0.1413
   36MOL   H61126581   4.851   6.853   4.379 -0.1655  1.7164 -0.1640
   36MOL   H61226582   5.110   7.003   4.360  0.3015 -1.0253  1.2469
   36MOL   H61326583   5.010   6.980   4.499 -2.2334 -2.6502  0.2232
   36MOL   H61426584   4.941   7.150   4.265  0.1670 -2.0521 -0.4442
   36MOL   H61526585   4.835   7.107   4.389 -0.3899  2.1261  0.0016
   36MOL   H61626586   5.087   7.265   4.418 -0.8519  0.2423 -3.7570
   36MOL   H61726587   5.001   7.214   4.556  2.0585 -2.0868 -0.5125
   36MOL   H61826588   4.798   7.342   4.480 -0.5129  2.3791  1.2698
   36MOL   H61926589   4.896   7.402   4.347 -0.5447  1.4593  0.3432
   36MOL   H62026590   5.066   7.481   4.531  0.0678  0.9219  0.5885
   36MOL   H62126591   4.941   7.432   4.651 -2.1478 -2.2928 -1.4191
   36MOL   H62226592   4.785   7.597   4.549  0.2207  2.7562 -0.5027
   36MOL   H62326593   4.900   7.631   4.428 -0.0265  2.2148  0.9809
   36MOL   H62426594   4.959   7.649   4.730 -1.9988  1.3686  1.0145
   36MOL   H62526595   4.870   0.085   4.645  0.9716  0.5369 -0.5374
   36MOL   H62626596   5.030   0.174   4.527  0.4016 -0.1360 -0.0565
   36MOL   H62726597   5.112   0.016   4.513  0.2467 -1.8603  2.1443
   36MOL   H62826598   5.104   0.211   4.752  3.5536  2.0188  0.1392
   36MOL   H62926599   5.243   0.195   4.652  0.5304  0.3037 -0.5495
   36MOL   H63026600   5.151   0.014   4.862  0.3191  1.9154  0.8081
   36MOL   C63126601   5.313   7.649   4.768 -0.2778  0.2459 -0.3790
   36MOL   O63226602   5.391   7.663   4.672 -0.3320  0.0779 -0.2753
   36MOL   C63326603   5.355   7.550   4.875 -0.0158  0.0147 -0.0349
   36MOL   C63426604   5.392   7.416   4.813  0.3501  0.4139  0.6662
   36MOL   C63526605   5.299   7.361   4.705 -0.7433  0.4709 -0.2365
   36MOL   C63626606   5.320   7.219   4.669  0.1720  0.8056 -0.0574
   36MOL   C63726607   5.446   7.178   4.589  0.1999 -0.4637  0.1053
   36MOL   C63826608   5.433   7.031   4.541  0.7791  0.1021 -0.1301
   36MOL   C63926609   5.529   7.009   4.425 -0.6768 -0.2002  0.0888
   36MOL   C64026610   5.525   6.862   4.369 -0.3606  0.5052 -0.4264
   36MOL   C64126611   5.623   6.836   4.251 -0.4704 -0.4632  0.1362
   36MOL   C64226612   5.605   6.689   4.195 -0.0685 -0.3977  0.2615
   36MOL   C64326613   5.683   6.663   4.068  0.0433  0.2326  0.6530
   36MOL   N64426614   5.711   6.519   4.052  0.1140 -0.2442 -0.1897
   36MOL   H64526615   5.267   7.523   4.933 -1.1087  2.3735 -0.5358
   36MOL   H64626616   5.440   7.585   4.933 -0.7674  0.3390  0.8725
   36MOL   H64726617   5.494   7.407   4.776  0.2525  1.3664  0.1664
   36MOL   H64826618   5.389   7.349   4.899  0.3333 -0.8296 -0.2883
   36MOL   H64926619   5.288   7.423   4.616 -0.8908  1.3211  0.3653
   36MOL   H65026620   5.204   7.360   4.758 -1.2660  1.0141 -1.1444
   36MOL   H65126621   5.322   7.157   4.758  3.0001  0.9383  0.0108
   36MOL   H65226622   5.232   7.183   4.615  1.0424 -0.3070 -0.7718
   36MOL   H65326623   5.535   7.206   4.645  0.5446  1.2274 -1.2574
   36MOL   H65426624   5.444   7.240   4.499  0.9786  1.6725  1.5220
   36MOL   H65526625   5.329   7.003   4.522  0.7706 -0.8865  1.2733
   36MOL   H65626626   5.467   6.972   4.627  1.5144  3.6966  2.1345
   36MOL   H65726627   5.629   7.032   4.464 -1.3762  0.2310  1.6793
   36MOL   H65826628   5.515   7.079   4.343 -1.4147 -0.7243 -0.2339
   36MOL   H65926629   5.423   6.850   4.331 -0.4666  2.0942 -0.6997
   36MOL   H66026630   5.530   6.786   4.447 -0.5126 -1.8175 -2.6089
   36MOL   H66126631   5.719   6.852   4.301 -0.7724 -0.0201  0.5854
   36MOL   H66226632   5.616   6.904   4.166  0.3680  0.4221  0.7684
   36MOL   H66326633   5.499   6.661   4.191 -0.0739 -0.5086  0.9816
   36MOL   H66426634   5.625   6.623   4.280  1.0150  1.5373  1.5426
   36MOL   H66526635   5.774   6.719   4.049  0.1651  0.0672  0.7479
   36MOL   H66626636   5.621   6.701   3.987  0.2647  0.4936  0.6062
   36MOL   H66726637   5.641   6.467   4.000  1.0853 -2.1501  0.3465
   36MOL   C66826638   5.799   6.455   4.128  0.0673  1.0005 -0.4006
   36MOL   O66926639   5.866   6.516   4.212  0.0015  0.0396  0.4214
   36MOL   C67026640   5.821   6.308   4.118 -0.0495 -0.9664  0.1621
   36MOL   C67126641   5.773   6.239   4.247  0.2751  0.7747 -0.1399
   36MOL   C67226642   5.782   6.092   4.220 -0.0601  0.4415 -0.8839
   36MOL   C67326643   5.756   6.006   4.344  0.1688 -0.5433  0.3693
   36MOL   C67426644   5.710   5.864   4.326  0.0643  0.1457  0.3205
   36MOL   C67526645   5.660   5.798   4.457  0.3522 -0.8115  0.8710
   36MOL   C67626646   5.553   5.866   4.543  0.1736 -0.2586  0.0136
   36MOL   C67726647   5.419   5.901   4.461  0.4822  0.4565 -0.0810
   36MOL   C67826648   5.304   5.948   4.555 -0.2942 -0.5138  0.5997
   36MOL   C67926649   5.252   5.841   4.649  0.1313  0.5823 -0.0119
   36MOL   C68026650   5.152   5.894   4.753  0.3594 -0.2260  1.0494
   36MOL   N68126651   5.024   5.947   4.705  0.2943 -0.3207 -0.6158
   36MOL   H68226652   5.926   6.283   4.101 -0.7791 -4.3137  0.1952
   36MOL   H68326653   5.758   6.277   4.034 -1.4102  0.1548  0.7576
   36MOL   H68426654   5.829   6.265   4.337 -0.2352 -1.9301  0.9937
   36MOL   H68526655   5.668   6.264   4.260  0.5941  2.2198 -0.1938
   36MOL   H68626656   5.877   6.072   4.170  2.3213  2.1795  2.7294
   36MOL   H68726657   5.703   6.058   4.152 -1.1644 -0.7045  0.9125
   36MOL   H68826658   5.837   6.010   4.416  0.1295  2.2776  0.3040
   36MOL   H68926659   5.672   6.057   4.390 -0.3093  0.4442 -1.5441
   36MOL   H69026660   5.789   5.806   4.280 -1.5009 -0.7423 -1.2819
   36MOL   H69126661   5.626   5.857   4.257 -2.0009  2.9755  2.3930
   36MOL   H69226662   5.751   5.799   4.517  0.6286  0.0476  0.4572
   36MOL   H69326663   5.633   5.693   4.451  0.3089 -0.6738 -3.4692
   36MOL   H69426664   5.589   5.960   4.586  0.1480 -0.2357 -0.0142
   36MOL   H69526665   5.521   5.803   4.627  0.3240  1.0890  1.0994
   36MOL   H69626666   5.378   5.811   4.415  0.3375  0.5916 -0.2194
   36MOL   H69726667   5.438   5.981   4.389 -0.0194  0.6660  0.0186
   36MOL   H69826668   5.221   5.979   4.491 -0.1864 -1.2982  0.0748
   36MOL   H69926669   5.335   6.040   4.604  2.5168 -1.1927  0.1571
   36MOL   H70026670   5.322   5.778   4.704 -2.0007  0.1420  2.2679
   36MOL   H70126671   5.209   5.768   4.580  1.4374 -0.9627  0.7860
   36MOL   H70226672   5.202   5.963   4.821 -1.5792  1.8464  0.4292
   36MOL   H70326673   5.119   5.809   4.813 -0.1143  0.0935  1.2458
   36MOL   H70426674   4.970   5.882   4.650 -1.6155 -0.8962  1.8421
   36MOL   C70526675   5.010   6.069   4.652 -0.6292 -0.1733 -0.8057
   36MOL   O70626676   5.080   6.164   4.687 -0.5093  0.0328 -0.1674
   36MOL   C70726677   4.900   6.093   4.544  0.6142  0.2597 -0.1756
   36MOL   C70826678   4.869   6.240   4.504 -0.4856  0.1473  0.0022
   36MOL   C70926679   4.760   6.250   4.399  0.0156 -0.3225 -0.6505
   36MOL   C71026680   4.751   6.397   4.362 -0.2545 -0.0134  0.0408
   36MOL   C71126681   4.637   6.433   4.269  0.2928 -0.0418  0.5961
   36MOL   C71226682   4.629   6.578   4.221 -0.5352  0.1115 -0.3013
   36MOL   C71326683   4.584   6.673   4.328 -0.6428  0.1931  0.4674
   36MOL   C71426684   4.564   6.818   4.268 -0.5241  0.0892  0.3248
   36MOL   C71526685   4.531   6.920   4.371  0.1884 -0.7813  0.5672
   36MOL   C71626686   4.545   7.067   4.314  0.5976 -0.0970  0.4498
   36MOL   C71726687   4.509   7.172   4.427  0.3022 -0.1208  0.1122
   36MOL   N71826688   4.545   7.305   4.388  0.1089  0.1330  0.4030
   36MOL   H71926689   4.812   6.047   4.589  0.9527  0.0357  0.2593
   36MOL   H72026690   4.921   6.026   4.461 -0.8743 -1.3138  0.6972
   36MOL   H72126691   4.837   6.298   4.591  0.3539  0.1914  0.2830
   36MOL   H72226692   4.966   6.280   4.476  0.4246 -1.1422  1.2683
   36MOL   H72326693   4.661   6.217   4.429  0.3168 -0.4313  0.2221
   36MOL   H72426694   4.777   6.188   4.311 -0.7303 -1.2942 -0.1107
   36MOL   H72526695   4.741   6.463   4.448  0.8607  2.0628 -1.3775
   36MOL   H72626696   4.843   6.436   4.318 -0.5361 -0.1114 -0.6390
   36MOL   H72726697   4.539   6.409   4.311 -0.2200  2.4012  0.8630
   36MOL   H72826698   4.644   6.378   4.175  0.1501  1.0914 -0.0821
   36MOL   H72926699   4.582   6.586   4.123  1.7523  0.7767 -1.3603
   36MOL   H73026700   4.731   6.611   4.202  0.3563 -0.2419  3.4954
   36MOL   H73126701   4.651   6.670   4.414 -1.1724 -0.5559  0.8574
   36MOL   H73226702   4.490   6.640   4.372 -1.0733 -0.9132 -1.2286
   36MOL   H73326703   4.490   6.812   4.188 -0.3803  0.0809  0.1930
   36MOL   H73426704   4.660   6.850   4.228  0.8935 -3.4160  0.7087
   36MOL   H73526705   4.594   6.909   4.459  2.4060 -0.8157 -1.0020
   36MOL   H73626706   4.426   6.902   4.393 -0.3408  2.0840  0.5489
   36MOL   H73726707   4.481   7.063   4.225  1.0888 -1.3947  0.1419
   36MOL   H73826708   4.647   7.082   4.282  0.7296 -0.5371  0.6587
   36MOL   H73926709   4.560   7.145   4.519  0.6060 -1.3081 -0.3923
   36MOL   H74026710   4.403   7.181   4.449  0.3789 -0.9219  0.8544
   36MOL   H74126711   4.641   7.294   4.358  0.2752  0.9227  0.6398
   36MOL   H74226712   4.545   7.344   4.481 -0.1319  2.1040 -0.3978
   37MOL     C126713   3.609   5.785   3.564 -0.0607  0.7350 -0.0408
   37MOL     O226714   3.711   5.841   3.609 -0.2800 -0.1245  0.2278
   37MOL     C326715   3.578   5.634   3.599 -0.4030 -0.3698  0.6287
   37MOL     C426716   3.706   5.561   3.650 -0.6338  0.2578 -0.0503
   37MOL     C526717   3.791   5.506   3.540  0.0263 -0.3505  0.5466
   37MOL     C626718   3.925   5.458   3.587 -0.8933  0.4889  0.2305
   37MOL     C726719   3.923   5.322   3.653  0.0584 -0.2442  0.6003
   37MOL     C826720   4.061   5.270   3.697 -0.0160 -0.7585 -0.6001
   37MOL     C926721   4.101   5.346   3.824  0.1981 -0.1961 -0.0723
   37MOL    C1026722   4.232   5.292   3.876 -0.5351  0.5378  0.1823
   37MOL    C1126723   4.269   5.356   4.008 -0.3806  0.1200 -0.0587
   37MOL    C1226724   4.400   5.310   4.075  0.4565 -0.4064 -0.4782
   37MOL    C1326725   4.449   5.413   4.189  0.0570  1.0040 -0.1557
   37MOL    N1426726   4.566   5.358   4.262 -0.2055  0.7073  0.0178
   37MOL    H1526727   3.526   5.580   3.520  0.2650 -0.0280 -0.0536
   37MOL    H1626728   3.504   5.642   3.679 -1.3302 -2.0695 -0.0268
   37MOL    H1726729   3.773   5.629   3.702  1.8577  0.3358 -3.2169
   37MOL    H1826730   3.681   5.487   3.725  1.0001  0.7019  0.9639
   37MOL    H1926731   3.805   5.585   3.466  0.3312  1.1964  2.2070
   37MOL    H2026732   3.737   5.424   3.492 -0.5265  0.1488  0.3054
   37MOL    H2126733   3.988   5.438   3.500 -2.8955  1.3883 -1.4570
   37MOL    H2226734   3.981   5.534   3.641 -2.7026  2.0215 -0.0291
   37MOL    H2326735   3.893   5.249   3.577 -0.8989 -0.9076  1.5926
   37MOL    H2426736   3.851   5.317   3.734 -1.5053 -1.8692 -0.8396
   37MOL    H2526737   4.140   5.280   3.623  0.1534 -0.3697 -0.3702
   37MOL    H2626738   4.048   5.165   3.722  3.0842 -1.0329  0.1130
   37MOL    H2726739   4.027   5.322   3.900  1.8642 -0.6761  1.4291
   37MOL    H2826740   4.116   5.453   3.807  1.7679 -0.6062 -1.4105
   37MOL    H2926741   4.315   5.312   3.808 -0.9218 -0.8256 -0.7004
   37MOL    H3026742   4.238   5.184   3.892  1.7613  0.5352 -0.4712
   37MOL    H3126743   4.188   5.330   4.076 -0.6131  0.4155 -0.2230
   37MOL    H3226744   4.268   5.465   4.003  2.2868  0.1758 -0.1864
   37MOL    H3326745   4.481   5.294   4.004 -0.8907 -0.6178 -1.9797
   37MOL    H3426746   4.379   5.212   4.119  1.1718  0.2814  1.4965
   37MOL    H3526747   4.385   5.425   4.276  2.1993 -0.7462  1.7276
   37MOL    H3626748   4.472   5.509   4.143  1.9314 -0.4980 -2.5122
   37MOL    H3726749   4.563   5.352   4.363 -1.0563  1.1621  0.0236
   37MOL    H3826750   3.538   5.836   3.499 -2.3570 -0.5256  1.4011
   37MOL    C3926751   4.685   5.329   4.204  0.6594 -0.2819  0.0160
   37MOL    O4026752   4.713   5.337   4.082  0.8625  0.6205 -0.2216
   37MOL    C4126753   4.776   5.265   4.308  0.5360 -0.1809 -0.5938
   37MOL    C4226754   4.910   5.228   4.242 -0.1131  0.2116  0.2720
   37MOL    C4326755   5.004   5.167   4.344 -0.2705  0.1827 -0.0833
   37MOL    C4426756   5.147   5.133   4.287 -0.1459  0.2971 -1.1327
   37MOL    C4526757   5.242   5.069   4.389  0.4073  0.6847 -0.6703
   37MOL    C4626758   5.218   4.921   4.433 -0.1614 -0.1599 -0.3733
   37MOL    C4726759   5.323   4.867   4.530  0.0125 -0.4006  0.0955
   37MOL    C4826760   5.258   4.759   4.616  0.3989  0.7534  1.0194
   37MOL    C4926761   5.209   4.635   4.538  0.1180 -0.3185 -0.1713
   37MOL    C5026762   5.212   4.509   4.620  0.0382  0.1312  0.3256
   37MOL    C5126763   5.110   4.403   4.581  0.8303 -0.0595  0.9437
   37MOL    N5226764   5.129   4.277   4.652 -0.0786 -0.3072 -0.0540
   37MOL    H5326765   4.732   5.176   4.354  0.2415  0.3330  0.1151
   37MOL    H5426766   4.784   5.332   4.393  1.7222 -2.5267  1.2165
   37MOL    H5526767   4.884   5.155   4.165 -0.9825 -0.9384  1.6413
   37MOL    H5626768   4.956   5.315   4.195 -0.2682  0.9113  1.3949
   37MOL    H5726769   4.954   5.083   4.393  1.1040  0.5402  1.9941
   37MOL    H5826770   5.019   5.235   4.427  2.8233 -0.0075 -0.3903
   37MOL    H5926771   5.140   5.056   4.210  1.8215  0.9546 -1.9896
   37MOL    H6026772   5.192   5.216   4.234  2.3893  0.0685  0.5707
   37MOL    H6126773   5.244   5.133   4.478 -0.3794  1.2242 -1.0261
   37MOL    H6226774   5.344   5.058   4.354  1.3259 -1.4449  2.5095
   37MOL    H6326775   5.232   4.855   4.348  0.0810 -0.2448 -0.2681
   37MOL    H6426776   5.115   4.908   4.464 -0.7054  0.5976 -1.8333
   37MOL    H6526777   5.349   4.948   4.599  2.7821 -0.0823 -1.2276
   37MOL    H6626778   5.411   4.834   4.474  1.8152 -0.9960  3.1434
   37MOL    H6726779   5.185   4.798   4.687 -0.5861 -0.2730  0.5963
   37MOL    H6826780   5.340   4.738   4.685  1.0218 -2.1770 -0.5181
   37MOL    H6926781   5.271   4.622   4.449 -0.0146 -0.5166 -0.2350
   37MOL    H7026782   5.104   4.654   4.513 -0.4602 -2.2601  0.6832
   37MOL    H7126783   5.207   4.536   4.725 -1.0555  0.3486  0.2242
   37MOL    H7226784   5.312   4.472   4.595 -1.0551 -2.6904 -0.0363
   37MOL    H7326785   5.124   4.376   4.477 -0.8885  1.0573  0.4013
   37MOL    H7426786   5.009   4.436   4.606  1.3223  1.2248  1.2768
   37MOL    H7526787   5.178   4.204   4.601  0.6187  1.0193 -1.3214
   37MOL    C7626788   5.099   4.249   4.780  0.2607 -0.1166  0.5154
   37MOL    O7726789   5.043   4.325   4.859 -0.0671  0.2049 -0.4890
   37MOL    C7826790   5.127   4.106   4.824 -0.1959 -0.0149 -0.6098
   37MOL    C7926791   5.156   4.078   4.970 -0.0472  0.5296 -0.7466
   37MOL    C8026792   5.035   4.073   5.067  0.2142 -0.1377 -0.1355
   37MOL    C8126793   5.082   4.050   5.214  0.3314 -0.1796 -0.1099
   37MOL    C8226794   4.958   4.071   5.312  0.3362  0.6996  0.6228
   37MOL    C8326795   4.987   4.020   5.455 -0.0819  1.0141  0.4822
   37MOL    C8426796   5.087   4.117   5.518 -0.3827  0.0203  0.3566
   37MOL    C8526797   5.130   4.078   5.655 -0.1139  0.1867 -0.0378
   37MOL    C8626798   5.184   4.192   5.738 -0.0524 -0.9569 -0.0528
   37MOL    C8726799   5.268   4.155   5.861  0.4002  0.0324 -0.2422
   37MOL    C8826800   5.313   4.273   5.942  0.0582  0.1302 -0.9390
   37MOL    N8926801   5.400   4.231   6.050  0.1242  0.3201 -0.9182
   37MOL    H9026802   5.219   4.073   4.775 -1.4456 -2.0861 -1.6399
   37MOL    H9126803   5.054   4.030   4.798 -0.5630  0.0400  0.2549
   37MOL    H9226804   5.205   3.981   4.970 -0.0071  0.5494 -0.5239
   37MOL    H9326805   5.233   4.146   5.007 -0.8387  0.5089  1.0151
   37MOL    H9426806   4.977   3.983   5.045 -0.7212 -0.0404  1.8402
   37MOL    H9526807   4.977   4.165   5.060 -1.7764 -1.3850 -0.7787
   37MOL    H9626808   5.115   3.946   5.217  5.6995  1.4037  0.9636
   37MOL    H9726809   5.166   4.113   5.243  0.6647 -1.1293  1.0119
   37MOL    H9826810   4.876   4.009   5.276  0.5954  1.1452 -0.7855
   37MOL    H9926811   4.914   4.170   5.313 -1.9317 -0.2810  3.2130
   37MOL   H10026812   5.040   3.924   5.456  0.5188  1.3137 -1.2317
   37MOL   H10126813   4.899   4.011   5.518 -0.3909  0.1920 -0.0573
   37MOL   H10226814   5.033   4.211   5.518 -2.3732 -1.0996 -0.3104
   37MOL   H10326815   5.181   4.131   5.463 -1.8447  1.6326 -1.7919
   37MOL   H10426816   5.214   4.010   5.638  0.7979  1.9024 -2.7003
   37MOL   H10526817   5.057   4.023   5.715 -0.8112 -0.2931 -1.3251
   37MOL   H10626818   5.095   4.242   5.778  1.0187 -0.1072  1.3389
   37MOL   H10726819   5.246   4.261   5.681 -0.8196 -1.2602 -1.2688
   37MOL   H10826820   5.358   4.108   5.821  0.8558 -1.0252  1.9635
   37MOL   H10926821   5.213   4.087   5.926  1.7671  0.6782  1.6234
   37MOL   H11026822   5.224   4.328   5.973 -0.7561 -1.8110  0.2324
   37MOL   H11126823   5.371   4.333   5.871  2.0247  1.7366  1.9236
   37MOL   H11226824   5.440   4.139   6.062 -1.0404 -0.0010  0.6125
   37MOL   C11326825   5.447   4.314   6.140  0.3297 -0.1416 -0.2818
   37MOL   O11426826   5.411   4.435   6.133  0.2336  0.2264 -0.0966
   37MOL   C11526827   5.517   4.248   6.259 -0.1456 -0.0076 -0.7123
   37MOL   C11626828   5.560   4.344   6.369 -0.0431 -0.5323  1.1252
   37MOL   C11726829   5.681   4.426   6.333 -0.4641 -0.2698 -0.1305
   37MOL   C11826830   5.724   4.545   6.423  0.4941  0.3642  0.3310
   37MOL   C11926831   5.850   4.613   6.377 -0.6210  0.4208  0.6003
   37MOL   C12026832   5.900   4.693   6.498 -0.5387 -0.1764 -0.1350
   37MOL   C12126833   6.024   4.781   6.467  0.0225  0.6951 -0.5358
   37MOL   C12226834   6.148   4.692   6.432  0.5371 -0.4323 -0.0196
   37MOL   C12326835   6.270   4.778   6.420 -0.0819  0.0380 -0.4726
   37MOL   C12426836   6.399   4.694   6.407  0.2388 -0.0893 -0.0344
   37MOL   C12526837   6.518   4.787   6.372  0.1189  0.9045 -1.1327
   37MOL   N12626838   6.641   4.703   6.379  0.1477  0.0469  0.1089
   37MOL   H12726839   5.593   4.177   6.228 -1.5646 -1.8824  0.0723
   37MOL   H12826840   5.441   4.183   6.301  0.9843 -1.1828 -0.4498
   37MOL   H12926841   5.477   4.413   6.384  0.8896  1.1176 -1.0475
   37MOL   H13026842   5.566   4.283   6.459  1.6534 -0.7794  0.8654
   37MOL   H13126843   5.666   4.460   6.230  1.1497 -2.0546 -0.9650
   37MOL   H13226844   5.764   4.356   6.325  0.8951  1.1751  0.9446
   37MOL   H13326845   5.645   4.617   6.440 -0.3788 -0.5749  0.2973
   37MOL   H13426846   5.747   4.507   6.523 -0.1121  2.1527  1.1710
   37MOL   H13526847   5.828   4.684   6.298  0.9069 -0.0496 -0.2693
   37MOL   H13626848   5.931   4.543   6.355 -1.2935 -0.0947 -0.2721
   37MOL   H13726849   5.922   4.641   6.591  0.2392  0.5340  0.0753
   37MOL   H13826850   5.818   4.764   6.511  0.7263  1.4313 -0.7563
   37MOL   H13926851   6.052   4.840   6.554  0.6888  0.0786 -0.3228
   37MOL   H14026852   6.002   4.837   6.377  0.7264  1.3905 -0.2773
   37MOL   H14126853   6.123   4.645   6.338  1.5965 -0.4032 -0.3232
   37MOL   H14226854   6.158   4.612   6.506  0.3797 -1.2754 -0.9045
   37MOL   H14326855   6.281   4.855   6.496 -1.5479  0.9368 -1.1525
   37MOL   H14426856   6.262   4.838   6.329  1.5452  0.7438 -0.1697
   37MOL   H14526857   6.374   4.616   6.335 -2.6633 -0.4995  1.3638
   37MOL   H14626858   6.417   4.633   6.495  1.5144 -0.8648 -0.8262
   37MOL   H14726859   6.526   4.854   6.459 -1.1275 -0.5719  0.1481
   37MOL   H14826860   6.502   4.842   6.279 -0.7209 -0.5407 -1.8635
   37MOL   H14926861   6.654   4.648   6.463  1.9932  0.7093  0.2780
   37MOL   C15026862   6.743   4.704   6.292  0.4074 -0.0830 -0.6484
   37MOL   O15126863   6.738   4.749   6.173 -0.0537 -0.5166  0.0856
   37MOL   C15226864   6.871   4.637   6.339  0.1490  0.6521 -0.9034
   37MOL   C15326865   6.938   4.546   6.242 -0.0901 -0.3327 -0.1747
   37MOL   C15426866   7.064   4.473   6.307  0.4689 -0.5289 -0.0836
   37MOL   C15526867   7.124   4.358   6.225  0.0910 -0.1798  0.1231
   37MOL   C15626868   7.263   4.312   6.276 -0.6184 -0.2251 -0.6052
   37MOL   C15726869   7.260   4.234   6.405 -0.1528  0.4474  0.0981
   37MOL   C15826870   7.411   4.212   6.446 -0.5176  0.4896  0.5336
   37MOL   C15926871   7.423   4.117   6.570 -0.1537 -0.3746  0.0891
   37MOL   C16026872   7.566   4.071   6.596  0.4808 -0.1207  0.2989
   37MOL   C16126873   7.575   3.958   6.703  0.9109  1.0703 -0.3982
   37MOL   C16226874   0.035   3.929   6.721  0.0093  0.5842 -0.3565
   37MOL   N16326875   0.092   3.863   6.606  0.1400  0.7203  0.4251
   37MOL   H16426876   6.849   4.574   6.426 -2.3246  0.7281 -1.4262
   37MOL   H16526877   6.938   4.709   6.386 -2.2900  1.8181  0.9235
   37MOL   H16626878   6.877   4.467   6.198  2.0620 -2.1264 -0.0034
   37MOL   H16726879   6.977   4.605   6.159  0.2060 -0.7610 -0.3412
   37MOL   H16826880   7.035   4.436   6.405 -0.2553 -0.5216 -0.2870
   37MOL   H16926881   7.142   4.547   6.325 -0.6455  0.4842  0.6551
   37MOL   H17026882   7.047   4.281   6.235 -0.3878  0.5231  2.1790
   37MOL   H17126883   7.130   4.384   6.119  3.0659 -0.6220  0.1537
   37MOL   H17226884   7.326   4.396   6.307 -0.5736 -0.4360 -0.1118
   37MOL   H17326885   7.309   4.256   6.196 -0.1660  0.3997 -0.7874
   37MOL   H17426886   7.212   4.137   6.395 -1.6085  1.4795 -4.0773
   37MOL   H17526887   7.212   4.291   6.485 -0.0011  2.4502 -1.2033
   37MOL   H17626888   7.457   4.310   6.462 -0.7460  1.1164 -2.3016
   37MOL   H17726889   7.473   4.167   6.368 -2.6792 -1.8185  0.1046
   37MOL   H17826890   7.362   4.031   6.541 -1.0510 -0.0129  0.8857
   37MOL   H17926891   7.378   4.158   6.660  0.7357  1.4229 -0.2535
   37MOL   H18026892   7.635   4.154   6.610 -0.6074  0.9218 -0.4274
   37MOL   H18126893   7.611   4.029   6.507 -1.2440 -1.4945  0.0387
   37MOL   H18226894   7.522   3.872   6.663  0.8706  1.3616 -0.9888
   37MOL   H18326895   7.529   3.988   6.797 -1.2682 -2.6111 -0.2261
   37MOL   H18426896   0.045   3.868   6.811  1.1976  0.0361 -0.8497
   37MOL   H18526897   0.098   4.018   6.732  1.5032 -0.4491 -0.4152
   37MOL   H18626898   0.040   3.839   6.522  0.7128  1.8910 -0.2842
   37MOL   C18726899   0.218   3.832   6.589  0.1611 -0.2403 -0.2278
   37MOL   O18826900   0.289   3.862   6.688  0.1700 -0.3917 -0.3456
   37MOL   C18926901   0.274   3.768   6.466 -0.4362  0.1100  0.6223
   37MOL   C19026902   0.257   3.616   6.464 -0.2112  0.0349  0.1486
   37MOL   C19126903   0.304   3.557   6.330  0.1340  0.2483  0.1405
   37MOL   C19226904   0.452   3.527   6.318 -0.6139 -0.0218  0.6226
   37MOL   C19326905   0.491   3.464   6.179 -0.4529  0.0274  0.0759
   37MOL   C19426906   0.633   3.436   6.144  0.1773  0.3693  0.5079
   37MOL   C19526907   0.726   3.552   6.171 -0.1304  0.4510 -0.6069
   37MOL   C19626908   0.878   3.528   6.145  0.5382 -0.0017 -0.4601
   37MOL   C19726909   0.976   3.634   6.204  0.6961  0.3027  0.3285
   37MOL   C19826910   1.123   3.600   6.180  0.9294 -0.2111  1.1273
   37MOL   C19926911   1.228   3.698   6.225  0.3677  0.1268 -0.1903
   37MOL   N20026912   1.362   3.664   6.181  0.1299  0.2373 -0.0739
   37MOL   H20126913   0.380   3.791   6.455 -0.1143 -0.9228  1.5083
   37MOL   H20226914   0.237   3.810   6.372 -0.1121 -2.6230 -0.7827
   37MOL   H20326915   0.299   3.572   6.555 -0.3655  0.1146  0.2586
   37MOL   H20426916   0.152   3.588   6.469 -0.0224 -0.5085  1.4240
   37MOL   H20526917   0.283   3.621   6.245 -1.7472  0.4622  0.7576
   37MOL   H20626918   0.239   3.472   6.311  1.9488 -1.4365  1.2108
   37MOL   H20726919   0.510   3.616   6.342  0.2867 -0.5256  0.3212
   37MOL   H20826920   0.484   3.450   6.387 -0.2686  0.2715  0.7940
   37MOL   H20926921   0.467   3.537   6.102  1.0189  0.0017 -0.4210
   37MOL   H21026922   0.424   3.379   6.169 -0.1913 -0.1435 -0.2520
   37MOL   H21126923   0.631   3.408   6.039  3.2272 -1.3331  0.8580
   37MOL   H21226924   0.675   3.352   6.199 -0.1668  1.0961  1.9010
   37MOL   H21326925   0.720   3.581   6.276 -0.4706  0.1635 -0.5464
   37MOL   H21426926   0.703   3.644   6.118  1.7622  1.6168  0.5036
   37MOL   H21526927   0.888   3.498   6.040  0.4373  1.4896 -0.8966
   37MOL   H21626928   0.902   3.437   6.200 -0.2681 -0.0129 -0.1339
   37MOL   H21726929   0.958   3.639   6.311  1.0654 -0.8981  0.4532
   37MOL   H21826930   0.953   3.729   6.154  1.0044  0.5596  0.6722
   37MOL   H21926931   1.131   3.580   6.073 -1.1635 -0.1540  0.9278
   37MOL   H22026932   1.135   3.502   6.227 -3.2896 -1.1643  0.4716
   37MOL   H22126933   1.227   3.732   6.329 -1.3424  1.0898 -0.4959
   37MOL   H22226934   1.208   3.797   6.182 -1.9212  0.3893  1.3766
   37MOL   H22326935   1.410   3.717   6.110  0.7803 -0.2253  0.0110
   37MOL   C22426936   1.444   3.582   6.247 -0.1434  0.1840  0.2305
   37MOL   O22526937   1.420   3.540   6.362 -0.3483  0.1450  0.2267
   37MOL   C22626938   1.576   3.552   6.171  0.2460 -0.0767  0.6453
   37MOL   C22726939   1.572   3.420   6.095  0.3489 -0.9644 -0.2696
   37MOL   C22826940   1.452   3.429   5.993 -0.0541  0.2593  0.5652
   37MOL   C22926941   1.450   3.310   5.898 -1.0176 -0.0927  0.6098
   37MOL   C23026942   1.469   3.172   5.974  0.5001  0.4994  0.2468
   37MOL   C23126943   1.453   3.051   5.879 -0.6601 -0.1894  0.3244
   37MOL   C23226944   1.455   2.915   5.958 -0.4529  1.3805  0.2352
   37MOL   C23326945   1.402   2.792   5.890 -0.3216  0.3780 -0.0493
   37MOL   C23426946   1.487   2.752   5.767 -0.0522  0.1144 -0.0618
   37MOL   C23526947   1.448   2.624   5.696 -0.3483  0.4125  0.0498
   37MOL   C23626948   1.518   2.607   5.558 -0.1184 -0.3224 -0.3770
   37MOL   N23726949   1.488   2.481   5.495  0.4868 -0.7506  0.3840
   37MOL   H23826950   1.651   3.537   6.250  1.3087 -0.6028 -0.4460
   37MOL   H23926951   1.599   3.633   6.101 -0.6214  0.2994  0.7862
   37MOL   H24026952   1.667   3.394   6.048  0.6185 -1.7436  0.7000
   37MOL   H24126953   1.548   3.344   6.169 -2.8985 -0.7043 -0.9625
   37MOL   H24226954   1.467   3.518   5.933  0.6076 -0.4862 -0.3886
   37MOL   H24326955   1.352   3.433   6.036 -0.2432  4.3238 -0.0613
   37MOL   H24426956   1.347   3.300   5.865 -0.6396 -4.1348  0.3469
   37MOL   H24526957   1.524   3.317   5.818 -0.9568 -1.8949  0.4744
   37MOL   H24626958   1.386   3.166   6.045  0.1838 -1.9142 -0.2640
   37MOL   H24726959   1.561   3.163   6.031 -0.6680  0.3419  2.1620
   37MOL   H24826960   1.534   3.057   5.806 -0.9429 -0.1869  0.0111
   37MOL   H24926961   1.362   3.058   5.821 -1.5279  1.4654  1.8341
   37MOL   H25026962   1.405   2.928   6.054 -1.5670  1.4441 -0.3401
   37MOL   H25126963   1.556   2.885   5.986 -1.1954 -2.6851 -1.0204
   37MOL   H25226964   1.297   2.813   5.873 -0.6351  0.9812  2.4701
   37MOL   H25326965   1.400   2.709   5.961  0.9107  1.8055  1.7154
   37MOL   H25426966   1.594   2.754   5.787 -0.0951  0.2577  0.1608
   37MOL   H25526967   1.455   2.831   5.699 -0.1925  1.4987  1.5791
   37MOL   H25626968   1.340   2.624   5.683 -0.3498 -3.3375 -0.4896
   37MOL   H25726969   1.462   2.534   5.756  1.8230  0.3173 -0.5650
   37MOL   H25826970   1.625   2.609   5.577 -0.5463 -0.2702  2.1263
   37MOL   H25926971   1.496   2.683   5.484  0.6046 -0.7375 -1.0293
   37MOL   H26026972   1.548   2.403   5.514 -2.9678 -3.6007  0.1176
   37MOL   C26126973   1.369   2.451   5.452  0.1079 -0.2933 -0.0382
   37MOL   O26226974   1.278   2.532   5.438  0.6908  0.3263 -0.1795
   37MOL   C26326975   1.342   2.305   5.412  0.9141 -0.4569 -0.5287
   37MOL   C26426976   1.363   2.276   5.264  0.4270 -0.5066  0.4758
   37MOL   C26526977   1.247   2.205   5.196  0.6489  0.3720 -0.4822
   37MOL   C26626978   1.280   2.139   5.060 -0.2708  0.6368 -0.3535
   37MOL   C26726979   1.152   2.074   5.000  0.3991  0.1177  0.6449
   37MOL   C26826980   1.200   1.959   4.909  0.7661 -0.0002  0.2873
   37MOL   C26926981   1.088   1.907   4.814 -0.1212  0.1230  0.2201
   37MOL   C27026982   1.143   1.795   4.736 -0.9936 -0.6228  0.0894
   37MOL   C27126983   1.052   1.733   4.627  0.3106 -0.1981  0.7493
   37MOL   C27226984   1.065   1.825   4.498 -0.0484 -0.5868  0.4218
   37MOL   C27326985   0.967   1.793   4.386 -0.0608 -0.2600 -0.1527
   37MOL   N27426986   0.835   1.834   4.428  0.5539  0.1687  0.2777
   37MOL   H27526987   1.243   2.266   5.435  0.3981  0.9150 -0.3921
   37MOL   H27626988   1.402   2.230   5.464  0.7548  0.3022  0.7806
   37MOL   H27726989   1.369   2.365   5.202 -3.9019  0.2897  1.1062
   37MOL   H27826990   1.450   2.210   5.256  0.6444 -0.1062 -0.5518
   37MOL   H27926991   1.159   2.265   5.173 -2.5814 -2.7606  3.0337
   37MOL   H28026992   1.211   2.123   5.259  0.2803  0.7321 -0.2237
   37MOL   H28126993   1.342   2.208   5.002  1.2898  0.6221  1.2611
   37MOL   H28226994   1.356   2.062   5.074 -0.0835  0.8376 -0.2616
   37MOL   H28326995   1.097   2.143   4.937 -0.7014 -0.3288  1.1069
   37MOL   H28426996   1.088   2.045   5.083  2.5792 -1.0688  1.9563
   37MOL   H28526997   1.231   1.874   4.970  1.9362  0.6830  0.6590
   37MOL   H28626998   1.287   1.981   4.848 -0.3494  2.5890 -0.4571
   37MOL   H28726999   1.050   1.982   4.745 -1.5019 -0.9660 -0.2334
   37MOL   H28827000   1.009   1.868   4.878 -1.3224 -0.9020 -1.8300
   37MOL   H28927001   1.159   1.714   4.807 -1.9366 -0.9029 -0.0117
   37MOL   H29027002   1.238   1.806   4.684 -2.1033  1.1246 -1.6356
   37MOL   H29127003   0.947   1.724   4.657 -0.7178 -1.1700 -2.8682
   37MOL   H29227004   1.091   1.636   4.597  0.0011  0.3172 -1.4568
   37MOL   H29327005   1.167   1.808   4.465  0.1167  1.5777 -0.2600
   37MOL   H29427006   1.071   1.929   4.530 -1.2989 -0.5466  0.5635
   37MOL   H29527007   0.964   1.691   4.349 -0.3897 -0.7999  1.3336
   37MOL   H29627008   0.992   1.858   4.303 -1.1252 -0.2811 -0.4970
   37MOL   H29727009   0.775   1.762   4.465  0.1541  0.9993  1.2862
   37MOL   C29827010   0.788   1.962   4.405 -0.3248  0.2611 -0.4552
   37MOL   O29927011   0.854   2.044   4.338  0.8408 -0.0358 -0.1547
   37MOL   C30027012   0.643   1.993   4.454 -0.4320 -0.8794 -0.6823
   37MOL   C30127013   0.618   2.144   4.477  0.2193  0.5926  0.2712
   37MOL   C30227014   0.707   2.209   4.584 -0.3066 -0.0228 -0.4451
   37MOL   C30327015   0.719   2.364   4.562 -0.3374 -0.3982  0.0152
   37MOL   C30427016   0.797   2.427   4.668 -0.0753 -0.4313 -0.3988
   37MOL   C30527017   0.839   2.578   4.648  0.3275 -0.2541  0.5998
   37MOL   C30627018   0.889   2.653   4.774 -0.5502  0.5009 -0.0743
   37MOL   C30727019   1.003   2.582   4.851 -0.1494 -0.3695  0.0416
   37MOL   C30827020   1.085   2.685   4.939  0.6676 -0.7210 -0.2152
   37MOL   C30927021   1.228   2.645   4.978 -0.5027  1.1309  0.1659
   37MOL   C31027022   1.272   2.729   5.093 -0.4874 -0.6476 -0.1606
   37MOL   N31127023   1.403   2.705   5.144  0.2008  0.2397 -0.1080
   37MOL   H31227024   0.611   1.938   4.543  0.0406  0.7771  0.5431
   37MOL   H31327025   0.573   1.958   4.379 -1.4612  0.4892 -0.3786
   37MOL   H31427026   0.633   2.190   4.380 -0.1393 -1.8567 -0.9858
   37MOL   H31527027   0.517   2.158   4.516 -0.2852 -2.8490  0.3953
   37MOL   H31627028   0.808   2.170   4.569 -0.2779 -0.3986  0.7166
   37MOL   H31727029   0.682   2.195   4.689  2.0888 -1.8466 -0.0725
   37MOL   H31827030   0.764   2.381   4.464  0.8777 -0.3555  0.5744
   37MOL   H31927031   0.618   2.405   4.568 -2.0302 -4.1101 -1.1433
   37MOL   H32027032   0.888   2.370   4.687 -0.2303 -0.2898  0.7977
   37MOL   H32127033   0.738   2.420   4.759 -0.0705  1.0225 -0.2609
   37MOL   H32227034   0.742   2.625   4.631  1.4831  1.5232 -1.3077
   37MOL   H32327035   0.897   2.597   4.558  1.4713 -0.8127  1.2131
   37MOL   H32427036   0.803   2.687   4.833 -0.0012 -0.4503  1.3013
   37MOL   H32527037   0.936   2.744   4.737  1.6241 -0.3366  0.6057
   37MOL   H32627038   1.073   2.541   4.778  0.0823 -0.6274  0.4151
   37MOL   H32727039   0.973   2.507   4.924  1.5405 -0.7369  0.3740
   37MOL   H32827040   1.018   2.715   5.020 -0.1193 -0.6736 -0.8859
   37MOL   H32927041   1.087   2.776   4.880 -0.8938  1.1926  2.5455
   37MOL   H33027042   1.291   2.669   4.892  0.1401  0.8258  0.5492
   37MOL   H33127043   1.228   2.540   5.006 -0.8499  0.8424 -0.8649
   37MOL   H33227044   1.195   2.715   5.169  0.7063 -0.9774  1.0209
   37MOL   H33327045   1.259   2.830   5.055  1.3193 -0.5621 -0.6130
   37MOL   H33427046   1.412   2.646   5.226  0.5611 -0.7087 -0.8348
   37MOL   C33527047   1.509   2.774   5.103 -0.2298  0.6628  0.8112
   37MOL   O33627048   1.520   2.832   4.995  0.3157 -0.2142  0.0555
   37MOL   C33727049   1.628   2.780   5.198 -0.0284  0.3202  0.4176
   37MOL   C33827050   1.613   2.901   5.288  0.3868  0.4459 -0.1987
   37MOL   C33927051   1.699   2.902   5.423  0.1669  0.2401 -0.4510
   37MOL   C34027052   1.667   3.022   5.516  0.0007 -0.1870  0.4524
   37MOL   C34127053   1.706   3.159   5.453  0.5053 -0.4785 -0.6161
   37MOL   C34227054   1.666   3.264   5.550 -0.0109 -0.1797  0.0504
   37MOL   C34327055   1.654   3.409   5.489  0.1034  0.0632  0.0201
   37MOL   C34427056   1.607   3.519   5.585 -0.5194  0.2903  0.5356
   37MOL   C34527057   1.611   3.661   5.530 -0.1707 -0.1383 -0.1430
   37MOL   C34627058   1.586   3.780   5.623  0.4610 -0.5354  0.2654
   37MOL   C34727059   1.453   3.766   5.698  0.0805 -0.3874  0.5222
   37MOL   N34827060   1.422   3.894   5.776  0.2692  0.5253  0.6141
   37MOL   H34927061   1.725   2.779   5.149 -0.9556  0.6435 -1.4821
   37MOL   H35027062   1.630   2.687   5.255  1.8737  0.0857 -0.0063
   37MOL   H35127063   1.628   2.991   5.229  0.3561  0.5545 -0.0437
   37MOL   H35227064   1.509   2.905   5.321  0.5685  0.0349  0.4442
   37MOL   H35327065   1.803   2.914   5.395  0.8659 -0.7539  1.6080
   37MOL   H35427066   1.692   2.815   5.488  1.1277 -0.2694 -1.0224
   37MOL   H35527067   1.562   3.010   5.540 -0.1814  0.0493 -0.2075
   37MOL   H35627068   1.725   3.017   5.608  0.6047  1.6261  0.2036
   37MOL   H35727069   1.653   3.178   5.359 -0.8285 -0.0623  0.2032
   37MOL   H35827070   1.812   3.162   5.431  0.2854  0.2919 -1.6291
   37MOL   H35927071   1.740   3.264   5.630  0.5919  0.7645 -0.4984
   37MOL   H36027072   1.570   3.241   5.596 -0.6236  0.8030 -0.7194
   37MOL   H36127073   1.590   3.405   5.401  1.2671  3.4498 -1.0495
   37MOL   H36227074   1.757   3.437   5.466 -0.6006  1.1718 -1.9654
   37MOL   H36327075   1.653   3.516   5.684 -1.4720 -0.7046  0.9662
   37MOL   H36427076   1.500   3.510   5.606 -0.3954 -1.2374  0.5859
   37MOL   H36527077   1.546   3.674   5.444  0.6550 -1.5719 -1.0032
   37MOL   H36627078   1.702   3.682   5.475 -1.4902  2.0232 -1.5315
   37MOL   H36727079   1.594   3.876   5.572 -0.0750 -1.0629 -0.8345
   37MOL   H36827080   1.663   3.779   5.700 -0.7355  0.9068  1.5177
   37MOL   H36927081   1.458   3.683   5.769  0.9352 -0.6674  0.1439
   37MOL   H37027082   1.367   3.756   5.632  1.3497  0.9320 -1.3947
   37MOL   H37127083   1.380   3.964   5.717  1.8165  0.5865 -0.4512
   37MOL   C37227084   1.418   3.916   5.905  0.1343  0.2884  0.1895
   37MOL   O37327085   1.439   3.823   5.984  0.4977 -0.3681 -0.1175
   37MOL   C37427086   1.384   4.059   5.943 -0.3658 -0.2008 -0.9185
   37MOL   C37527087   1.260   4.065   6.030  0.1972  0.1661  0.4432
   37MOL   C37627088   1.215   4.217   6.051  0.5029  0.0134  0.4206
   37MOL   C37727089   1.104   4.235   6.165  0.0872  0.1622  0.2607
   37MOL   C37827090   1.025   4.367   6.162 -0.0717  0.0767  0.3506
   37MOL   C37927091   0.926   4.376   6.284 -0.0554  0.4779 -0.0042
   37MOL   C38027092   0.837   4.502   6.277 -0.6948  0.1525 -0.1168
   37MOL   C38127093   0.703   4.478   6.353 -0.1275  0.2299  0.6584
   37MOL   C38227094   0.607   4.594   6.361 -0.7366 -0.4077  0.6966
   37MOL   C38327095   0.501   4.563   6.468 -0.6405 -0.0625 -0.0319
   37MOL   C38427096   0.384   4.653   6.489  0.4993 -0.4822 -0.6939
   37MOL   N38527097   0.306   4.600   6.603  0.2161 -0.1114  0.0425
   37MOL   H38627098   1.363   4.118   5.854 -0.4480 -1.2578 -1.6075
   37MOL   H38727099   1.470   4.106   5.991  1.4949 -1.4909 -2.8880
   37MOL   H38827100   1.175   4.018   5.981 -0.5302  0.7586  1.1214
   37MOL   H38927101   1.265   4.022   6.130  3.2282 -0.2136  0.1647
   37MOL   H39027102   1.177   4.258   5.957  1.3116 -1.0673 -0.3930
   37MOL   H39127103   1.300   4.280   6.079 -0.5457  1.3343  0.6806
   37MOL   H39227104   1.031   4.155   6.151  0.9970 -0.8010  0.9193
   37MOL   H39327105   1.154   4.222   6.261  1.2878  1.3645 -0.1821
   37MOL   H39427106   0.963   4.372   6.072  0.5967  1.7367 -0.0489
   37MOL   H39527107   1.084   4.459   6.169 -1.7839  1.1367  1.4227
   37MOL   H39627108   0.988   4.379   6.374  1.3382  0.6235 -0.9567
   37MOL   H39727109   0.862   4.288   6.285  0.1820  0.3044 -0.0579
   37MOL   H39827110   0.817   4.516   6.171  0.6088  0.1032 -0.3731
   37MOL   H39927111   0.893   4.587   6.317 -0.3202 -1.1375  2.2236
   37MOL   H40027112   0.739   4.445   6.451  1.0137 -1.4183 -0.3019
   37MOL   H40127113   0.663   4.391   6.301  0.9818 -0.8108  1.5343
   37MOL   H40227114   0.554   4.611   6.267 -1.2277 -1.4677  0.7750
   37MOL   H40327115   0.660   4.685   6.390 -1.8157 -0.2365  2.2334
   37MOL   H40427116   0.551   4.553   6.565 -1.7509 -0.9180  0.4622
   37MOL   H40527117   0.457   4.464   6.455 -0.4334 -0.3599  1.4222
   37MOL   H40627118   0.313   4.647   6.407  0.8564 -0.4136 -1.0074
   37MOL   H40727119   0.404   4.760   6.495  0.1131 -0.4348 -0.1124
   37MOL   H40827120   0.349   4.531   6.663  1.0182  1.1036  0.8820
   37MOL   C40927121   0.186   4.641   6.647 -0.4127 -0.2619  0.1543
   37MOL   O41027122   0.109   4.721   6.587  0.2641  0.3786  0.3780
   37MOL   C41127123   0.145   4.586   6.786  0.4258 -0.7625 -0.0434
   37MOL   C41227124   0.057   4.456   6.785  0.3316 -0.2986  0.3223
   37MOL   C41327125   7.669   4.432   6.909 -0.2443  0.1091 -0.0611
   37MOL   C41427126   7.596   4.299   6.892  0.2674  0.0545 -0.2340
   37MOL   C41527127   7.493   4.259   7.004  0.1217 -0.5816 -0.5009
   37MOL   C41627128   7.387   4.363   7.035  0.2236 -0.4369  0.3536
   37MOL   C41727129   7.303   4.410   6.918 -0.0483 -0.3915  0.6234
   37MOL   C41827130   7.191   4.309   6.879 -0.3517 -0.6065 -0.8048
   37MOL   C41927131   7.094   4.357   6.774  0.3818 -0.2539 -0.6412
   37MOL   C42027132   7.025   4.489   6.827  0.5518 -0.4381  0.2144
   37MOL   C42127133   6.914   4.543   6.741  0.2513 -0.3291 -0.2979
   37MOL   N42227134   6.861   4.665   6.794  0.1394 -0.6455  0.0839
   37MOL   H42327135   0.090   4.670   6.830 -1.0973 -1.0063 -1.4190
   37MOL   H42427136   0.234   4.563   6.844  1.0332  0.0019 -0.6693
   37MOL   H42527137   7.680   4.466   6.703  0.5852  1.3007  0.2722
   37MOL   H42627138   0.119   4.369   6.765 -0.7639 -1.0557  0.2124
   37MOL   H42727139   7.584   4.499   6.926 -0.0838  0.3943 -0.3855
   37MOL   H42827140   0.031   4.415   7.001 -0.3346  1.4489  0.2539
   37MOL   H42927141   7.545   4.305   6.796 -3.0173 -1.6287  1.3048
   37MOL   H43027142   7.671   4.220   6.890  1.8694  1.5488  0.2056
   37MOL   H43127143   7.549   4.244   7.096  0.6586 -1.5972 -0.9828
   37MOL   H43227144   7.444   4.165   6.979  1.3486 -1.3936  0.0931
   37MOL   H43327145   7.446   4.441   7.085 -1.6105 -1.1228  3.7789
   37MOL   H43427146   7.321   4.326   7.114  0.1044 -1.4389 -0.2137
   37MOL   H43527147   7.361   4.427   6.827 -1.0409 -0.4725 -0.0418
   37MOL   H43627148   7.276   4.509   6.955  0.7060 -0.5620  1.6354
   37MOL   H43727149   7.147   4.280   6.974 -1.2874  0.9272 -0.7585
   37MOL   H43827150   7.236   4.214   6.852  0.3389 -0.8138  0.9867
   37MOL   H43927151   7.012   4.291   6.747 -2.2650  2.4972  0.3071
   37MOL   H44027152   7.152   4.367   6.683  0.0791 -0.1941 -0.8306
   37MOL   H44127153   7.092   4.574   6.839 -2.5637  2.0637  0.5343
   37MOL   H44227154   6.987   4.477   6.928 -1.3824  2.7648 -0.0476
   37MOL   H44327155   6.834   4.471   6.728 -0.3787  0.1885  0.6354
   37MOL   H44427156   6.954   4.566   6.642 -0.7898  1.0466 -0.4169
   37MOL   H44527157   6.915   4.712   6.866 -0.6050 -0.1028  0.2870
   37MOL   C44627158   6.738   4.702   6.760 -0.4074 -0.4929  0.5634
   37MOL   O44727159   6.680   4.652   6.664  0.2027 -0.6196  0.4076
   37MOL   C44827160   6.674   4.814   6.842  0.2247 -0.2244 -0.1230
   37MOL   C44927161   6.582   4.915   6.765  0.2412  0.1278  0.3230
   37MOL   C45027162   6.666   5.016   6.679  0.3431  0.5372 -0.2598
   37MOL   C45127163   6.763   5.099   6.759  0.8658 -0.0624  0.4442
   37MOL   C45227164   6.815   5.213   6.670 -0.8229 -0.9887  0.5164
   37MOL   C45327165   6.975   5.213   6.667 -0.1764  0.7696  0.2181
   37MOL   C45427166   7.029   5.099   6.583  0.2736 -0.2241 -0.5457
   37MOL   C45527167   7.185   5.111   6.568 -0.5760  0.2192 -0.2827
   37MOL   C45627168   7.214   5.230   6.484  0.3535  0.3727  0.3667
   37MOL   C45727169   7.363   5.246   6.443 -0.2857  0.7533 -0.1365
   37MOL   C45827170   7.388   5.357   6.338 -0.4766 -0.1213 -0.1397
   37MOL   N45927171   7.521   5.355   6.286  0.6024  0.9324 -0.7984
   37MOL   H46027172   6.746   4.863   6.908 -0.3348 -0.1091  0.4015
   37MOL   H46127173   6.609   4.763   6.913  0.6467  0.4419  0.7520
   37MOL   H46227174   6.516   4.858   6.699 -0.4576 -1.5686  2.4293
   37MOL   H46327175   6.532   4.983   6.833 -0.4608  0.8428 -0.8843
   37MOL   H46427176   6.592   5.085   6.638 -1.1371 -0.5589  0.4872
   37MOL   H46527177   6.716   4.960   6.601  0.3633 -1.0021  0.8234
   37MOL   H46627178   6.714   5.148   6.843  1.7163  1.4824  0.0754
   37MOL   H46727179   6.839   5.038   6.808  0.7824 -0.5848 -0.0707
   37MOL   H46827180   6.769   5.299   6.719 -0.7637 -1.3602  1.2376
   37MOL   H46927181   6.785   5.201   6.566 -0.7302  0.5362  0.2930
   37MOL   H47027182   7.025   5.193   6.762 -2.3072 -1.2594  0.9531
   37MOL   H47127183   7.011   5.311   6.638 -0.5904  0.7202 -0.4568
   37MOL   H47227184   6.987   5.081   6.484 -1.1597  0.2697 -0.0484
   37MOL   H47327185   7.004   5.006   6.633 -1.4279  0.7024  0.3831
   37MOL   H47427186   7.228   5.028   6.512 -1.8276  0.3945 -1.5402
   37MOL   H47527187   7.237   5.113   6.664  1.8712  1.5307 -1.6077
   37MOL   H47627188   7.183   5.325   6.528  1.4325  0.0802  1.7887
   37MOL   H47727189   7.159   5.197   6.396  2.3922  0.2476 -0.9225
   37MOL   H47827190   7.399   5.154   6.399 -0.5172  0.0986  1.0198
   37MOL   H47927191   7.427   5.257   6.531  3.7619 -1.9126 -2.5906
   37MOL   H48027192   7.368   5.457   6.376  0.5157  0.6574 -1.6053
   37MOL   H48127193   7.321   5.341   6.254 -1.9005  0.1252  0.9429
   37MOL   H48227194   7.551   5.260   6.271  1.1876  1.0087 -0.1143
   37MOL   C48327195   7.592   5.452   6.226 -0.2889 -0.5077 -0.2462
   37MOL   O48427196   7.550   5.567   6.203 -0.2325 -0.5109 -0.1937
   37MOL   C48527197   0.040   5.409   6.192 -0.2762  0.2755  0.5423
   37MOL   C48627198   0.131   5.529   6.184 -0.0945  0.4497  0.1209
   37MOL   C48727199   0.282   5.498   6.145  0.4890 -0.8043  0.0998
   37MOL   C48827200   0.309   5.441   6.005  0.2788 -0.7158 -0.3595
   37MOL   C48927201   0.259   5.533   5.896 -0.4500  0.6021 -0.3959
   37MOL   C49027202   0.279   5.493   5.751 -0.1293  0.0843 -0.7792
   37MOL   C49127203   0.204   5.367   5.700  0.1974 -0.2426  0.0099
   37MOL   C49227204   0.227   5.343   5.549  0.3849 -0.8753  0.2947
   37MOL   C49327205   0.128   5.240   5.497 -0.2807 -0.1903 -1.0581
   37MOL   C49427206   0.146   5.197   5.351  0.0099 -0.4034 -0.2955
   37MOL   C49527207   0.039   5.092   5.299  0.2855 -0.1310  0.5675
   37MOL   N49627208   7.598   5.136   5.297  0.2768  0.2320 -0.6190
   37MOL   H49727209   0.030   5.355   6.098  2.4274  2.8398 -1.2855
   37MOL   H49827210   0.076   5.344   6.271 -1.5346  0.1032  1.0012
   37MOL   H49927211   0.089   5.590   6.104  0.5417  1.0943  0.2675
   37MOL   H50027212   0.122   5.589   6.275  0.9964 -0.5702  0.9218
   37MOL   H50127213   0.326   5.429   6.217  1.9338 -0.6617 -0.6200
   37MOL   H50227214   0.334   5.594   6.145 -0.2501 -0.4066  0.1574
   37MOL   H50327215   0.414   5.423   5.981  0.5329  1.8194 -1.2597
   37MOL   H50427216   0.255   5.347   5.999  1.8612 -1.7416  0.9965
   37MOL   H50527217   0.294   5.634   5.918  0.0670  0.4081 -0.3242
   37MOL   H50627218   0.152   5.532   5.913 -0.7524 -1.4704 -2.1638
   37MOL   H50727219   0.386   5.484   5.730  0.3418  1.5962  0.8151
   37MOL   H50827220   0.253   5.578   5.688  0.7117  0.1755 -1.0176
   37MOL   H50927221   0.102   5.368   5.738  0.2013  0.0566  0.0116
   37MOL   H51027222   0.238   5.283   5.761 -0.1651  0.2357  0.8892
   37MOL   H51127223   0.331   5.321   5.525  1.2881  0.4624  2.8437
   37MOL   H51227224   0.212   5.439   5.498 -0.7599 -1.4878 -0.5521
   37MOL   H51327225   0.031   5.287   5.484 -0.3886  0.0380  0.5304
   37MOL   H51427226   0.126   5.154   5.564  1.5371  1.7380  1.5738
   37MOL   H51527227   0.243   5.148   5.354  1.6330  2.7951  1.2546
   37MOL   H51627228   0.160   5.283   5.286 -1.2388 -2.9063 -3.9988
   37MOL   H51727229   0.040   5.003   5.361  1.0426 -0.3596  0.2333
   37MOL   H51827230   0.072   5.050   5.204  0.0734  1.8381 -0.4079
   37MOL   H51927231   7.541   5.128   5.380  0.3901  0.4283 -0.5239
   37MOL   C52027232   7.539   5.204   5.200 -0.1811 -0.0764  0.0072
   37MOL   O52127233   7.598   5.216   5.093  0.1709 -0.3004  0.2743
   37MOL   C52227234   7.404   5.269   5.218  0.3286 -0.2714 -0.4776
   37MOL   C52327235   7.407   5.420   5.254  0.3444 -0.0467  0.0296
   37MOL   C52427236   7.424   5.506   5.138  0.3891 -0.4653  0.7142
   37MOL   C52527237   7.407   5.659   5.171  0.2966 -0.3982  0.6873
   37MOL   C52627238   7.366   5.736   5.043 -0.1337 -0.5257 -0.1700
   37MOL   C52727239   7.364   5.890   5.063 -0.0954  0.3170 -0.1830
   37MOL   C52827240   7.265   5.932   5.173 -0.9791 -0.5040  0.6087
   37MOL   C52927241   7.254   6.086   5.198  0.1433  0.0654  0.3991
   37MOL   C53027242   7.383   6.132   5.284  0.4236  0.3084 -0.3543
   37MOL   C53127243   7.362   6.266   5.351 -1.1778 -0.1538  0.1844
   37MOL   C53227244   7.486   6.311   5.422 -0.6940 -0.3275 -0.0615
   37MOL   N53327245   7.525   6.221   5.532 -0.2341 -0.2587  0.7416
   37MOL   H53427246   7.366   5.207   5.299 -2.8887 -0.4140 -2.0278
   37MOL   H53527247   7.346   5.245   5.129 -1.1023 -2.8688  1.0982
   37MOL   H53627248   7.313   5.445   5.303  0.2358 -1.4370  0.5559
   37MOL   H53727249   7.493   5.434   5.321  0.6412  0.7525 -0.5137
   37MOL   H53827250   7.349   5.475   5.065  2.0128 -1.1419 -0.6996
   37MOL   H53927251   7.520   5.483   5.092 -1.6698 -2.5504 -2.8315
   37MOL   H54027252   7.330   5.679   5.246 -0.2959  0.4963 -0.1543
   37MOL   H54127253   7.502   5.699   5.208  0.6825 -1.0095  0.3606
   37MOL   H54227254   7.267   5.712   5.003 -0.1273  1.6237 -1.5091
   37MOL   H54327255   7.446   5.715   4.973  0.7430  2.2864 -0.0484
   37MOL   H54427256   7.352   5.943   4.968  4.0311  0.3306 -0.7977
   37MOL   H54527257   7.464   5.921   5.093  0.2394 -0.3399 -0.6104
   37MOL   H54627258   7.296   5.885   5.266 -1.3821  1.2137  1.6378
   37MOL   H54727259   7.169   5.890   5.140 -0.6188 -0.6880 -0.2157
   37MOL   H54827260   7.164   6.104   5.257 -2.1395 -0.9233 -2.6501
   37MOL   H54927261   7.248   6.158   5.116  4.1039 -0.7415 -0.7237
   37MOL   H55027262   7.461   6.146   5.209  0.8771  0.3574  0.1231
   37MOL   H55127263   7.413   6.062   5.363  0.5582  1.0947  0.2954
   37MOL   H55227264   7.275   6.264   5.417 -2.6504  2.4530 -1.6012
   37MOL   H55327265   7.348   6.346   5.278 -2.1475 -0.4661  0.0082
   37MOL   H55427266   7.461   6.407   5.467  2.1116  0.5027 -0.1745
   37MOL   H55527267   7.561   6.338   5.348 -0.0692 -0.2552  0.5973
   37MOL   H55627268   7.449   6.155   5.536 -0.5158 -0.2189 -2.3136
   37MOL   C55727269   7.641   6.211   5.591  0.4350 -0.0782 -0.3384
   37MOL   O55827270   0.045   6.288   5.550  0.3218  0.5999  0.2257
   37MOL   C55927271   7.658   6.099   5.698 -0.6031 -0.0216  0.0091
   37MOL   C56027272   0.044   5.973   5.663  0.1289 -0.1050 -0.0960
   37MOL   C56127273   7.664   5.863   5.582  0.0014  0.1031  0.2327
   37MOL   C56227274   7.557   5.783   5.665  0.7891  0.0965  0.1263
   37MOL   C56327275   7.492   5.679   5.574  0.1316  0.2907 -0.3908
   37MOL   C56427276   7.409   5.567   5.634  0.5196 -0.7964 -0.4881
   37MOL   C56527277   7.496   5.449   5.696 -0.5515  0.0989  0.0558
   37MOL   C56627278   7.405   5.342   5.760 -0.5286 -0.4822 -0.4322
   37MOL   C56727279   7.491   5.245   5.848  0.1629  0.2412 -0.1016
   37MOL   C56827280   7.560   5.144   5.761  0.1373  0.0260 -0.7912
   37MOL   C56927281   7.660   5.055   5.842  0.6779  0.1395  0.1029
   37MOL   N57027282   0.009   4.948   5.759  0.9839 -0.4968  0.6372
   37MOL   H57127283   7.561   6.074   5.741 -0.0999 -1.0237  0.5928
   37MOL   H57227284   0.028   6.142   5.774  0.7030 -1.2582 -0.3560
   37MOL   H57327285   0.124   6.006   5.597 -1.8477 -0.8252 -2.9565
   37MOL   H57427286   0.092   5.935   5.753 -1.4491  1.6880  1.5411
   37MOL   H57527287   0.047   5.801   5.535  1.5695  1.9240  0.3664
   37MOL   H57627288   7.623   5.903   5.489  0.2123  2.4791  1.1526
   37MOL   H57727289   7.602   5.731   5.750  2.3690  2.8687  1.0488
   37MOL   H57827290   7.472   5.839   5.702 -0.1178 -1.4276  0.3705
   37MOL   H57927291   7.579   5.633   5.528 -1.4522 -3.5984  0.3229
   37MOL   H58027292   7.427   5.721   5.497 -2.1596 -2.1686  0.1156
   37MOL   H58127293   7.346   5.530   5.553  0.5049  0.6081 -1.1454
   37MOL   H58227294   7.347   5.606   5.715  1.2272  0.1227 -0.3722
   37MOL   H58327295   7.568   5.489   5.767  0.0829  0.8110 -0.9634
   37MOL   H58427296   7.547   5.391   5.618 -3.2053 -2.1048 -0.1088
   37MOL   H58527297   7.340   5.284   5.695 -2.4732 -0.2156  1.2327
   37MOL   H58627298   7.332   5.396   5.821  1.1903  1.3768  0.0424
   37MOL   H58727299   7.428   5.188   5.917  0.3184  1.1972  0.8604
   37MOL   H58827300   7.552   5.298   5.921 -0.7136  1.0164  0.0905
   37MOL   H58927301   7.613   5.188   5.677 -1.5958  4.0601  0.1062
   37MOL   H59027302   7.485   5.076   5.719 -0.2013  0.8465 -1.5193
   37MOL   H59127303   7.607   5.014   5.928 -1.2155  2.0526 -0.0985
   37MOL   H59227304   0.048   5.118   5.877 -1.2458  3.0324 -0.4116
   37MOL   H59327305   7.677   4.934   5.663  5.2517 -0.3826 -0.6343
   37MOL   C59427306   0.094   4.860   5.804  0.2733 -0.6317 -0.4874
   37MOL   O59527307   0.132   4.854   5.925 -0.2677 -0.7008  0.4862
   37MOL   C59627308   0.145   4.758   5.702 -0.4389 -0.0311  0.1733
   37MOL   C59727309   0.298   4.759   5.694 -0.3198  0.4592  0.6597
   37MOL   C59827310   0.364   4.657   5.592  0.6124  0.2795 -0.0191
   37MOL   C59927311   0.346   4.507   5.634 -0.3866 -0.5679 -0.9973
   37MOL   C60027312   0.435   4.413   5.555 -0.5627 -0.2417 -0.2740
   37MOL   C60127313   0.452   4.274   5.614  0.0004 -0.4556 -0.0531
   37MOL   C60227314   0.320   4.183   5.600 -0.7827  0.2067  0.7971
   37MOL   C60327315   0.336   4.042   5.649  0.1592 -0.4751  0.4243
   37MOL   C60427316   0.223   3.950   5.598 -0.6500 -0.5870 -0.4314
   37MOL   C60527317   0.084   3.984   5.663 -0.4046  0.1224 -0.0784
   37MOL   C60627318   7.661   3.886   5.621  0.3914 -0.5759 -0.4996
   37MOL   N60727319   7.527   3.945   5.646  0.3556  0.7865 -0.2009
   37MOL   H60827320   0.095   4.782   5.608 -0.4165  0.0362  0.1788
   37MOL   H60927321   0.102   4.660   5.726 -0.0046 -0.7310 -1.8104
   37MOL   H61027322   0.330   4.859   5.667 -0.4400  0.5674  0.9133
   37MOL   H61127323   0.340   4.742   5.793  1.0745 -0.6678 -0.0969
   37MOL   H61227324   0.472   4.674   5.592  0.9148 -1.5116  0.6473
   37MOL   H61327325   0.323   4.667   5.492  0.3947 -0.7793 -0.0426
   37MOL   H61427326   0.377   4.503   5.739 -1.8616  1.8825 -0.4148
   37MOL   H61527327   0.240   4.481   5.633 -0.4409 -0.6722  2.3618
   37MOL   H61627328   0.535   4.454   5.558  0.0470 -1.7144 -0.0525
   37MOL   H61727329   0.399   4.396   5.453 -1.6368  0.2508  0.0114
   37MOL   H61827330   0.492   4.261   5.715  0.1946 -2.3945 -0.3627
   37MOL   H61927331   0.533   4.238   5.552 -1.6730 -0.7305 -2.1250
   37MOL   H62027332   0.282   4.182   5.498  1.0618 -0.3943  0.1076
   37MOL   H62127333   0.245   4.218   5.672 -2.2208 -0.6665 -0.2524
   37MOL   H62227334   0.339   4.033   5.757 -0.4091 -0.0268  0.4751
   37MOL   H62327335   0.429   3.994   5.617  0.5599  0.7629 -0.2933
   37MOL   H62427336   0.242   3.845   5.620 -2.0285 -1.1466 -1.7608
   37MOL   H62527337   0.213   3.954   5.489  1.1643 -1.9947 -0.6590
   37MOL   H62627338   0.059   4.077   5.613  1.6505 -0.3572 -2.0384
   37MOL   H62727339   0.090   4.005   5.770 -3.1052  1.1786 -0.0825
   37MOL   H62827340   7.653   3.798   5.684  0.3161 -1.0260 -1.1364
   37MOL   H62927341   7.670   3.844   5.521  0.3412 -2.8012  0.3952
   37MOL   H63027342   7.461   3.927   5.572  1.2932 -0.5568 -0.7334
   37MOL   C63127343   7.480   3.970   5.767  0.1952  0.4428 -0.0456
   37MOL   O63227344   7.530   3.931   5.869 -0.0934 -1.1698 -0.1788
   37MOL   C63327345   7.357   4.064   5.768  0.4732  0.4658 -0.0480
   37MOL   C63427346   7.373   4.193   5.852  0.1328 -1.2511 -0.1507
   37MOL   C63527347   7.443   4.310   5.782 -0.1702  0.6254  0.0809
   37MOL   C63627348   7.546   4.387   5.876  0.1934  0.4648 -0.1395
   37MOL   C63727349   7.656   4.295   5.936 -0.1141 -0.4388  0.1991
   37MOL   C63827350   0.105   4.355   5.923  0.8556  0.5234  0.4660
   37MOL   C63927351   0.231   4.267   5.963  0.4330 -0.2671 -0.1027
   37MOL   C64027352   0.354   4.349   5.999  0.0995  0.3103 -0.3589
   37MOL   C64127353   0.479   4.264   6.009 -0.4193  0.3873 -0.7207
   37MOL   C64227354   0.502   4.171   6.130 -0.0880 -0.4133  0.6148
   37MOL   C64327355   0.637   4.106   6.104  0.3700 -1.0032  0.1095
   37MOL   N64427356   0.708   4.042   6.218  0.1519 -0.0679 -0.6761
   37MOL   H64527357   7.275   4.006   5.810  0.4681 -0.1441 -0.8817
   37MOL   H64627358   7.339   4.091   5.664 -1.7895 -2.3141 -0.4362
   37MOL   H64727359   7.273   4.224   5.885  1.0947  0.9043  0.8356
   37MOL   H64827360   7.422   4.169   5.946  0.7268  0.0343 -0.1272
   37MOL   H64927361   7.365   4.372   5.737 -0.1757  0.4759 -0.1152
   37MOL   H65027362   7.506   4.263   5.708  2.1728 -0.0976  2.4623
   37MOL   H65127363   7.592   4.474   5.830  1.2130 -0.5772 -1.1520
   37MOL   H65227364   7.491   4.445   5.949  1.9188  1.5338  0.3514
   37MOL   H65327365   7.652   4.204   5.876 -1.9071  0.5396 -1.2368
   37MOL   H65427366   7.633   4.273   6.040 -1.8794  0.7629  0.0837
   37MOL   H65527367   0.099   4.444   5.986 -0.7468  1.0465 -0.4012
   37MOL   H65627368   0.116   4.397   5.823 -0.4601  0.4209  0.2748
   37MOL   H65727369   0.254   4.196   5.884 -0.4368 -0.5354 -0.1135
   37MOL   H65827370   0.191   4.201   6.039  2.1005 -1.2491 -0.0431
   37MOL   H65927371   0.340   4.403   6.093  1.4500 -1.6895  1.0658
   37MOL   H66027372   0.367   4.427   5.924  2.8282  1.1170  0.8698
   37MOL   H66127373   0.556   4.341   6.014 -0.2766  0.0951  2.2427
   37MOL   H66227374   0.499   4.201   5.922 -1.5401 -0.0150 -0.6966
   37MOL   H66327375   0.425   4.096   6.149 -0.2436 -0.4060  0.0139
   37MOL   H66427376   0.525   4.215   6.228  1.9003 -0.8781  0.3765
   37MOL   H66527377   0.698   4.186   6.061 -1.7288  0.7874  0.3928
   37MOL   H66627378   0.626   4.030   6.028 -0.4000  0.2517 -1.0612
   37MOL   H66727379   0.808   4.055   6.224 -0.0441  0.7455  1.1380
   37MOL   C66827380   0.656   3.948   6.298  0.4503  0.0848  0.0067
   37MOL   O66927381   0.529   3.932   6.304 -0.3164  0.2076  0.7354
   37MOL   C67027382   0.762   3.886   6.391 -0.2467 -0.2562  0.0269
   37MOL   C67127383   0.740   3.908   6.543  0.5782  0.1115 -0.5529
   37MOL   C67227384   0.738   4.056   6.597 -0.8264  1.0286  0.6152
   37MOL   C67327385   0.876   4.123   6.618  0.3914 -0.1536  0.3026
   37MOL   C67427386   0.855   4.266   6.672  0.5224 -0.3562  0.0359
   37MOL   C67527387   0.988   4.336   6.678  0.2168 -0.6408  0.2787
   37MOL   C67627388   0.985   4.480   6.720 -0.4612 -0.4797  0.6625
   37MOL   C67727389   1.115   4.563   6.687  0.1154  0.6677  0.9235
   37MOL   C67827390   1.120   4.616   6.536  0.1557  0.6129  0.2042
   37MOL   C67927391   1.224   4.724   6.520 -0.8829 -0.4007  0.3735
   37MOL   C68027392   1.238   4.802   6.382  0.2284  0.5698 -0.2998
   37MOL   N68127393   1.282   4.718   6.274 -0.1266  0.6175 -0.5319
   37MOL   H68227394   0.863   3.917   6.364  0.0594 -0.8736  0.4569
   37MOL   H68327395   0.769   3.779   6.372  0.5134 -0.2874  0.4795
   37MOL   H68427396   0.648   3.855   6.568  1.5440 -0.6690  1.4177
   37MOL   H68527397   0.818   3.852   6.595  0.6870 -1.9754 -2.8899
   37MOL   H68627398   0.678   4.059   6.689 -1.2984  0.9234  0.3124
   37MOL   H68727399   0.681   4.114   6.525  1.5910  0.9231 -1.4308
   37MOL   H68827400   0.932   4.073   6.697  2.0879  0.2877 -0.5961
   37MOL   H68927401   0.934   4.118   6.526  0.8464 -2.6569  0.6732
   37MOL   H69027402   0.798   4.268   6.764  1.2932  4.5249  0.5206
   37MOL   H69127403   0.789   4.322   6.606  0.7965 -0.5906 -0.4432
   37MOL   H69227404   1.036   4.328   6.580 -0.5868  1.6591 -0.3376
   37MOL   H69327405   1.054   4.282   6.746  1.3556 -1.2864 -1.3114
   37MOL   H69427406   0.962   4.486   6.827  0.8815 -2.2004  1.0598
   37MOL   H69527407   0.903   4.537   6.676  0.4163 -0.5177 -1.0291
   37MOL   H69627408   1.194   4.491   6.704  1.2060  1.3724 -0.9637
   37MOL   H69727409   1.129   4.649   6.752  1.3762  0.7783  0.5154
   37MOL   H69827410   1.034   4.673   6.501  2.1861  2.4853 -1.8926
   37MOL   H69927411   1.153   4.525   6.486  0.4633  0.8870 -0.0955
   37MOL   H70027412   1.323   4.687   6.544 -0.6988 -1.0045 -1.2608
   37MOL   H70127413   1.188   4.803   6.587 -0.4469 -1.1274  1.4693
   37MOL   H70227414   1.313   4.881   6.390 -0.0793  1.2182 -3.3330
   37MOL   H70327415   1.138   4.842   6.367  0.3127  1.2454  0.8960
   37MOL   H70427416   1.343   4.639   6.292 -0.9076  0.7292  2.9422
   37MOL   C70527417   1.248   4.731   6.146 -0.1216 -0.2326  0.3820
   37MOL   O70627418   1.180   4.821   6.103  0.5088 -0.2559 -0.1737
   37MOL   C70727419   1.301   4.630   6.047  0.0657  0.6971 -0.3671
   37MOL   C70827420   1.403   4.692   5.955 -0.1108 -0.2937 -0.0808
   37MOL   C70927421   1.541   4.671   6.001 -0.0434  0.2472 -0.2229
   37MOL   C71027422   1.639   4.753   5.907  0.3143  0.2832  0.0540
   37MOL   C71127423   1.780   4.755   5.963  0.3224 -0.6427 -0.8366
   37MOL   C71227424   1.885   4.802   5.868 -0.1162  0.1772  0.2934
   37MOL   C71327425   2.028   4.791   5.924 -1.0105  0.3275  0.2117
   37MOL   C71427426   2.079   4.904   6.015 -0.0639  0.4974 -0.1928
   37MOL   C71527427   2.232   4.896   6.023 -0.0399 -0.4498  0.1156
   37MOL   C71627428   2.289   5.004   6.111  0.0088 -0.0587 -0.1057
   37MOL   C71727429   2.436   5.039   6.072  0.6062  0.1126 -0.2979
   37MOL   N71827430   2.468   5.173   6.113  0.2177  0.5884 -0.1356
   37MOL   H71927431   1.210   4.607   5.992  0.9497 -1.2267 -1.0518
   37MOL   H72027432   1.347   4.542   6.092  0.7964  0.5066 -1.4634
   37MOL   H72127433   1.387   4.655   5.853 -1.7321  2.3145 -0.8461
   37MOL   H72227434   1.380   4.798   5.943 -2.7020 -0.8796 -0.7127
   37MOL   H72327435   1.577   4.568   5.990 -1.1144 -0.2501  0.8271
   37MOL   H72427436   1.547   4.704   6.104 -1.1440 -2.3848  0.7199
   37MOL   H72527437   1.638   4.701   5.811  1.0567  0.9045 -0.2989
   37MOL   H72627438   1.613   4.856   5.881 -0.2904  0.0571 -0.2318
   37MOL   H72727439   1.822   4.660   5.997  2.6653  0.8143  0.5235
   37MOL   H72827440   1.780   4.828   6.045  0.6213  0.4989 -1.8474
   37MOL   H72927441   1.866   4.907   5.844  1.5038  0.6344  0.9623
   37MOL   H73027442   1.883   4.741   5.778  1.0630 -1.0144  1.0599
   37MOL   H73127443   2.094   4.795   5.837 -0.6702 -2.2127  0.3156
   37MOL   H73227444   2.057   4.696   5.969  1.9774  0.7590 -0.6952
   37MOL   H73327445   2.028   4.911   6.111  0.5894 -1.5644  0.3232
   37MOL   H73427446   2.053   4.997   5.965  0.0963  1.1213  0.8681
   37MOL   H73527447   2.272   4.915   5.924 -0.4238  0.8837  0.2093
   37MOL   H73627448   2.271   4.800   6.056 -0.8685  0.4089  3.9070
   37MOL   H73727449   2.263   4.963   6.209  0.6875 -2.5930 -0.9341
   37MOL   H73827450   2.231   5.095   6.098 -0.1197  0.0869  1.4230
   37MOL   H73927451   2.443   5.038   5.963 -1.6350 -0.1281 -0.4594
   37MOL   H74027452   2.506   4.969   6.118 -1.2723 -0.5143  1.6885
   37MOL   H74127453   2.414   5.233   6.053 -0.4610 -0.0110 -0.1352
   37MOL   H74227454   2.429   5.184   6.205  0.7273 -0.1290  0.1757
   38MOL     C127455   2.646   3.446   3.661  0.5086 -0.5325  0.3791
   38MOL     O227456   2.549   3.367   3.646 -0.4084 -0.4624 -0.1308
   38MOL     C327457   2.705   3.471   3.795 -0.0243  0.1817 -0.4645
   38MOL     C427458   2.640   3.584   3.874  0.2485  0.0939 -0.3783
   38MOL     C527459   2.686   3.596   4.017  0.1791  0.0191 -0.2904
   38MOL     C627460   2.832   3.593   4.045 -0.1772 -0.4600 -0.1995
   38MOL     C727461   2.868   3.608   4.197 -0.5256 -0.0546  1.4032
   38MOL     C827462   3.016   3.600   4.203  0.1390 -0.4744 -0.0742
   38MOL     C927463   3.059   3.613   4.348  0.4123  0.2533 -0.4734
   38MOL    C1027464   3.206   3.606   4.374 -0.2544 -0.8444  0.5507
   38MOL    C1127465   3.246   3.594   4.527 -0.4278  0.3746 -0.8797
   38MOL    C1227466   3.396   3.605   4.554 -0.4846  0.6730  0.4244
   38MOL    C1327467   3.476   3.475   4.514  0.2536  0.0480 -0.5542
   38MOL    N1427468   3.429   3.364   4.592 -0.3949  0.1398 -0.0713
   38MOL    H1527469   2.808   3.501   3.777 -0.2058  2.5137  1.9613
   38MOL    H1627470   2.704   3.386   3.863 -3.4402 -0.5286 -1.3044
   38MOL    H1727471   2.665   3.680   3.830 -1.2520  2.1499  3.0599
   38MOL    H1827472   2.532   3.568   3.870  0.6605 -2.6310 -2.6459
   38MOL    H1927473   2.634   3.525   4.081 -0.5523  2.5336  2.0044
   38MOL    H2027474   2.653   3.694   4.052 -0.1874 -1.1582  2.8652
   38MOL    H2127475   2.881   3.505   4.003  0.9161 -0.1945  0.4898
   38MOL    H2227476   2.886   3.674   3.996  0.6156 -2.1796 -2.2233
   38MOL    H2327477   2.823   3.525   4.251  1.7551 -2.4266 -0.2431
   38MOL    H2427478   2.831   3.701   4.240  1.6521 -0.0241  3.2916
   38MOL    H2527479   3.073   3.672   4.145  0.0413  0.6992  1.2622
   38MOL    H2627480   3.046   3.502   4.165 -0.4292 -0.8183  0.3563
   38MOL    H2727481   3.005   3.554   4.423  0.8255  0.9262  0.3692
   38MOL    H2827482   3.019   3.709   4.379  3.4233  1.9178 -1.5600
   38MOL    H2927483   3.245   3.700   4.335  0.6909 -0.5029  2.2691
   38MOL    H3027484   3.255   3.524   4.321  0.9041  1.0979 -1.4596
   38MOL    H3127485   3.197   3.504   4.566  1.3880  0.6060  2.1263
   38MOL    H3227486   3.199   3.683   4.567 -1.0621 -1.1153  1.7905
   38MOL    H3327487   3.417   3.642   4.654  1.9397  1.1187 -0.2132
   38MOL    H3427488   3.429   3.688   4.491 -0.5584  0.1707 -0.2883
   38MOL    H3527489   3.581   3.501   4.527  0.7358 -1.6966 -0.8376
   38MOL    H3627490   3.453   3.457   4.409  1.7920  0.1073 -0.9083
   38MOL    H3727491   3.417   3.385   4.690  2.3171  0.6073  0.2120
   38MOL    H3827492   2.695   3.493   3.576 -0.6551  1.1597  0.6221
   38MOL    C3927493   3.364   3.261   4.536  0.3175 -0.7397 -0.1691
   38MOL    O4027494   3.368   3.234   4.420 -0.2742 -0.4486  0.6505
   38MOL    C4127495   3.286   3.176   4.634  0.7139 -0.6774  0.5400
   38MOL    C4227496   3.140   3.169   4.591  0.0508 -0.1730 -0.2612
   38MOL    C4327497   3.045   3.128   4.704  0.0577  0.2707  0.2288
   38MOL    C4427498   3.028   3.232   4.814 -0.1788 -0.5344 -0.2549
   38MOL    C4527499   2.951   3.359   4.761  0.0094 -0.2004  0.0043
   38MOL    C4627500   2.939   3.475   4.852  0.4129  0.5325  0.2039
   38MOL    C4727501   2.817   3.570   4.832  0.1513  0.0539 -0.2047
   38MOL    C4827502   2.833   3.664   4.715 -0.1649  0.0976 -0.2770
   38MOL    C4927503   2.730   3.781   4.710 -0.7251 -0.7594  1.1967
   38MOL    C5027504   2.762   3.869   4.591  0.6796  0.3298  0.4991
   38MOL    C5127505   2.854   3.988   4.634 -0.2959  0.5555  0.1742
   38MOL    N5227506   2.874   4.075   4.521  0.5017  0.4913 -0.5540
   38MOL    H5327507   3.296   3.221   4.733  0.2616  0.7837 -0.0680
   38MOL    H5427508   3.325   3.074   4.640 -0.7094 -1.1940  1.0470
   38MOL    H5527509   3.110   3.261   4.541  0.4849 -0.9377 -1.9270
   38MOL    H5627510   3.126   3.089   4.519  0.0366  0.2206 -0.6952
   38MOL    H5727511   3.082   3.042   4.761  1.1295  0.2676 -0.4651
   38MOL    H5827512   2.947   3.103   4.663  1.1374 -1.5911 -1.2971
   38MOL    H5927513   2.965   3.184   4.888  1.7618 -2.8238 -0.0467
   38MOL    H6027514   3.122   3.259   4.861 -0.3391 -0.3609 -0.0366
   38MOL    H6127515   2.852   3.337   4.723  0.0695 -2.2892  1.0145
   38MOL    H6227516   3.007   3.411   4.683 -1.7967  2.2420  0.2894
   38MOL    H6327517   3.030   3.536   4.846 -0.4924  1.7630 -1.4810
   38MOL    H6427518   2.925   3.441   4.954 -1.0524 -0.6286 -0.3598
   38MOL    H6527519   2.801   3.631   4.921  1.4740  2.6417 -1.6741
   38MOL    H6627520   2.722   3.519   4.821  1.7791 -3.1049  0.0220
   38MOL    H6727521   2.830   3.608   4.622 -0.2971 -0.5376  0.1017
   38MOL    H6827522   2.935   3.704   4.710 -0.3583  0.4090 -1.9108
   38MOL    H6927523   2.721   3.841   4.801 -1.1311  0.5159  0.3200
   38MOL    H7027524   2.635   3.726   4.702 -1.5485  0.6135  1.4045
   38MOL    H7127525   2.673   3.915   4.548  0.5226  0.1576  0.6337
   38MOL    H7227526   2.794   3.807   4.507 -0.8850 -0.8159  0.7230
   38MOL    H7327527   2.949   3.949   4.671  0.0944  1.4796  0.1650
   38MOL    H7427528   2.815   4.048   4.716 -0.2905 -0.7881  1.1745
   38MOL    H7527529   2.799   4.139   4.501 -1.2883 -1.8190 -1.4358
   38MOL    C7627530   2.983   4.085   4.443  0.7076  0.0793  0.0524
   38MOL    O7727531   3.093   4.036   4.467 -0.5028 -0.6401 -0.5253
   38MOL    C7827532   2.973   4.187   4.327 -0.4090 -0.2129  0.2482
   38MOL    C7927533   3.083   4.193   4.216 -0.6444  0.8043 -0.0035
   38MOL    C8027534   3.101   4.052   4.164  0.0494 -0.2693 -0.0037
   38MOL    C8127535   3.211   4.045   4.058  0.3110  0.0825  0.0831
   38MOL    C8227536   3.238   3.911   3.997 -0.5644 -0.3226  0.0265
   38MOL    C8327537   3.124   3.865   3.892 -0.0474 -0.2127 -0.6405
   38MOL    C8427538   3.135   3.725   3.839 -0.5935  0.2292  0.2452
   38MOL    C8527539   3.031   3.685   3.735 -0.1691  0.3201 -0.1869
   38MOL    C8627540   3.045   3.564   3.647 -0.1004 -0.0321  0.3603
   38MOL    C8727541   3.079   3.431   3.718  0.2874  0.0486  0.0630
   38MOL    C8827542   3.124   3.325   3.616 -0.1181 -0.1008 -0.0165
   38MOL    N8927543   3.171   3.210   3.685  0.4256 -0.2979 -0.3123
   38MOL    H9027544   2.982   4.283   4.380  0.8471  0.9202 -1.9611
   38MOL    H9127545   2.879   4.196   4.273  0.1137 -0.5377 -0.7268
   38MOL    H9227546   3.052   4.268   4.143 -3.0795 -0.4689 -0.2994
   38MOL    H9327547   3.178   4.228   4.259 -0.6021 -0.0142  0.5847
   38MOL    H9427548   3.014   4.012   4.113 -0.6859  1.1120  0.1543
   38MOL    H9527549   3.117   3.979   4.243  1.2447  3.0933  2.9453
   38MOL    H9627550   3.172   4.107   3.978  0.9758 -0.3467 -0.5779
   38MOL    H9727551   3.306   4.092   4.088  0.0943  2.2080 -2.4199
   38MOL    H9827552   3.267   3.846   4.079  1.1334 -0.1185 -0.3981
   38MOL    H9927553   3.327   3.908   3.934 -0.2532  1.5891  0.3361
   38MOL   H10027554   3.116   3.941   3.814 -0.0110  0.3185 -0.1379
   38MOL   H10127555   3.026   3.869   3.941 -1.1250  0.1005 -2.7911
   38MOL   H10227556   3.133   3.653   3.920 -1.7340  2.1439  1.9509
   38MOL   H10327557   3.238   3.715   3.804 -1.3985  2.0274 -2.8516
   38MOL   H10427558   3.035   3.776   3.675 -1.0851 -0.9436 -2.1906
   38MOL   H10527559   2.944   3.687   3.801  0.4944 -0.7568  0.7401
   38MOL   H10627560   3.120   3.593   3.573 -0.7834  3.1437  0.8522
   38MOL   H10727561   2.951   3.543   3.595 -0.3130  0.4779  0.5357
   38MOL   H10827562   2.997   3.390   3.776  2.1511 -0.8341  2.1370
   38MOL   H10927563   3.155   3.455   3.793 -1.5332  3.0571  1.0382
   38MOL   H11027564   3.201   3.354   3.545  1.1924 -3.1552  0.0489
   38MOL   H11127565   3.038   3.304   3.552  0.1545  0.4738 -0.5763
   38MOL   H11227566   3.224   3.217   3.771 -1.2728 -1.9342  0.9055
   38MOL   C11327567   3.175   3.086   3.635 -0.7502  0.5725  0.8858
   38MOL   O11427568   3.129   3.062   3.524  0.0217 -0.0658 -0.4173
   38MOL   C11527569   3.231   2.979   3.720 -0.3817  0.7354  0.2104
   38MOL   C11627570   3.342   2.895   3.653 -0.4714  0.0559  0.4396
   38MOL   C11727571   3.480   2.943   3.683 -0.9115 -0.1812 -0.2000
   38MOL   C11827572   3.601   2.854   3.649  0.1503 -0.1368 -0.3585
   38MOL   C11927573   3.730   2.904   3.714 -0.0884  0.1920  0.3256
   38MOL   C12027574   3.845   2.798   3.724 -0.6590 -0.2309  0.2157
   38MOL   C12127575   3.976   2.851   3.789 -0.2630 -0.3427  0.5192
   38MOL   C12227576   4.065   2.934   3.691  0.2729  0.1328  0.1716
   38MOL   C12327577   4.166   3.021   3.765 -0.2416 -0.3390 -0.1824
   38MOL   C12427578   4.087   3.133   3.836 -0.1400  0.2463  0.4618
   38MOL   C12527579   4.172   3.253   3.874  0.0671 -1.0368 -0.3593
   38MOL   N12627580   4.089   3.370   3.904 -0.0516  0.0494 -0.4029
   38MOL   H12727581   3.141   2.918   3.732 -0.9925  1.3571 -1.0501
   38MOL   H12827582   3.269   3.017   3.814  0.6570  2.7109 -0.9719
   38MOL   H12927583   3.336   2.798   3.701 -1.8952  0.5355  1.2713
   38MOL   H13027584   3.319   2.872   3.549  1.7767  0.2085 -0.1094
   38MOL   H13127585   3.496   2.959   3.790  1.4018 -1.0256 -0.3887
   38MOL   H13227586   3.512   3.040   3.646 -0.1230 -0.3527  0.0219
   38MOL   H13327587   3.573   2.757   3.688 -2.0621  1.5338  2.4221
   38MOL   H13427588   3.599   2.837   3.541  1.2729 -0.7041 -0.2921
   38MOL   H13527589   3.702   2.938   3.813  0.9632  2.8357 -0.2338
   38MOL   H13627590   3.753   2.994   3.657 -0.0828 -0.2832 -0.4356
   38MOL   H13727591   3.857   2.753   3.625  0.2820 -2.5279  1.3328
   38MOL   H13827592   3.820   2.712   3.786  1.1836 -2.0177 -1.4357
   38MOL   H13927593   4.032   2.766   3.829 -1.3269 -0.1814  2.4071
   38MOL   H14027594   3.942   2.911   3.872 -1.7577  2.4978 -2.0440
   38MOL   H14127595   4.017   2.987   3.609  0.5508 -0.7853 -0.5937
   38MOL   H14227596   4.116   2.857   3.633  1.5726  1.0541  0.0705
   38MOL   H14327597   4.226   3.078   3.693 -0.3368 -1.1300 -0.8901
   38MOL   H14427598   4.234   2.978   3.838 -0.7837  0.5535  0.8642
   38MOL   H14527599   4.033   3.097   3.924 -1.9794  1.8581  0.0208
   38MOL   H14627600   4.008   3.168   3.769  0.0692 -0.8646 -0.3833
   38MOL   H14727601   4.248   3.271   3.797 -0.1284 -0.9955 -0.5433
   38MOL   H14827602   4.234   3.230   3.961 -1.2358 -3.3604  0.0147
   38MOL   H14927603   4.001   3.372   3.856 -0.6007  1.7409  0.6447
   38MOL   C15027604   4.113   3.466   3.994  0.5173  0.8276 -0.0477
   38MOL   O15127605   4.222   3.477   4.052  0.2798 -0.0545 -0.1649
   38MOL   C15227606   3.997   3.560   4.017 -0.2509 -0.3799 -0.4110
   38MOL   C15327607   4.031   3.710   4.002  0.2002 -0.1900 -0.3866
   38MOL   C15427608   4.108   3.772   4.117 -0.4502 -0.2815 -0.1226
   38MOL   C15527609   4.110   3.925   4.124  0.4687  0.0393 -0.6657
   38MOL   C15627610   3.977   3.966   4.178 -0.4014  0.2107 -0.6007
   38MOL   C15727611   3.965   4.118   4.194  0.6540 -0.0902 -0.1155
   38MOL   C15827612   3.851   4.172   4.272  0.3756 -0.0349 -0.2890
   38MOL   C15927613   3.716   4.164   4.206  0.5583 -0.4357  0.1573
   38MOL   C16027614   3.602   4.221   4.299 -0.1382  0.0372 -0.1384
   38MOL   C16127615   3.569   4.123   4.413 -0.0875  0.0938  0.4380
   38MOL   C16227616   3.462   4.177   4.509  0.3383 -0.6163  0.1552
   38MOL   N16327617   3.375   4.078   4.563  0.0912 -0.4637 -0.1771
   38MOL   H16427618   3.964   3.536   4.118 -1.0635 -0.5090 -0.7028
   38MOL   H16527619   3.907   3.535   3.962  0.1860 -1.6316 -0.5797
   38MOL   H16627620   4.069   3.735   3.903  0.4460 -1.0628 -0.5121
   38MOL   H16727621   3.929   3.746   3.987 -0.0798 -1.5626 -1.8376
   38MOL   H16827622   4.211   3.737   4.116 -0.3499 -0.0788  1.5010
   38MOL   H16927623   4.077   3.734   4.214  0.9514 -1.3343 -0.0774
   38MOL   H17027624   4.184   3.958   4.196 -0.6633  1.3920 -0.0907
   38MOL   H17127625   4.135   3.969   4.028 -1.0141 -1.5028 -1.7884
   38MOL   H17227626   3.955   3.915   4.271  3.5632  1.8111  1.3407
   38MOL   H17327627   3.899   3.936   4.108 -0.6962 -1.4416  0.4198
   38MOL   H17427628   3.983   4.168   4.099  0.4107 -2.0980 -1.2485
   38MOL   H17527629   4.054   4.148   4.249  0.2056 -1.5233  1.4605
   38MOL   H17627630   3.864   4.278   4.291  0.7958 -0.0777 -0.3414
   38MOL   H17727631   3.856   4.123   4.370 -1.5810  2.1146  0.9376
   38MOL   H17827632   3.700   4.062   4.170 -0.9598 -0.9528  2.2136
   38MOL   H17927633   3.723   4.231   4.121 -1.1277 -0.8282 -0.3144
   38MOL   H18027634   3.509   4.219   4.242 -0.3696  1.7514  0.1435
   38MOL   H18127635   3.616   4.323   4.335 -0.8978  0.3767 -0.7857
   38MOL   H18227636   3.658   4.087   4.465  0.0208 -1.9976 -1.1602
   38MOL   H18327637   3.525   4.032   4.373 -0.9845  1.2673 -1.2963
   38MOL   H18427638   3.400   4.238   4.444 -0.2934 -0.9036  0.4817
   38MOL   H18527639   3.497   4.252   4.579  2.3952  0.1985 -1.6612
   38MOL   H18627640   3.287   4.062   4.514  0.7246 -1.0039 -1.1749
   38MOL   C18727641   3.403   4.009   4.671 -0.0620  0.4942 -0.0050
   38MOL   O18827642   3.511   4.022   4.727 -0.0462  0.1676 -0.5368
   38MOL   C18927643   3.302   3.909   4.728  0.0042  0.4848  0.1129
   38MOL   C19027644   3.221   3.978   4.839 -0.3610 -0.7122 -0.2550
   38MOL   C19127645   3.146   3.870   4.913  0.4545  0.5278 -0.1114
   38MOL   C19227646   3.061   3.928   5.022 -0.0132 -0.2691 -0.1463
   38MOL   C19327647   2.995   3.820   5.118 -0.7574 -0.1374 -0.4693
   38MOL   C19427648   3.081   3.712   5.177  0.1788 -0.1455 -0.1936
   38MOL   C19527649   3.055   3.663   5.320  0.2058  0.7397  0.5984
   38MOL   C19627650   3.086   3.768   5.424  0.2536 -0.7841  0.3753
   38MOL   C19727651   3.079   3.734   5.573  0.4834 -0.1217  0.5799
   38MOL   C19827652   3.143   3.851   5.650  0.1995  0.4159 -0.5345
   38MOL   C19927653   3.214   3.808   5.780 -0.0224 -0.2840 -0.1021
   38MOL   N20027654   3.252   3.903   5.885 -0.5579  0.2391  0.8448
   38MOL   H20127655   3.362   3.822   4.753 -1.3510 -0.0522  1.5930
   38MOL   H20227656   3.229   3.892   4.648  1.1887  1.4898 -1.2082
   38MOL   H20327657   3.290   4.029   4.905  0.0019  0.3837 -1.4588
   38MOL   H20427658   3.156   4.057   4.801 -0.4950  0.4381  2.3055
   38MOL   H20527659   3.212   3.802   4.965  0.1458  0.6591  0.4577
   38MOL   H20627660   3.084   3.814   4.842  0.6814  1.3644 -0.9871
   38MOL   H20727661   3.121   3.997   5.083 -1.3569 -0.5712  1.5454
   38MOL   H20827662   2.977   3.986   4.983 -0.5038 -1.0626 -0.2729
   38MOL   H20927663   2.906   3.770   5.078 -0.3938 -2.7709  1.9010
   38MOL   H21027664   2.962   3.873   5.207  3.2243  1.2209  0.3018
   38MOL   H21127665   3.186   3.742   5.168  0.2755 -0.1807  0.7357
   38MOL   H21227666   3.067   3.627   5.110  0.3939  1.5024 -2.3864
   38MOL   H21327667   3.108   3.569   5.337 -1.5582 -0.4486 -0.2069
   38MOL   H21427668   2.953   3.625   5.328  1.0592 -2.3203 -2.0323
   38MOL   H21527669   3.043   3.866   5.401 -0.6901 -1.6382 -1.6306
   38MOL   H21627670   3.192   3.787   5.402  0.2510 -0.8198  0.3309
   38MOL   H21727671   3.143   3.649   5.597 -0.2937 -1.1750 -1.0567
   38MOL   H21827672   2.978   3.715   5.610 -0.0684 -0.1695 -0.9128
   38MOL   H21927673   3.055   3.909   5.679 -0.5417 -2.2658  3.0272
   38MOL   H22027674   3.210   3.912   5.591  1.1885  3.1722  3.2610
   38MOL   H22127675   3.304   3.748   5.763 -0.6665 -1.5128  0.7491
   38MOL   H22227676   3.142   3.750   5.838  0.3989  1.7921  2.6373
   38MOL   H22327677   3.349   3.911   5.912 -0.3094  2.2667 -0.5334
   38MOL   C22427678   3.171   3.974   5.963 -0.1612 -0.1977  0.1460
   38MOL   O22527679   3.049   3.958   5.964 -0.0251 -0.6166 -0.8517
   38MOL   C22627680   3.231   4.089   6.036  0.6148 -0.4418  0.1467
   38MOL   C22727681   3.123   4.186   6.096  0.0562  0.7696  0.1377
   38MOL   C22827682   3.193   4.292   6.180 -0.3556  0.0339  0.4893
   38MOL   C22927683   3.084   4.382   6.238 -0.1556 -0.1533  0.0368
   38MOL   C23027684   3.156   4.517   6.284 -0.1077  0.3350  0.4957
   38MOL   C23127685   3.066   4.595   6.371  0.0121  0.9861 -0.2792
   38MOL   C23227686   2.919   4.628   6.325  0.0336 -0.3375  0.2051
   38MOL   C23327687   2.925   4.740   6.215 -0.0743 -0.1617  0.2974
   38MOL   C23427688   2.791   4.759   6.149  0.3439 -0.1701  0.1796
   38MOL   C23527689   2.749   4.653   6.048  0.1160  0.1928 -0.0782
   38MOL   C23627690   2.602   4.693   6.018  0.2755 -0.4233  0.2804
   38MOL   N23727691   2.550   4.609   5.917 -0.2489 -0.3091 -0.4286
   38MOL   H23827692   3.284   4.142   5.957  0.1768  0.0492  0.1795
   38MOL   H23927693   3.304   4.051   6.107 -1.3150 -1.1591  1.7755
   38MOL   H24027694   3.060   4.237   6.024 -0.6641  1.1165  1.0004
   38MOL   H24127695   3.045   4.139   6.156  2.0376 -3.3901 -0.3581
   38MOL   H24227696   3.237   4.360   6.107 -3.7233  0.1367 -1.5660
   38MOL   H24327697   3.258   4.253   6.258  1.6222 -2.0463 -2.0699
   38MOL   H24427698   3.002   4.399   6.169  0.2832 -1.7720 -0.9071
   38MOL   H24527699   3.037   4.336   6.325  2.5223 -2.2231  0.4514
   38MOL   H24627700   3.198   4.580   6.205  0.3757  0.4495  0.8369
   38MOL   H24727701   3.246   4.485   6.338 -1.0768 -2.0866  0.7242
   38MOL   H24827702   3.133   4.676   6.398  0.1339  0.1485  2.0475
   38MOL   H24927703   3.045   4.537   6.461  2.4916 -1.0353 -0.9318
   38MOL   H25027704   2.865   4.665   6.412 -0.4391  0.8979 -0.6067
   38MOL   H25127705   2.870   4.537   6.288  0.9783 -1.2257  1.1235
   38MOL   H25227706   2.996   4.705   6.140  0.2540  1.4067 -0.1633
   38MOL   H25327707   2.966   4.835   6.251  0.1667 -0.5269  1.0026
   38MOL   H25427708   2.794   4.853   6.094 -2.7136  0.0075  0.2038
   38MOL   H25527709   2.720   4.769   6.232 -0.8630 -3.2314 -0.4077
   38MOL   H25627710   2.748   4.561   6.107  1.0686  0.7276  0.7902
   38MOL   H25727711   2.814   4.661   5.961  1.0437 -3.4513  0.2229
   38MOL   H25827712   2.591   4.794   5.979  1.7538  0.1059  1.2212
   38MOL   H25927713   2.541   4.705   6.108  0.8884 -2.5690  1.0184
   38MOL   H26027714   2.609   4.594   5.836  2.9523  1.5752  1.4390
   38MOL   C26127715   2.435   4.547   5.931  0.5640  0.2308 -0.0902
   38MOL   O26227716   2.368   4.556   6.029  0.7606 -0.0260 -0.2284
   38MOL   C26327717   2.379   4.481   5.805 -0.9075  0.4339 -0.5017
   38MOL   C26427718   2.234   4.504   5.753  0.5025 -0.1297 -0.5322
   38MOL   C26527719   2.156   4.370   5.741 -0.3062  0.4410  0.5847
   38MOL   C26627720   2.210   4.281   5.624 -0.6437  0.4045  0.0835
   38MOL   C26727721   2.189   4.132   5.654  0.3595  0.0138 -0.1795
   38MOL   C26827722   2.305   4.071   5.731  0.2542 -0.5337  0.3238
   38MOL   C26927723   2.280   3.929   5.770  0.0136 -0.1290  0.0963
   38MOL   C27027724   2.387   3.872   5.869 -0.5422  0.7691 -0.1605
   38MOL   C27127725   2.529   3.848   5.815 -0.6485 -0.8872  0.2699
   38MOL   C27227726   2.637   3.795   5.914  0.7998  0.0405 -0.2635
   38MOL   C27327727   2.782   3.791   5.847 -0.5545 -0.0335  0.2395
   38MOL   N27427728   2.880   3.744   5.945  0.5191 -0.2403  0.4202
   38MOL   H27527729   2.409   4.378   5.826  2.1369  1.0931 -1.4352
   38MOL   H27627730   2.447   4.512   5.726 -2.1106  0.9456 -1.3354
   38MOL   H27727731   2.185   4.559   5.833 -0.4008 -0.6437 -0.7219
   38MOL   H27827732   2.246   4.559   5.660  0.8982  1.0897  0.2282
   38MOL   H27927733   2.051   4.390   5.723 -1.1283 -1.9665  2.4620
   38MOL   H28027734   2.167   4.312   5.832 -1.6919  0.1214  0.5485
   38MOL   H28127735   2.146   4.301   5.538  0.2327  1.0478 -0.4268
   38MOL   H28227736   2.312   4.309   5.598 -0.4203 -0.7359 -0.2602
   38MOL   H28327737   2.181   4.081   5.558  0.0166  0.1115 -0.2047
   38MOL   H28427738   2.091   4.113   5.699  1.5310  0.9758  2.8936
   38MOL   H28527739   2.327   4.120   5.826  2.9002  0.5564 -0.8104
   38MOL   H28627740   2.397   4.080   5.673  1.6852 -1.6348  2.3698
   38MOL   H28727741   2.274   3.862   5.685 -1.1947  0.2411 -0.1189
   38MOL   H28827742   2.182   3.920   5.816  0.0044  1.3611  0.4002
   38MOL   H28927743   2.354   3.772   5.898 -1.7924  0.7446 -1.6438
   38MOL   H29027744   2.389   3.927   5.963 -0.9361 -1.1235  1.0023
   38MOL   H29127745   2.576   3.935   5.769 -2.8506  0.2197  0.0766
   38MOL   H29227746   2.531   3.774   5.735 -0.3809 -0.8984  0.2863
   38MOL   H29327747   2.619   3.693   5.947 -1.9503 -0.1252 -2.0741
   38MOL   H29427748   2.643   3.862   6.000 -0.0307  0.9892 -0.9233
   38MOL   H29527749   2.801   3.892   5.811 -0.8362  1.0413  3.0113
   38MOL   H29627750   2.790   3.733   5.755 -0.5242  0.1424  0.1335
   38MOL   H29727751   2.949   3.813   5.971  0.6196 -0.1216 -0.1511
   38MOL   C29827752   2.892   3.622   5.987 -0.4265  0.4256 -0.0936
   38MOL   O29927753   2.819   3.533   5.941  0.2335  0.5119 -0.4377
   38MOL   C30027754   3.008   3.579   6.078  0.6200 -0.1774 -0.7907
   38MOL   C30127755   3.069   3.441   6.034 -0.2358  0.3922 -0.0690
   38MOL   C30227756   3.142   3.443   5.898 -0.1967  0.5338  0.3831
   38MOL   C30327757   3.224   3.313   5.880  0.6164 -0.4509 -0.6298
   38MOL   C30427758   3.290   3.315   5.743 -0.1117  0.6141  0.4782
   38MOL   C30527759   3.359   3.181   5.711 -0.0421 -0.3105  0.1469
   38MOL   C30627760   3.508   3.197   5.762  0.0298  0.5430  0.2185
   38MOL   C30727761   3.606   3.088   5.718 -0.4748 -0.4837  0.1972
   38MOL   C30827762   3.592   2.949   5.783 -0.4787  0.5834 -0.0757
   38MOL   C30927763   3.514   2.843   5.699 -0.3000  0.2239 -0.9131
   38MOL   C31027764   3.604   2.772   5.599  0.4195  0.6462  0.1186
   38MOL   N31127765   3.528   2.676   5.514 -0.6042 -0.5947  0.3904
   38MOL   H31227766   2.966   3.559   6.177 -2.7175 -0.6782 -2.2533
   38MOL   H31327767   3.079   3.662   6.082  0.9582 -0.5080  0.4451
   38MOL   H31427768   3.135   3.401   6.111  0.0906  0.8474 -0.1153
   38MOL   H31527769   2.987   3.368   6.033  1.5330 -1.6110 -1.3931
   38MOL   H31627770   3.215   3.521   5.879  0.5232 -0.2426 -0.0846
   38MOL   H31727771   3.072   3.439   5.814 -0.8406  4.2280  0.6587
   38MOL   H31827772   3.301   3.334   5.954  1.0764  0.5088 -1.3554
   38MOL   H31927773   3.162   3.227   5.903 -0.5309  0.7693  0.9096
   38MOL   H32027774   3.351   3.403   5.720  1.0369  0.2054  1.8938
   38MOL   H32127775   3.207   3.315   5.673  1.8582 -0.7141 -1.9682
   38MOL   H32227776   3.355   3.160   5.605 -1.4773 -0.7786  0.2872
   38MOL   H32327777   3.299   3.099   5.750 -0.1570 -0.2280  0.1439
   38MOL   H32427778   3.514   3.192   5.870  0.6110  0.0204  0.1630
   38MOL   H32527779   3.556   3.289   5.729 -0.8171  0.5987 -0.9290
   38MOL   H32627780   3.705   3.132   5.728  0.2193 -1.1445 -3.1194
   38MOL   H32727781   3.585   3.066   5.613 -1.4024 -0.8169  0.4466
   38MOL   H32827782   3.547   2.970   5.880  0.1091  3.2668 -0.3536
   38MOL   H32927783   3.699   2.929   5.789 -0.2433  1.7911 -0.1090
   38MOL   H33027784   3.424   2.891   5.661  0.3854  1.3067 -1.1650
   38MOL   H33127785   3.477   2.769   5.770  2.2501  0.3943  0.6511
   38MOL   H33227786   3.665   2.697   5.650  1.5417  0.1687 -1.8720
   38MOL   H33327787   3.670   2.841   5.547  0.8285 -0.3541 -0.7076
   38MOL   H33427788   3.533   2.581   5.550 -2.1573 -0.8454 -0.0403
   38MOL   C33527789   3.467   2.699   5.399  0.0326  0.4630  0.1177
   38MOL   O33627790   3.454   2.814   5.360  0.3829 -0.5964  0.1343
   38MOL   C33727791   3.403   2.583   5.333 -0.5669  0.6438  0.8960
   38MOL   C33827792   3.471   2.536   5.200 -0.2890 -0.0904 -0.1234
   38MOL   C33927793   3.608   2.471   5.227 -0.0585 -0.0839  0.6400
   38MOL   C34027794   3.672   2.395   5.103 -1.2296 -0.3665  0.0717
   38MOL   C34127795   3.794   2.310   5.151 -0.3047  0.0238 -0.3086
   38MOL   C34227796   3.858   2.226   5.042  0.3636 -0.0477 -0.2716
   38MOL   C34327797   3.778   2.095   5.007 -0.7113 -0.6791  0.1375
   38MOL   C34427798   3.831   2.008   4.883  0.6643 -0.2704  0.0791
   38MOL   C34527799   3.762   1.877   4.855 -0.3196 -0.7150 -0.0466
   38MOL   C34627800   3.611   1.900   4.847 -0.1271  0.3445  0.2906
   38MOL   C34727801   3.535   1.775   4.794 -0.2517 -1.0482 -0.4256
   38MOL   N34827802   3.397   1.817   4.758 -0.2654 -0.5465  0.1848
   38MOL   H34927803   3.308   2.621   5.296  0.5996  0.6409 -2.1924
   38MOL   H35027804   3.368   2.504   5.400  0.5927 -2.2463 -1.7898
   38MOL   H35127805   3.403   2.469   5.147 -3.0195  2.0511  0.5058
   38MOL   H35227806   3.483   2.618   5.128 -0.1741  1.2498  1.3841
   38MOL   H35327807   3.599   2.405   5.313 -2.1182  1.7451  1.8764
   38MOL   H35427808   3.682   2.543   5.262  1.5090 -2.0303  1.4534
   38MOL   H35527809   3.601   2.327   5.055 -0.5474 -0.3672 -0.9630
   38MOL   H35627810   3.711   2.456   5.022 -0.2850 -0.3555  0.5410
   38MOL   H35727811   3.761   2.240   5.227  0.5643  0.0887  0.1407
   38MOL   H35827812   3.864   2.379   5.199 -0.7356  0.3852 -0.1910
   38MOL   H35927813   3.951   2.185   5.081 -2.0843 -2.9950  2.8198
   38MOL   H36027814   3.877   2.280   4.950  0.6095  1.6235  0.7329
   38MOL   H36127815   3.673   2.121   4.992 -0.8106 -0.9582  0.3288
   38MOL   H36227816   3.768   2.031   5.095 -4.4820 -1.5972 -0.8489
   38MOL   H36327817   3.936   1.990   4.906  0.1124 -1.1481  2.0075
   38MOL   H36427818   3.838   2.072   4.796  0.2992 -0.5829 -0.1814
   38MOL   H36527819   3.769   1.803   4.934 -3.9189  0.9306  1.9166
   38MOL   H36627820   3.805   1.840   4.761  4.2234  1.6531  0.9231
   38MOL   H36727821   3.586   1.988   4.788 -1.4531 -0.5751 -0.5575
   38MOL   H36827822   3.581   1.916   4.951 -2.9251 -1.7296 -0.1305
   38MOL   H36927823   3.532   1.701   4.874  1.1646 -1.0566 -0.3765
   38MOL   H37027824   3.591   1.737   4.708  2.0570 -0.3256  0.7194
   38MOL   H37127825   3.332   1.778   4.825  0.6940 -0.1658  1.3621
   38MOL   C37227826   3.353   1.886   4.654  1.1213 -0.1140  0.0092
   38MOL   O37327827   3.427   1.928   4.565 -0.2487  0.2040  0.1380
   38MOL   C37427828   3.196   1.907   4.644 -0.2930 -0.0523  0.1998
   38MOL   C37527829   3.126   1.779   4.601 -0.4742  0.0008 -0.9552
   38MOL   C37627830   3.147   1.757   4.451  0.0279  0.0752 -0.1742
   38MOL   C37727831   3.086   1.624   4.403 -0.1427  0.1050  0.0161
   38MOL   C37827832   3.152   1.553   4.285 -0.7654  0.8417  0.5852
   38MOL   C37927833   3.120   1.403   4.270  0.0831 -0.9958 -0.6681
   38MOL   C38027834   3.112   1.359   4.124 -0.0570 -0.5633  0.0356
   38MOL   C38127835   3.124   1.207   4.111  0.1632  0.1758  0.3245
   38MOL   C38227836   3.129   1.145   3.968  0.6876  0.0049  0.0125
   38MOL   C38327837   3.268   1.162   3.902  0.6072 -0.3963 -0.9351
   38MOL   C38427838   3.266   1.115   3.756 -0.0160  0.1073  1.1162
   38MOL   N38527839   3.382   1.155   3.682 -0.0306 -0.5961  0.1627
   38MOL   H38627840   3.183   1.997   4.584 -0.8045 -1.0730 -1.2184
   38MOL   H38727841   3.163   1.923   4.747 -0.5241 -2.3048  0.4904
   38MOL   H38827842   3.172   1.696   4.653  2.2332  1.4812 -0.9086
   38MOL   H38927843   3.020   1.783   4.625 -0.2573  0.8315 -0.0958
   38MOL   H39027844   3.250   1.754   4.415 -0.2749  0.0092 -1.0481
   38MOL   H39127845   3.102   1.834   4.388 -2.0794 -0.8487  0.1786
   38MOL   H39227846   3.098   1.556   4.487  3.1872  0.7035  0.1003
   38MOL   H39327847   2.979   1.631   4.385 -0.3473 -0.0632  1.1378
   38MOL   H39427848   3.259   1.571   4.295 -0.5251 -0.5087  0.5354
   38MOL   H39527849   3.120   1.609   4.197 -1.0876 -0.7650 -0.3397
   38MOL   H39627850   3.015   1.393   4.300  0.4674  0.7276  1.3531
   38MOL   H39727851   3.189   1.341   4.326  1.5551 -0.4017 -1.8031
   38MOL   H39827852   3.195   1.406   4.071 -2.0952  1.9441 -1.0135
   38MOL   H39927853   3.023   1.391   4.069  0.9405  0.2814 -1.1072
   38MOL   H40027854   3.048   1.159   4.172  0.7189 -0.1979  0.7303
   38MOL   H40127855   3.211   1.171   4.166  0.4239 -1.7749 -1.3392
   38MOL   H40227856   3.042   1.174   3.908 -0.5703  1.8152  2.6250
   38MOL   H40327857   3.125   1.036   3.964  1.0050 -0.1093  2.3560
   38MOL   H40427858   3.342   1.101   3.953  0.5692  0.3618  0.0488
   38MOL   H40527859   3.307   1.264   3.903  0.4671 -0.3511  0.1087
   38MOL   H40627860   3.173   1.147   3.709  1.0518  0.9496 -0.4314
   38MOL   H40727861   3.258   1.006   3.754 -1.5331  0.2295 -0.5343
   38MOL   H40827862   3.415   1.248   3.705 -1.9713  0.5250 -1.3595
   38MOL   C40927863   3.440   1.083   3.587 -0.3910  0.9615 -0.5286
   38MOL   O41027864   3.412   0.965   3.559  0.0878 -0.4991 -0.4016
   38MOL   C41127865   3.553   1.147   3.515  0.1583 -0.3774 -0.0975
   38MOL   C41227866   3.677   1.065   3.520 -0.1239 -0.2492 -0.6984
   38MOL   C41327867   3.745   1.062   3.654  0.4537 -0.3762  0.8773
   38MOL   C41427868   3.877   0.989   3.667 -0.3827  0.0409  0.1311
   38MOL   C41527869   4.003   1.052   3.596  0.3139 -0.5601  0.0435
   38MOL   C41627870   4.137   0.986   3.635 -0.2678  0.1592  0.4507
   38MOL   C41727871   4.249   1.080   3.584 -0.2059  0.8448 -0.3070
   38MOL   C41827872   4.264   1.209   3.663 -0.0690  0.2623 -0.5229
   38MOL   C41927873   4.343   1.188   3.797 -0.1811  0.1380 -0.2949
   38MOL   C42027874   4.345   1.315   3.894  0.0320 -0.4155 -0.5452
   38MOL   C42127875   4.399   1.310   4.038 -0.3494 -0.3895  0.1759
   38MOL   N42227876   4.315   1.235   4.128  0.2814 -0.2769  0.4685
   38MOL   H42327877   3.562   1.254   3.533 -0.9795 -0.3128  0.1356
   38MOL   H42427878   3.525   1.152   3.409 -0.5637  2.7433  0.1867
   38MOL   H42527879   3.659   0.962   3.488 -0.4134 -0.4221  0.0259
   38MOL   H42627880   3.747   1.105   3.446  0.9694 -0.5740  0.1447
   38MOL   H42727881   3.680   1.009   3.725  1.2291 -1.2089  0.9763
   38MOL   H42827882   3.764   1.163   3.691 -2.4214  1.0148 -1.2550
   38MOL   H42927883   3.897   0.983   3.774  2.3261  0.0962 -0.3200
   38MOL   H43027884   3.861   0.887   3.635 -1.8338 -0.7478  3.1748
   38MOL   H43127885   4.004   1.159   3.618 -0.2475 -0.0419 -2.3879
   38MOL   H43227886   3.995   1.058   3.488  0.7435  1.5816  0.0927
   38MOL   H43327887   4.136   0.894   3.577 -3.2160  1.2136 -1.2978
   38MOL   H43427888   4.145   0.965   3.742  3.7808 -0.7885  0.0093
   38MOL   H43527889   4.234   1.096   3.477  2.0319 -1.3440 -1.0164
   38MOL   H43627890   4.345   1.027   3.588 -0.9394 -0.4387  0.9863
   38MOL   H43727891   4.181   1.279   3.673 -0.6796 -0.6829  1.3187
   38MOL   H43827892   4.330   1.281   3.614 -0.9261  3.4629  2.8267
   38MOL   H43927893   4.443   1.149   3.777 -1.1878 -1.9517 -1.3936
   38MOL   H44027894   4.287   1.110   3.850 -0.7443  0.0131 -1.0759
   38MOL   H44127895   4.247   1.362   3.896  0.4624  0.5369 -1.2224
   38MOL   H44227896   4.397   1.390   3.834 -2.9145  1.6571 -0.6069
   38MOL   H44327897   4.400   1.415   4.066 -0.6120 -0.2950 -0.1639
   38MOL   H44427898   4.497   1.264   4.047  0.5954  1.2376 -1.4665
   38MOL   H44527899   4.226   1.278   4.145  0.7318 -0.4568  3.5764
   38MOL   C44627900   4.339   1.108   4.161 -0.2602  0.1508  0.4358
   38MOL   O44727901   4.448   1.052   4.142  0.2949 -0.0872  0.3007
   38MOL   C44827902   4.225   1.044   4.241 -0.6629  0.7453 -0.2060
   38MOL   C44927903   4.148   0.934   4.164  0.0852 -0.7479 -0.1507
   38MOL   C45027904   4.029   0.992   4.074 -0.2846  0.3810 -0.7555
   38MOL   C45127905   3.898   1.021   4.146 -0.6888  0.2128 -0.1431
   38MOL   C45227906   3.780   1.068   4.047  0.5126  0.0838 -0.4580
   38MOL   C45327907   3.648   1.101   4.113  0.1949  0.0268 -0.5004
   38MOL   C45427908   3.660   1.209   4.225  0.1728  0.5999  0.0282
   38MOL   C45527909   3.534   1.255   4.285  0.4258 -0.0122 -0.6267
   38MOL   C45627910   3.558   1.361   4.401 -0.3085  0.5874 -0.6106
   38MOL   C45727911   3.582   1.503   4.362 -0.0691  0.3967 -0.5478
   38MOL   C45827912   3.587   1.600   4.485  0.3065 -0.2945 -0.3548
   38MOL   N45927913   3.620   1.742   4.448 -0.5165  0.2265  0.3657
   38MOL   H46027914   4.167   1.128   4.279  0.3051  1.2128  0.2513
   38MOL   H46127915   4.273   1.002   4.329 -0.2465 -0.9542 -1.2180
   38MOL   H46227916   4.221   0.891   4.095  1.9000  1.4531  0.3645
   38MOL   H46327917   4.115   0.855   4.232  1.7159 -0.3461  1.1417
   38MOL   H46427918   4.021   0.927   3.988  2.8980  1.8563 -2.2458
   38MOL   H46527919   4.075   1.086   4.043 -0.8322  1.2150  0.8885
   38MOL   H46627920   3.867   0.929   4.194  2.0431 -0.0451  1.2641
   38MOL   H46727921   3.906   1.103   4.218 -2.8458  0.6711 -0.4045
   38MOL   H46827922   3.765   0.989   3.973  3.7854 -1.6071  0.5559
   38MOL   H46927923   3.820   1.152   3.990  0.8863  0.7484  0.7733
   38MOL   H47027924   3.605   1.009   4.153 -1.5297  1.1374  0.2915
   38MOL   H47127925   3.587   1.135   4.029 -0.1146 -0.3214 -0.4208
   38MOL   H47227926   3.724   1.287   4.184 -1.0927  1.8108  0.3045
   38MOL   H47327927   3.723   1.170   4.304  2.3635 -0.2403 -2.0687
   38MOL   H47427928   3.480   1.172   4.331  0.1680 -1.0447 -2.7418
   38MOL   H47527929   3.473   1.304   4.210 -0.7677 -0.3088  0.1481
   38MOL   H47627930   3.648   1.336   4.456  0.3111  1.6228 -1.1263
   38MOL   H47727931   3.473   1.353   4.469 -2.4140 -0.6300 -3.3150
   38MOL   H47827932   3.497   1.536   4.303  0.2667 -0.1232 -1.3353
   38MOL   H47927933   3.678   1.512   4.312 -0.6934 -2.0395 -2.2475
   38MOL   H48027934   3.655   1.568   4.563 -1.7537 -0.4418  1.4478
   38MOL   H48127935   3.492   1.592   4.539 -0.2785  1.4596 -1.0747
   38MOL   H48227936   3.551   1.814   4.463 -0.8539 -0.0293  0.0477
   38MOL   C48327937   3.747   1.790   4.427  0.2665 -0.4651 -0.2745
   38MOL   O48427938   3.842   1.714   4.430 -0.1412  0.2743  0.0807
   38MOL   C48527939   3.764   1.938   4.387  0.0960  0.0876 -0.4761
   38MOL   C48627940   3.908   1.958   4.340  0.2090  0.7348 -0.1658
   38MOL   C48727941   4.005   1.962   4.461  0.2301  0.1005  0.0397
   38MOL   C48827942   4.150   1.977   4.418  0.2966  0.2850  0.3822
   38MOL   C48927943   4.252   1.971   4.534 -0.1654 -0.3290  0.1072
   38MOL   C49027944   4.389   2.046   4.507 -0.2252 -0.1090  0.0668
   38MOL   C49127945   4.493   2.033   4.619  0.2123 -0.3979  0.3215
   38MOL   C49227946   4.603   2.132   4.586  0.1498  0.0419 -0.4440
   38MOL   C49327947   4.688   2.156   4.702 -0.1372  0.6588 -0.4059
   38MOL   C49427948   4.814   2.239   4.681 -0.6824  0.0780 -0.1523
   38MOL   C49527949   4.897   2.274   4.804  0.3354 -0.3348 -0.5337
   38MOL   N49627950   4.826   2.359   4.903 -0.5777 -0.2740 -0.3718
   38MOL   H49727951   3.758   2.009   4.470 -0.3715  1.4897 -1.6978
   38MOL   H49827952   3.689   1.960   4.312 -0.5261  1.7497  0.5982
   38MOL   H49927953   3.936   1.880   4.270  0.9782  0.4221  0.4826
   38MOL   H50027954   3.914   2.053   4.287 -2.1453  1.2628  0.4703
   38MOL   H50127955   4.005   1.874   4.524 -1.9114 -0.6074 -0.9097
   38MOL   H50227956   3.985   2.050   4.523 -0.8376  1.0586 -1.6088
   38MOL   H50327957   4.186   1.895   4.355  1.8146  0.7685  0.5993
   38MOL   H50427958   4.155   2.072   4.366  1.5265  1.0174  1.7974
   38MOL   H50527959   4.270   1.869   4.567  1.3760  0.1575  0.7840
   38MOL   H50627960   4.205   2.013   4.624  1.3377  4.0470 -1.0342
   38MOL   H50727961   4.376   2.151   4.483  0.9401  0.3495  1.3693
   38MOL   H50827962   4.431   2.006   4.414 -3.4250 -0.0791 -1.4527
   38MOL   H50927963   4.516   1.932   4.652 -1.2667 -0.7497  0.2972
   38MOL   H51027964   4.433   2.067   4.703  0.2827  2.9048 -0.8823
   38MOL   H51127965   4.573   2.229   4.546 -0.3802  0.2332  0.4055
   38MOL   H51227966   4.668   2.090   4.509 -1.9791 -2.0691 -1.1381
   38MOL   H51327967   4.722   2.065   4.750  0.5184  0.5207 -1.1243
   38MOL   H51427968   4.625   2.201   4.779  0.6833  1.0004  0.0716
   38MOL   H51527969   4.770   2.330   4.641 -1.6988 -0.2428  0.2307
   38MOL   H51627970   4.881   2.201   4.603 -0.1293 -3.9904  2.1681
   38MOL   H51727971   4.978   2.341   4.776 -0.5423  2.1556  2.6085
   38MOL   H51827972   4.954   2.192   4.846 -0.3978 -0.6528 -0.1596
   38MOL   H51927973   4.741   2.406   4.878 -1.9681 -1.9978  0.9584
   38MOL   C52027974   4.864   2.393   5.027 -0.1113 -0.1278  0.5595
   38MOL   O52127975   4.962   2.338   5.078  0.8653  0.3181  0.0837
   38MOL   C52227976   4.793   2.524   5.079 -0.2095  0.0108 -0.6855
   38MOL   C52327977   4.841   2.583   5.214  0.4334 -1.2455  0.4576
   38MOL   C52427978   4.818   2.500   5.335  0.0642  0.4100 -0.5565
   38MOL   C52527979   4.679   2.449   5.374 -0.4369  0.2663 -0.7991
   38MOL   C52627980   4.579   2.553   5.424  0.1142 -0.7762 -0.8299
   38MOL   C52727981   4.434   2.504   5.450 -0.2388 -0.1698 -0.1085
   38MOL   C52827982   4.352   2.461   5.336  0.4103  0.2372  0.2090
   38MOL   C52927983   4.232   2.366   5.378  0.5205 -0.4117 -0.1981
   38MOL   C53027984   4.104   2.431   5.442  0.3031  0.1151  0.8769
   38MOL   C53127985   4.008   2.319   5.501 -0.1107 -0.3026 -0.2879
   38MOL   C53227986   3.861   2.367   5.507 -0.1015  0.1496  0.3552
   38MOL   N53327987   3.780   2.312   5.614  0.6170  0.3432  0.4818
   38MOL   H53427988   4.690   2.486   5.079  0.2948 -1.4561  0.8015
   38MOL   H53527989   4.795   2.607   5.009 -2.5818 -0.0547 -0.8938
   38MOL   H53627990   4.942   2.620   5.201 -0.7569  1.9434 -0.3507
   38MOL   H53727991   4.784   2.674   5.236  0.8247 -0.6178 -1.0342
   38MOL   H53827992   4.860   2.558   5.417  0.5265 -0.0279 -0.4787
   38MOL   H53927993   4.882   2.412   5.335 -0.9985 -0.3654 -0.9987
   38MOL   H54027994   4.643   2.393   5.288  1.5244 -2.4517  0.0723
   38MOL   H54127995   4.678   2.383   5.460  0.3564  0.3677 -0.7087
   38MOL   H54227996   4.579   2.628   5.345  2.5406  1.4089  1.1641
   38MOL   H54327997   4.617   2.615   5.504 -1.2626  0.4001 -1.0730
   38MOL   H54427998   4.383   2.582   5.507  1.7777  1.7693 -0.8970
   38MOL   H54527999   4.437   2.426   5.526  0.1206 -0.3178 -0.2730
   38MOL   H54628000   4.415   2.408   5.264 -2.2970  0.1031 -2.1432
   38MOL   H54728001   4.322   2.555   5.289  0.3551 -0.4185 -1.0840
   38MOL   H54828002   4.264   2.275   5.428  1.0636 -1.0182 -1.6121
   38MOL   H54928003   4.204   2.315   5.285  3.1798  0.4587 -1.5357
   38MOL   H55028004   4.055   2.491   5.365 -0.8222 -1.3204  0.4411
   38MOL   H55128005   4.129   2.504   5.518 -0.1912 -0.4758  1.6171
   38MOL   H55228006   4.034   2.283   5.600  0.2992  0.9100  0.0602
   38MOL   H55328007   4.019   2.229   5.441  0.3296 -1.0730  0.9377
   38MOL   H55428008   3.806   2.347   5.415 -2.6180 -2.3202  2.3342
   38MOL   H55528009   3.857   2.475   5.518 -1.4111  0.0654  0.7712
   38MOL   H55628010   3.827   2.254   5.683 -0.2386  0.3545  1.0788
   38MOL   C55728011   3.649   2.315   5.626  0.5702  0.0680  0.5465
   38MOL   O55828012   3.572   2.380   5.561  0.2665  0.4088  0.2224
   38MOL   C55928013   3.596   2.221   5.732  0.4014  0.3003 -0.3537
   38MOL   C56028014   3.524   2.289   5.844 -0.7842 -0.0887  0.1946
   38MOL   C56128015   3.507   2.189   5.965  0.1157  0.2850  0.3470
   38MOL   C56228016   3.431   2.255   6.082  0.0136  1.0516 -0.1997
   38MOL   C56328017   3.295   2.323   6.056  0.1474 -0.0714 -0.6367
   38MOL   C56428018   3.229   2.379   6.181 -0.4666  0.0927  0.1483
   38MOL   C56528019   3.307   2.512   6.234 -0.9169  0.5331  0.2694
   38MOL   C56628020   3.251   2.587   6.357 -0.9018 -0.7601  0.3878
   38MOL   C56728021   3.099   2.590   6.373 -0.3074  0.4084  0.0083
   38MOL   C56828022   3.034   2.697   6.284  0.1540 -0.2593  0.6035
   38MOL   C56928023   2.881   2.717   6.298 -0.2233  0.1534 -0.6470
   38MOL   N57028024   2.811   2.616   6.230 -0.5997 -0.2757 -0.8970
   38MOL   H57128025   3.680   2.162   5.769  0.4862  1.2286  0.9953
   38MOL   H57228026   3.527   2.153   5.682  0.2844 -0.8471  1.2929
   38MOL   H57328027   3.569   2.386   5.868  0.1087 -0.4323 -0.0401
   38MOL   H57428028   3.432   2.324   5.799  0.2294  1.3870 -0.7815
   38MOL   H57528029   3.608   2.160   5.993  0.8761  1.5419 -1.0327
   38MOL   H57628030   3.455   2.095   5.943  0.2559  0.0013  1.1946
   38MOL   H57728031   3.410   2.177   6.155  1.1125  1.6225  0.7302
   38MOL   H57828032   3.500   2.315   6.140  0.3875 -0.2168  0.6871
   38MOL   H57928033   3.229   2.241   6.028 -1.4276  0.3502  1.7707
   38MOL   H58028034   3.298   2.404   5.983 -0.3805  0.5203 -0.0068
   38MOL   H58128035   3.239   2.319   6.271  3.8679  2.8094  1.6323
   38MOL   H58228036   3.128   2.402   6.146 -0.8152 -0.2443  0.9292
   38MOL   H58328037   3.297   2.588   6.157  0.5175 -0.4281 -0.8892
   38MOL   H58428038   3.412   2.498   6.260 -0.4899 -0.9209 -2.1032
   38MOL   H58528039   3.292   2.687   6.367  0.0208 -1.1048  0.1275
   38MOL   H58628040   3.302   2.530   6.435 -2.7206  0.5466  2.5979
   38MOL   H58728041   3.081   2.608   6.479 -1.2648 -0.8882  0.0757
   38MOL   H58828042   3.059   2.489   6.369  0.0078  0.2673  0.3502
   38MOL   H58928043   3.070   2.685   6.182 -1.4733 -0.8265  0.0816
   38MOL   H59028044   3.078   2.793   6.311  0.0685 -1.0020  3.6396
   38MOL   H59128045   2.857   2.816   6.261 -0.1288  0.3684 -0.1285
   38MOL   H59228046   2.851   2.716   6.403  1.1703  1.2410 -0.2305
   38MOL   H59328047   2.757   2.554   6.288  0.5866 -1.1845 -0.7413
   38MOL   C59428048   2.821   2.589   6.099  0.4610 -0.6121 -0.1309
   38MOL   O59528049   2.864   2.668   6.018 -0.8462  0.0354  0.0046
   38MOL   C59628050   2.749   2.457   6.052 -0.1433  0.2659 -0.0895
   38MOL   C59728051   2.786   2.405   5.912  0.6200 -0.2357 -0.0207
   38MOL   C59828052   2.926   2.353   5.909 -0.6395 -0.2098 -1.1809
   38MOL   C59928053   2.949   2.276   5.775  0.4399  0.2866 -1.1092
   38MOL   C60028054   3.096   2.256   5.734  0.2279 -0.3196  0.6432
   38MOL   C60128055   3.117   2.216   5.587  0.0362  0.2336 -0.6246
   38MOL   C60228056   3.268   2.215   5.547 -0.4034  0.3316  0.5401
   38MOL   C60328057   3.296   2.214   5.397 -0.1046 -0.8954  0.2933
   38MOL   C60428058   3.263   2.085   5.317  0.3833 -0.7244 -0.3691
   38MOL   C60528059   3.299   2.110   5.168 -0.0117  0.3296  0.0785
   38MOL   C60628060   3.277   1.998   5.079  0.3166  0.4739 -0.5122
   38MOL   N60728061   3.143   1.963   5.065  0.0426  0.2321  0.0379
   38MOL   H60828062   2.643   2.485   6.046 -0.3134  0.2176  2.3536
   38MOL   H60928063   2.751   2.372   6.120 -1.1401 -0.7063 -1.2542
   38MOL   H61028064   2.711   2.328   5.890 -1.9714  2.1322  0.3114
   38MOL   H61128065   2.778   2.485   5.839 -0.0436  0.4193  0.7642
   38MOL   H61228066   2.949   2.299   6.001 -0.6834  1.9761  0.1338
   38MOL   H61328067   2.995   2.435   5.923 -0.5815 -0.5854  0.9475
   38MOL   H61428068   2.899   2.181   5.795 -1.3331  1.5204  0.4455
   38MOL   H61528069   2.894   2.330   5.698 -0.7445  1.5142  0.5750
   38MOL   H61628070   3.134   2.183   5.806  0.2956  0.6241  1.5819
   38MOL   H61728071   3.143   2.354   5.744 -0.2995  0.1328 -1.2501
   38MOL   H61828072   3.090   2.299   5.521  0.0630  0.2621 -0.5996
   38MOL   H61928073   3.064   2.123   5.567  1.2463 -0.5883 -0.0301
   38MOL   H62028074   3.319   2.139   5.607 -0.2172  1.5257  1.9204
   38MOL   H62128075   3.303   2.312   5.582  2.6297 -0.1893 -0.9209
   38MOL   H62228076   3.403   2.233   5.387 -0.6295  1.5666 -1.2385
   38MOL   H62328077   3.242   2.295   5.348 -0.5802 -0.8583  0.8801
   38MOL   H62428078   3.158   2.064   5.340  0.1879  0.5381 -0.0412
   38MOL   H62528079   3.320   2.007   5.368 -0.1460  0.2738  1.8142
   38MOL   H62628080   3.405   2.133   5.165  0.4136 -1.8281 -2.4491
   38MOL   H62728081   3.251   2.198   5.124  1.7529  0.7033 -1.1166
   38MOL   H62828082   3.331   1.907   5.104  0.8286  0.8413 -0.2501
   38MOL   H62928083   3.320   2.020   4.981 -0.0644  0.1660 -0.7467
   38MOL   H63028084   3.079   2.035   5.096  1.9917  1.4970  1.2752
   38MOL   C63128085   3.100   1.847   5.020  0.5794 -0.3957 -0.1490
   38MOL   O63228086   3.175   1.773   4.962 -0.4161 -0.1030  0.1167
   38MOL   C63328087   2.952   1.813   5.036  0.6144  0.1788  0.1550
   38MOL   C63428088   2.892   1.721   4.924  0.2723  0.0111 -0.2844
   38MOL   C63528089   2.926   1.572   4.932  0.0253 -0.2264  0.0065
   38MOL   C63628090   2.881   1.502   4.800 -0.1272  0.6745 -0.0221
   38MOL   C63728091   2.892   1.348   4.788 -0.7122  0.2723 -0.1518
   38MOL   C63828092   3.016   1.285   4.847  0.3740  0.6891  0.0732
   38MOL   C63928093   3.154   1.343   4.794 -0.0729  0.5864 -0.6087
   38MOL   C64028094   3.277   1.268   4.845 -0.2449  0.1764 -0.2343
   38MOL   C64128095   3.393   1.327   4.782 -0.4396 -0.6699  0.0669
   38MOL   C64228096   3.526   1.280   4.842  0.4142  0.6287 -0.4488
   38MOL   C64328097   3.653   1.320   4.774  0.3528 -0.0948 -0.3554
   38MOL   N64428098   3.765   1.313   4.870 -0.1036 -0.2111 -0.1047
   38MOL   H64528099   2.883   1.897   5.031  0.9887  0.4434 -0.8324
   38MOL   H64628100   2.941   1.760   5.130 -2.2462  0.3923 -0.0172
   38MOL   H64728101   2.787   1.747   4.918  0.8057  2.1323 -0.5493
   38MOL   H64828102   2.928   1.748   4.825  0.8267 -1.3957 -0.4899
   38MOL   H64928103   2.871   1.529   5.016 -1.4026  1.1494 -0.1919
   38MOL   H65028104   3.026   1.546   4.965 -0.0423  1.1666  1.3653
   38MOL   H65128105   2.780   1.527   4.769  1.4234  3.1309 -3.4108
   38MOL   H65228106   2.933   1.539   4.712 -2.6204 -0.3271 -1.9664
   38MOL   H65328107   2.873   1.317   4.685  1.6961 -0.2071 -0.5013
   38MOL   H65428108   2.812   1.285   4.826  0.9552 -1.4161  0.7023
   38MOL   H65528109   3.021   1.176   4.834  3.3330  0.9565 -1.3928
   38MOL   H65628110   3.014   1.305   4.954 -1.1533 -0.9780  0.3951
   38MOL   H65728111   3.179   1.449   4.800 -0.8759  0.8599 -1.9909
   38MOL   H65828112   3.149   1.338   4.685  1.7299  1.4535 -0.7468
   38MOL   H65928113   3.266   1.161   4.828 -0.7302  0.1166  0.4260
   38MOL   H66028114   3.283   1.265   4.954 -1.4661 -1.1965 -0.1887
   38MOL   H66128115   3.400   1.435   4.792 -1.3970 -0.7730  2.2561
   38MOL   H66228116   3.388   1.316   4.674  1.4433 -2.4557  0.1392
   38MOL   H66328117   3.529   1.172   4.848  0.0074  0.6890  0.9600
   38MOL   H66428118   3.535   1.302   4.948  2.9162  1.3006 -0.7475
   38MOL   H66528119   3.657   1.422   4.736 -0.1402  0.4506  1.0509
   38MOL   H66628120   3.676   1.259   4.686  0.1667  0.5216 -0.8353
   38MOL   H66728121   3.835   1.242   4.853  1.6028  1.1278  1.2637
   38MOL   C66828122   3.791   1.403   4.963  0.3278  0.0274 -0.9987
   38MOL   O66928123   3.725   1.505   4.981  0.2700 -0.6992  0.1161
   38MOL   C67028124   3.912   1.385   5.047  0.1881  0.0202 -0.1605
   38MOL   C67128125   3.934   1.500   5.151  0.0497  0.4802 -0.1484
   38MOL   C67228126   4.064   1.470   5.233  0.2935  0.0715 -0.3208
   38MOL   C67328127   4.069   1.550   5.361  0.7796 -0.1632  0.3980
   38MOL   C67428128   4.003   1.473   5.474 -0.2620  0.1913 -0.2738
   38MOL   C67528129   4.027   1.547   5.607  0.2964 -0.0876 -0.3648
   38MOL   C67628130   3.974   1.486   5.740 -0.3630  0.5434 -0.8139
   38MOL   C67728131   3.993   1.581   5.864  0.0014  0.0994  0.3488
   38MOL   C67828132   3.946   1.522   5.999 -0.1455 -0.2563 -0.1291
   38MOL   C67928133   3.996   1.607   6.117  0.2567  0.5867 -0.6869
   38MOL   C68028134   3.945   1.558   6.261  0.5347  0.3052 -0.1185
   38MOL   N68128135   4.017   1.438   6.295 -0.0204  0.7575  0.1368
   38MOL   H68228136   3.995   1.373   4.977 -0.6056 -3.6157 -0.5614
   38MOL   H68328137   3.901   1.291   5.101  1.1604 -1.0121 -1.7212
   38MOL   H68428138   3.946   1.598   5.104 -0.1837  0.9889  0.8417
   38MOL   H68528139   3.843   1.506   5.212 -0.2476  0.2381 -0.5628
   38MOL   H68628140   4.138   1.507   5.163 -2.2777 -0.9138 -3.7173
   38MOL   H68728141   4.087   1.366   5.255 -0.5989  0.2012  1.3683
   38MOL   H68828142   4.175   1.572   5.371  0.5795  1.2427 -0.3926
   38MOL   H68928143   4.021   1.648   5.351  0.8224 -0.2043 -0.2555
   38MOL   H69028144   4.056   1.378   5.479  1.3878  1.1556  0.8414
   38MOL   H69128145   3.895   1.466   5.457 -0.3893  0.7664  0.2827
   38MOL   H69228146   3.996   1.651   5.597  1.7465  0.3806 -0.1860
   38MOL   H69328147   4.134   1.559   5.623  0.0656 -0.2780  1.5419
   38MOL   H69428148   4.035   1.396   5.749  0.2130  1.0775  0.6580
   38MOL   H69528149   3.868   1.460   5.736 -0.1561 -0.3302 -0.6545
   38MOL   H69628150   3.952   1.680   5.846  1.5204  0.4144 -1.4278
   38MOL   H69728151   4.101   1.592   5.869 -0.1536  2.1474 -0.5218
   38MOL   H69828152   3.990   1.423   6.011  1.1546  0.5571  2.1241
   38MOL   H69928153   3.839   1.505   6.008 -0.0373 -1.8627 -1.5710
   38MOL   H70028154   3.978   1.714   6.103 -1.0664  0.4578 -0.0672
   38MOL   H70128155   4.105   1.606   6.114  0.2260  1.7129 -3.9690
   38MOL   H70228156   3.836   1.555   6.264  0.5205  0.0718 -0.7990
   38MOL   H70328157   3.971   1.633   6.335 -2.0430  0.5379  0.6009
   38MOL   H70428158   4.087   1.412   6.227 -0.2826  0.3277  0.0266
   38MOL   C70528159   4.006   1.360   6.406  0.2154  0.0061  0.4141
   38MOL   O70628160   3.918   1.381   6.494 -0.0711 -0.4983  0.2767
   38MOL   C70728161   4.116   1.258   6.423 -0.6413 -0.6872  0.6125
   38MOL   C70828162   4.121   1.192   6.563  0.1210 -0.1856  0.5519
   38MOL   C70928163   4.233   1.077   6.581 -0.5986 -0.0743  0.3830
   38MOL   C71028164   4.379   1.101   6.538  0.6211 -0.4393  0.1579
   38MOL   C71128165   4.466   0.989   6.606  0.1589  0.4364 -0.6769
   38MOL   C71228166   4.603   0.974   6.548  0.3798 -0.5198 -0.3786
   38MOL   C71328167   4.681   1.104   6.556 -0.0129  0.6681  0.4014
   38MOL   C71428168   4.833   1.093   6.530  0.2658 -0.1394 -0.3799
   38MOL   C71528169   4.916   1.220   6.553  0.1763 -0.1059  0.0880
   38MOL   C71628170   5.061   1.184   6.526  0.3541  0.0584  0.4892
   38MOL   C71728171   5.149   1.303   6.534  0.1973  0.4168  0.3277
   38MOL   N71828172   5.286   1.255   6.542 -0.1130 -0.2248 -0.1729
   38MOL   H71928173   4.210   1.309   6.403 -1.4548  0.2280 -0.9121
   38MOL   H72028174   4.112   1.174   6.353 -0.4247  0.2923 -0.5870
   38MOL   H72128175   4.134   1.265   6.643 -3.3654  1.4737 -0.3058
   38MOL   H72228176   4.028   1.138   6.585  0.3097 -0.5181  0.5414
   38MOL   H72328177   4.196   0.991   6.526 -2.3073 -0.5973  2.3156
   38MOL   H72428178   4.228   1.048   6.686  1.8829  2.1228  1.1707
   38MOL   H72528179   4.386   1.084   6.431 -0.9852  0.1432 -0.0626
   38MOL   H72628180   4.408   1.203   6.562  1.0793 -0.5634  0.1293
   38MOL   H72728181   4.412   0.895   6.595 -1.3404  1.1622  0.3163
   38MOL   H72828182   4.464   1.006   6.714  1.0571  1.3160 -0.7794
   38MOL   H72928183   4.598   0.925   6.451 -1.5579  2.5237 -1.8879
   38MOL   H73028184   4.647   0.900   6.615 -0.3783 -0.1112  0.5822
   38MOL   H73128185   4.680   1.132   6.662 -2.4374 -0.8445  0.8015
   38MOL   H73228186   4.632   1.181   6.496 -0.0656 -1.2118 -2.0247
   38MOL   H73328187   4.838   1.057   6.428 -0.9337 -1.3124 -0.0312
   38MOL   H73428188   4.879   1.010   6.584  0.3787 -1.1659 -2.0208
   38MOL   H73528189   4.902   1.256   6.655 -2.2905  2.0664 -0.9571
   38MOL   H73628190   4.878   1.297   6.486  2.1610  0.8956  0.0973
   38MOL   H73728191   5.066   1.145   6.424  2.0670 -0.0856  0.6086
   38MOL   H73828192   5.083   1.100   6.591 -1.5119 -2.4458 -1.9851
   38MOL   H73928193   5.140   1.346   6.634  0.5832 -0.3086  0.6783
   38MOL   H74028194   5.124   1.363   6.447 -2.3957  0.1348  0.8330
   38MOL   H74128195   5.293   1.213   6.451  1.2004 -1.6403  0.5527
   38MOL   H74228196   5.302   1.185   6.614  1.6263  0.3127 -0.0144
   39MOL     C128197   5.835   0.330   2.116  0.7268 -0.0987 -0.6165
   39MOL     O228198   5.741   0.396   2.153 -0.4885 -0.5114  0.6844
   39MOL     C328199   5.981   0.341   2.159 -0.5000 -0.8807 -0.1976
   39MOL     C428200   6.029   0.479   2.206 -0.0890 -0.8284  1.1732
   39MOL     C528201   6.089   0.572   2.096  0.4631  0.1857  0.1805
   39MOL     C628202   6.232   0.540   2.047 -1.1235  0.1909 -0.2738
   39MOL     C728203   6.298   0.648   1.954 -0.2315  0.4987 -0.3602
   39MOL     C828204   6.422   0.583   1.890 -0.0091  0.1040 -0.2248
   39MOL     C928205   6.488   0.666   1.782 -0.4443 -0.2223  0.3110
   39MOL    C1028206   6.617   0.603   1.722  0.1417  0.5402  1.0020
   39MOL    C1128207   6.656   0.681   1.602  0.1445  0.1030  0.4058
   39MOL    C1228208   6.764   0.616   1.524  0.0450 -0.4926  0.4039
   39MOL    C1328209   6.791   0.695   1.396  0.0069 -0.0283  0.2512
   39MOL    N1428210   6.901   0.640   1.320  0.5017  0.5546 -0.3917
   39MOL    H1528211   6.045   0.306   2.079 -1.2884 -0.1609 -1.1572
   39MOL    H1628212   5.998   0.266   2.236  0.6686 -0.8507 -0.4213
   39MOL    H1728213   5.955   0.535   2.264 -0.4583  2.4145 -2.2044
   39MOL    H1828214   6.110   0.471   2.278  2.4044  0.3502 -1.3728
   39MOL    H1928215   6.083   0.676   2.127 -0.3025  0.2558 -0.1942
   39MOL    H2028216   6.026   0.565   2.007  1.2722 -0.2127 -0.3685
   39MOL    H2128217   6.298   0.517   2.131  0.7716 -0.0953 -1.8290
   39MOL    H2228218   6.224   0.448   1.989 -2.3762  0.8289 -1.1489
   39MOL    H2328219   6.330   0.736   2.010  1.2810 -0.5195  0.4307
   39MOL    H2428220   6.225   0.680   1.880  1.1852  0.1935 -1.9286
   39MOL    H2528221   6.402   0.481   1.859 -0.1669  0.2286 -0.5441
   39MOL    H2628222   6.493   0.579   1.972 -1.0218  0.0497  0.6513
   39MOL    H2728223   6.504   0.768   1.818  0.1327 -0.5303  0.9345
   39MOL    H2828224   6.416   0.683   1.702 -0.4183 -1.7120 -0.0408
   39MOL    H2928225   6.599   0.500   1.692 -0.6542  0.8439  0.4011
   39MOL    H3028226   6.692   0.603   1.800  1.6794  0.8553 -0.4485
   39MOL    H3128227   6.686   0.782   1.629  1.0657  0.0518 -0.4202
   39MOL    H3228228   6.569   0.705   1.541 -1.2413  0.8920  2.6316
   39MOL    H3328229   6.738   0.514   1.495  0.3171 -0.3276 -0.4556
   39MOL    H3428230   6.853   0.613   1.587 -0.1058 -1.5589  0.5709
   39MOL    H3528231   6.804   0.802   1.410  0.6348 -0.1662  0.7687
   39MOL    H3628232   6.706   0.684   1.329  0.3360  0.3340 -0.2249
   39MOL    H3728233   6.882   0.547   1.286 -0.4442  0.7287 -0.3513
   39MOL    H3828234   5.805   0.243   2.059 -1.0387 -1.0274  1.6335
   39MOL    C3928235   7.023   0.682   1.308 -0.5109  0.3614  0.0431
   39MOL    O4028236   7.053   0.797   1.349  0.0181  0.2302  0.4120
   39MOL    C4128237   7.120   0.603   1.227 -0.4993 -0.1307  0.2128
   39MOL    C4228238   7.170   0.690   1.108 -0.1332 -0.2468 -0.2526
   39MOL    C4328239   7.297   0.630   1.034 -0.7425  0.1626  0.7454
   39MOL    C4428240   7.344   0.713   0.912 -0.1785  0.9099 -0.4908
   39MOL    C4528241   7.241   0.710   0.790 -0.1140 -0.4140  0.2934
   39MOL    C4628242   7.296   0.797   0.674  0.4285 -0.0798 -0.6602
   39MOL    C4728243   7.196   0.814   0.554 -1.0514 -0.8585  0.4065
   39MOL    C4828244   7.053   0.866   0.582 -0.2064  0.9593 -0.6049
   39MOL    C4928245   6.953   0.842   0.464  0.4526  0.3653 -0.2176
   39MOL    C5028246   6.820   0.909   0.493 -0.2754 -0.2933  0.4179
   39MOL    C5128247   6.710   0.907   0.386  1.2534 -0.1117  0.2787
   39MOL    N5228248   6.586   0.974   0.420 -0.2067  0.4384  0.3267
   39MOL    H5328249   7.062   0.522   1.184 -1.0349  1.2321 -1.7198
   39MOL    H5428250   7.201   0.576   1.294 -0.5514 -1.6473 -0.3291
   39MOL    H5528251   7.089   0.701   1.035 -0.4700  1.8719  0.3954
   39MOL    H5628252   7.178   0.791   1.149  0.5039 -0.9293  1.3458
   39MOL    H5728253   7.278   0.527   1.007 -0.6162  0.1653  0.6477
   39MOL    H5828254   7.378   0.617   1.106  0.2276 -0.2472 -0.4097
   39MOL    H5928255   7.364   0.819   0.929 -0.0939  0.9503 -0.8268
   39MOL    H6028256   7.444   0.680   0.884  0.2680  0.0713  1.9877
   39MOL    H6128257   7.138   0.736   0.811  0.4760  2.3807 -0.0373
   39MOL    H6228258   7.241   0.608   0.751 -1.8579 -0.2900 -0.0774
   39MOL    H6328259   7.387   0.755   0.633  0.0878  0.4311 -1.9501
   39MOL    H6428260   7.318   0.900   0.703 -0.0452  0.5708 -2.5764
   39MOL    H6528261   7.183   0.709   0.526  1.7704 -1.1359  0.0550
   39MOL    H6628262   7.248   0.863   0.471  2.8605 -1.2245  2.5450
   39MOL    H6728263   7.054   0.972   0.610 -0.1861  1.1715 -1.3901
   39MOL    H6828264   7.017   0.820   0.674  1.6251  0.0800 -0.2961
   39MOL    H6928265   6.936   0.737   0.440 -1.9127  0.3652  1.3843
   39MOL    H7028266   6.991   0.894   0.376  1.0651 -0.8047 -0.6670
   39MOL    H7128267   6.838   1.011   0.526  0.4034 -0.0746 -0.6023
   39MOL    H7228268   6.771   0.874   0.584 -0.6619  2.1376  1.1773
   39MOL    H7328269   6.694   0.801   0.364  0.8812 -0.1080  0.5316
   39MOL    H7428270   6.749   0.935   0.288 -0.5309  0.7421 -0.1959
   39MOL    H7528271   6.510   0.911   0.443 -0.1914 -0.2492 -1.4268
   39MOL    C7628272   6.552   1.097   0.397  0.1640 -0.2102  0.3869
   39MOL    O7728273   6.624   1.175   0.335  0.0874 -0.2885 -0.1288
   39MOL    C7828274   6.401   1.127   0.421  0.6102 -1.0117  0.2246
   39MOL    C7928275   6.363   1.267   0.369  0.4931  0.6236  0.1372
   39MOL    C8028276   6.223   1.313   0.401 -0.8381  0.0849 -0.2304
   39MOL    C8128277   6.201   1.344   0.554  0.3104  0.2639  0.7106
   39MOL    C8228278   6.056   1.402   0.583 -0.8922  0.6477  0.4313
   39MOL    C8328279   6.047   1.425   0.740  0.2992 -0.2386  0.5026
   39MOL    C8428280   6.116   1.549   0.792  0.0766 -0.0070  0.4443
   39MOL    C8528281   6.087   1.563   0.944  0.2540 -0.4260  0.4094
   39MOL    C8628282   6.141   1.688   1.022 -0.6092  0.2883 -0.4113
   39MOL    C8728283   6.293   1.688   1.054 -0.1003  0.1529 -0.5175
   39MOL    C8828284   6.332   1.840   1.064 -0.3718 -0.6693  0.6252
   39MOL    N8928285   6.474   1.866   1.068  0.3098 -0.4693 -0.4192
   39MOL    H9028286   6.390   1.117   0.529  1.1071  0.4858  0.4307
   39MOL    H9128287   6.340   1.053   0.369  2.2190 -0.8364 -1.9300
   39MOL    H9228288   6.436   1.342   0.400  0.0761  0.7799  0.7482
   39MOL    H9328289   6.376   1.273   0.261 -1.2561 -3.1467 -0.3476
   39MOL    H9428290   6.144   1.248   0.364 -0.8867  0.0180 -0.0119
   39MOL    H9528291   6.210   1.410   0.352 -0.8580  1.2041  1.9234
   39MOL    H9628292   6.228   1.258   0.614  2.7342 -0.0125 -0.6921
   39MOL    H9728293   6.273   1.419   0.587  2.9129 -1.4443 -0.9165
   39MOL    H9828294   5.981   1.327   0.557  0.8640 -1.0260  0.1434
   39MOL    H9928295   6.044   1.497   0.531 -3.7513  0.2449  0.2541
   39MOL   H10028296   6.082   1.334   0.787  0.2404 -0.5775 -0.0974
   39MOL   H10128297   5.943   1.425   0.774  0.6885  2.6295  1.8578
   39MOL   H10228298   6.075   1.637   0.742 -0.1929 -0.3116  0.1317
   39MOL   H10328299   6.219   1.551   0.755 -0.9016 -2.2033 -2.5925
   39MOL   H10428300   6.137   1.473   0.979  0.8968 -0.4951 -0.6714
   39MOL   H10528301   5.979   1.557   0.958 -0.1606 -0.8025 -2.5429
   39MOL   H10628302   6.092   1.703   1.118 -1.3807 -0.5825 -0.6635
   39MOL   H10728303   6.094   1.775   0.975  0.5116  0.2018 -1.7332
   39MOL   H10828304   6.356   1.633   0.985  0.3773 -1.5225  1.2325
   39MOL   H10928305   6.299   1.646   1.155  1.0567 -0.5207 -0.8610
   39MOL   H11028306   6.280   1.899   1.139  3.0639  0.5755  2.1336
   39MOL   H11128307   6.313   1.891   0.970 -0.7076 -2.4803 -0.3161
   39MOL   H11228308   6.546   1.795   1.060  0.5922 -0.2575  0.2359
   39MOL   C11328309   6.530   1.985   1.073  0.1382 -0.1180  0.1382
   39MOL   O11428310   6.469   2.087   1.050 -0.4905 -0.0789  0.0410
   39MOL   C11528311   6.675   1.989   1.121 -0.2939 -0.5953  0.4974
   39MOL   C11628312   6.741   2.129   1.143  0.1173 -0.4329 -0.0727
   39MOL   C11728313   6.884   2.129   1.189 -0.0036  1.0747 -1.2854
   39MOL   C11828314   6.945   2.264   1.180 -0.2790 -0.7638  0.0317
   39MOL   C11928315   7.088   2.286   1.222 -0.5330 -0.0585 -0.1434
   39MOL   C12028316   7.115   2.223   1.356 -0.3113  0.3278 -0.6821
   39MOL   C12128317   7.254   2.267   1.413 -0.8045 -0.5129  0.4415
   39MOL   C12228318   7.274   2.212   1.558 -0.5193 -0.0456  0.0488
   39MOL   C12328319   7.406   2.257   1.616 -0.4999 -0.1854  0.0241
   39MOL   C12428320   7.431   2.205   1.755 -0.4412  0.3225  0.6139
   39MOL   C12528321   7.565   2.250   1.813  0.0163  0.6862  0.6320
   39MOL   N12628322   7.579   2.186   1.945 -0.0667  0.0717  0.1688
   39MOL   H12728323   6.741   1.929   1.058 -0.7697  1.2093 -1.7871
   39MOL   H12828324   6.671   1.950   1.222  1.8023 -2.7294 -0.1955
   39MOL   H12928325   6.743   2.180   1.047 -1.6351 -1.9470 -0.9282
   39MOL   H13028326   6.688   2.193   1.214 -0.4796 -2.1665  1.0803
   39MOL   H13128327   6.938   2.052   1.134 -1.3235 -1.0254  0.2853
   39MOL   H13228328   6.888   2.114   1.296  2.0240  0.7326 -1.3935
   39MOL   H13328329   6.931   2.300   1.078  0.9235  0.5231  0.3139
   39MOL   H13428330   6.889   2.336   1.240  1.7857  1.6140 -0.8049
   39MOL   H13528331   7.110   2.393   1.227 -0.6630 -0.0722  0.9113
   39MOL   H13628332   7.154   2.257   1.140  2.0690  0.3185  1.7398
   39MOL   H13728333   7.103   2.115   1.367  0.6297  0.4832  2.2817
   39MOL   H13828334   7.042   2.266   1.425  1.3375 -0.0939  1.3616
   39MOL   H13928335   7.260   2.376   1.416  0.6519 -0.5637 -0.1294
   39MOL   H14028336   7.331   2.220   1.352 -0.8892  0.0977 -0.1400
   39MOL   H14128337   7.276   2.103   1.562 -3.3699 -0.0694  3.3432
   39MOL   H14228338   7.188   2.234   1.621 -0.8187 -0.9765 -0.0407
   39MOL   H14328339   7.414   2.364   1.600 -0.2805  0.2042  2.5158
   39MOL   H14428340   7.492   2.231   1.554 -0.2762  1.4662 -0.3851
   39MOL   H14528341   7.421   2.097   1.766 -1.1028  0.5334  2.1062
   39MOL   H14628342   7.356   2.254   1.816 -0.6614 -0.4364  0.9525
   39MOL   H14728343   7.567   2.359   1.824  1.9653  0.8946 -1.5181
   39MOL   H14828344   7.645   2.218   1.747  0.2386  0.5863  0.9477
   39MOL   H14928345   7.508   2.207   2.014 -1.7501  0.9920 -1.7705
   39MOL   C15028346   7.675   2.088   1.970 -0.2999 -0.7402 -0.4604
   39MOL   O15128347   0.076   2.069   1.894 -0.2176 -0.4084  0.2853
   39MOL   C15228348   7.663   2.008   2.099 -0.7397  0.2770 -0.0479
   39MOL   C15328349   7.680   1.856   2.082 -0.1354 -0.9540 -0.1705
   39MOL   C15428350   7.554   1.799   2.019 -0.1327  1.3216 -0.7114
   39MOL   C15528351   7.567   1.646   2.006  0.0891  0.7495  0.4056
   39MOL   C15628352   7.441   1.575   1.943  0.3313 -0.0782  0.2543
   39MOL   C15728353   7.476   1.425   1.911 -0.4304  0.2819  0.0022
   39MOL   C15828354   7.377   1.363   1.810  0.2185 -0.3622 -0.1551
   39MOL   C15928355   7.408   1.392   1.658 -0.2728 -0.9447  0.0033
   39MOL   C16028356   7.332   1.293   1.568  0.0987 -0.7008  0.8322
   39MOL   C16128357   7.368   1.318   1.421  0.3103 -0.3353 -0.2808
   39MOL   C16228358   7.277   1.239   1.315  0.2109  0.6578  1.2132
   39MOL   N16328359   7.316   1.100   1.307  0.4235  0.4680  0.7693
   39MOL   H16428360   7.577   2.047   2.153 -0.8732 -0.4922  0.2953
   39MOL   H16528361   0.050   2.042   2.164 -0.8484 -0.3177  0.4050
   39MOL   H16628362   0.073   1.824   2.023 -0.0226  2.3351 -1.8707
   39MOL   H16728363   0.006   1.805   2.177  1.7749  0.6334  0.3170
   39MOL   H16828364   7.529   1.834   1.918 -0.7011  3.3594  0.1100
   39MOL   H16928365   7.467   1.823   2.080 -1.0852  2.8149 -2.5750
   39MOL   H17028366   7.656   1.624   1.947 -1.1910 -1.8578 -0.6362
   39MOL   H17128367   7.595   1.602   2.101  1.5053  2.9305  1.0326
   39MOL   H17228368   7.409   1.631   1.855  0.6593 -0.7412 -0.2978
   39MOL   H17328369   7.361   1.574   2.016  1.1461  0.1632  1.1548
   39MOL   H17428370   7.475   1.372   2.007  1.6748 -1.8277 -1.1151
   39MOL   H17528371   7.579   1.417   1.875 -0.4737  2.2334 -0.6083
   39MOL   H17628372   7.276   1.397   1.834  0.1065 -0.4837 -0.4467
   39MOL   H17728373   7.377   1.258   1.839  0.6420 -0.5205 -0.7192
   39MOL   H17828374   7.513   1.375   1.638 -0.4437 -0.6792 -1.1642
   39MOL   H17928375   7.409   1.500   1.644  0.4405 -0.9760 -0.1662
   39MOL   H18028376   7.228   1.324   1.558  0.2929 -0.1698  0.4496
   39MOL   H18128377   7.344   1.189   1.601 -1.1240  0.1216  4.0773
   39MOL   H18228378   7.472   1.286   1.420  0.2529 -0.6396  1.5328
   39MOL   H18328379   7.361   1.425   1.400 -1.3836 -0.1053  1.2522
   39MOL   H18428380   7.281   1.273   1.211 -0.9560 -2.4743  0.0806
   39MOL   H18528381   7.174   1.235   1.347 -0.5704  0.4282 -1.1854
   39MOL   H18628382   7.269   1.035   1.367  0.0344 -0.1543 -0.1903
   39MOL   C18728383   7.417   1.048   1.234  0.1548 -0.5170  0.7162
   39MOL   O18828384   7.489   1.121   1.174 -0.4666  0.9527  0.2021
   39MOL   C18928385   7.457   0.909   1.246  0.9907  0.2820  0.2131
   39MOL   C19028386   7.579   0.881   1.346  0.4189  0.5846  0.4599
   39MOL   C19128387   0.018   0.906   1.281  0.2042  0.1770  0.6819
   39MOL   C19228388   0.141   0.899   1.374  0.6100  0.1489  0.3026
   39MOL   C19328389   0.263   0.964   1.324 -0.6034 -0.3372  0.3097
   39MOL   C19428390   0.338   0.875   1.219 -0.1398  0.3490 -0.0071
   39MOL   C19528391   0.476   0.938   1.187  0.4460  0.3658  0.1255
   39MOL   C19628392   0.547   0.849   1.086 -0.2894 -0.5731  0.3102
   39MOL   C19728393   0.609   0.719   1.143  0.3323  0.2058 -0.7839
   39MOL   C19828394   0.668   0.621   1.034  0.1020 -0.5958  0.2148
   39MOL   C19928395   0.733   0.494   1.092 -0.0651  0.2959 -0.5643
   39MOL   N20028396   0.790   0.426   0.980  0.2745 -0.5210 -0.1520
   39MOL   H20128397   7.459   0.854   1.152  0.2084  0.6235 -0.0118
   39MOL   H20228398   7.369   0.866   1.295 -0.4817  1.1339 -1.6311
   39MOL   H20328399   7.559   0.954   1.424  1.2952  0.0543  1.1852
   39MOL   H20428400   7.575   0.782   1.391  1.2016  0.0538 -0.5994
   39MOL   H20528401   0.026   1.012   1.256 -1.1359 -0.0599 -0.8764
   39MOL   H20628402   0.030   0.845   1.192 -2.7291  0.6058 -0.0756
   39MOL   H20728403   0.109   0.952   1.464 -0.6562  0.1153 -0.1192
   39MOL   H20828404   0.151   0.794   1.403 -1.2419 -0.1852 -0.1813
   39MOL   H20928405   0.330   0.980   1.408  1.2208  0.4729 -1.2427
   39MOL   H21028406   0.237   1.066   1.295  1.9702  1.1442  3.0068
   39MOL   H21128407   0.286   0.869   1.124 -0.6348  0.4438  0.2561
   39MOL   H21228408   0.361   0.775   1.255 -0.4446 -0.8528 -3.0699
   39MOL   H21328409   0.531   0.959   1.278 -0.6470 -1.5156  1.2505
   39MOL   H21428410   0.457   1.035   1.139 -0.8847 -0.8895 -1.9691
   39MOL   H21528411   0.630   0.900   1.037 -1.6303 -1.0353 -2.5441
   39MOL   H21628412   0.477   0.817   1.009  0.6186 -1.8028 -0.0253
   39MOL   H21728413   0.528   0.664   1.190 -1.0689  2.8413 -0.0628
   39MOL   H21828414   0.687   0.744   1.216 -0.1460 -2.0017  0.5406
   39MOL   H21928415   0.742   0.677   0.977  0.7935 -0.4607  1.2214
   39MOL   H22028416   0.594   0.584   0.963 -1.4654 -0.9628  1.9710
   39MOL   H22128417   0.647   0.436   1.126  1.9222 -2.1502  0.4736
   39MOL   H22228418   0.796   0.500   1.181 -1.2217 -1.5618  0.4067
   39MOL   H22328419   0.719   0.403   0.911 -0.2925  0.5353  0.0716
   39MOL   C22428420   0.910   0.385   0.958  0.1330 -0.0104  0.1078
   39MOL   O22528421   1.005   0.421   1.024 -0.1517 -0.0468 -0.1308
   39MOL   C22628422   0.924   0.285   0.845 -0.5761 -0.6113 -0.5063
   39MOL   C22728423   1.026   0.176   0.884 -0.1708 -0.1881 -0.4069
   39MOL   C22828424   0.973   0.068   0.970  0.2715 -0.7929 -1.1084
   39MOL   C22928425   1.038   7.624   0.950  0.5320  0.0685 -0.2261
   39MOL   C23028426   0.980   7.525   1.053  0.6581  0.4740 -0.0830
   39MOL   C23128427   1.077   7.409   1.088 -0.1149  0.5400 -0.0569
   39MOL   C23228428   1.210   7.444   1.143 -0.4664  0.2411 -0.8404
   39MOL   C23328429   1.204   7.513   1.279  0.1737  0.4342  0.8838
   39MOL   C23428430   1.182   7.416   1.397  0.2010  0.0762  0.0530
   39MOL   C23528431   1.097   7.484   1.513 -0.3924  0.0061  0.4511
   39MOL   C23628432   1.046   7.391   1.621  0.6431  0.1700 -0.7868
   39MOL   N23728433   0.924   7.440   1.689  0.3463 -0.2523 -0.3863
   39MOL   H23828434   0.954   0.342   0.757  0.0373 -0.0847  0.0349
   39MOL   H23928435   0.828   0.238   0.827 -0.9505  0.2588 -0.8345
   39MOL   H24028436   1.055   0.126   0.791  1.1115  1.6431 -1.0408
   39MOL   H24128437   1.116   0.218   0.929 -1.3903  1.1873  0.7715
   39MOL   H24228438   0.865   0.054   0.965  0.2864 -0.8950 -1.1512
   39MOL   H24328439   1.005   0.088   1.073  0.3674 -0.9074 -1.1148
   39MOL   H24428440   1.033   7.589   0.847  1.0150 -0.6538 -0.0097
   39MOL   H24528441   1.143   7.639   0.976  1.0811 -3.0115 -0.5178
   39MOL   H24628442   0.886   7.484   1.014 -1.0788  2.2225  2.1615
   39MOL   H24728443   0.949   7.577   1.143 -0.0049 -1.8033  1.0491
   39MOL   H24828444   1.093   7.345   1.001 -0.2486 -1.8398  1.6055
   39MOL   H24928445   1.018   7.350   1.159  1.3503  0.7173  1.3556
   39MOL   H25028446   1.263   7.497   1.064  0.5250 -1.3239 -1.2378
   39MOL   H25128447   1.273   7.355   1.142  3.1466  2.6892 -0.1911
   39MOL   H25228448   1.129   7.592   1.275 -1.4003 -1.0115  1.1694
   39MOL   H25328449   1.294   7.570   1.302  1.1584 -0.4672 -0.5861
   39MOL   H25428450   1.279   7.376   1.428  0.0608  0.7890  1.4500
   39MOL   H25528451   1.125   7.339   1.347  2.1997 -1.5037  0.1422
   39MOL   H25628452   1.016   7.542   1.469  0.0511  0.9612  0.8574
   39MOL   H25728453   1.161   7.564   1.551  2.6565 -1.0029 -2.3233
   39MOL   H25828454   1.121   7.353   1.692  1.1907  0.9238 -0.9505
   39MOL   H25928455   1.015   7.299   1.573  0.0437  0.8096 -1.6408
   39MOL   H26028456   0.836   7.406   1.653 -0.3323 -0.7047  1.6185
   39MOL   C26128457   0.925   7.540   1.777  0.0546  0.2386 -0.2890
   39MOL   O26228458   1.033   7.589   1.815 -0.2838 -0.3967 -0.2045
   39MOL   C26328459   0.787   7.599   1.815  0.3987 -0.1903  0.2261
   39MOL   C26428460   0.790   0.055   1.851 -0.0201  0.4487 -0.2307
   39MOL   C26528461   0.774   0.143   1.726  0.3923  0.3950  0.7382
   39MOL   C26628462   0.904   0.204   1.675 -0.2337 -0.0747 -0.1385
   39MOL   C26728463   0.884   0.280   1.542 -0.3269 -0.2541  1.0555
   39MOL   C26828464   0.782   0.397   1.535  1.1263 -0.2379  0.5408
   39MOL   C26928465   0.820   0.520   1.624  0.2166  0.3174 -0.3220
   39MOL   C27028466   0.712   0.631   1.622 -0.6356 -0.1007 -0.1630
   39MOL   C27128467   0.737   0.743   1.725  0.2322 -0.3440  0.3136
   39MOL   C27228468   0.604   0.817   1.770 -1.1803  0.5105 -0.9016
   39MOL   C27328469   0.524   0.908   1.668 -0.3095 -0.1984  0.3448
   39MOL   N27428470   0.595   1.038   1.659  0.1243  0.0332 -0.0693
   39MOL   H27528471   0.736   7.546   1.896 -3.0627  1.2264 -0.9707
   39MOL   H27628472   0.713   7.585   1.737 -0.8300  1.9501  0.9775
   39MOL   H27728473   0.705   0.067   1.918  0.0736 -0.2242  0.0121
   39MOL   H27828474   0.881   0.080   1.906  1.4585  0.7285 -2.7435
   39MOL   H27928475   0.715   0.230   1.752 -1.1206 -0.6366  0.8065
   39MOL   H28028476   0.721   0.093   1.646 -1.0761 -0.7531  2.3942
   39MOL   H28128477   0.944   0.259   1.760 -1.7198  0.3239  0.3218
   39MOL   H28228478   0.974   0.123   1.655  1.1928  0.9018  0.7680
   39MOL   H28328479   0.859   0.198   1.476 -0.5542  0.9491 -0.3842
   39MOL   H28428480   0.985   0.315   1.523 -0.6253  1.1167  1.8992
   39MOL   H28528481   0.681   0.358   1.550  0.9291 -0.1725 -0.5492
   39MOL   H28628482   0.774   0.431   1.431 -0.8685 -0.4061  0.6123
   39MOL   H28728483   0.911   0.560   1.581  1.5909 -0.1785  2.0201
   39MOL   H28828484   0.848   0.483   1.723 -2.5313  1.3328  0.8805
   39MOL   H28928485   0.614   0.585   1.632  0.2604 -1.6787  1.6142
   39MOL   H29028486   0.713   0.678   1.524 -0.2208  2.2065  0.9183
   39MOL   H29128487   0.802   0.808   1.666  1.2183 -0.4708  1.2450
   39MOL   H29228488   0.797   0.702   1.806  1.7414 -2.8870 -2.0257
   39MOL   H29328489   0.641   0.885   1.847 -0.1394 -2.6449  1.4754
   39MOL   H29428490   0.536   0.744   1.814 -0.4179 -0.5691 -1.4993
   39MOL   H29528491   0.426   0.926   1.712  0.0120 -0.4620  1.1934
   39MOL   H29628492   0.507   0.865   1.569 -2.6851  2.1620 -0.3289
   39MOL   H29728493   0.563   1.121   1.706  2.3561  0.7229  0.2997
   39MOL   C29828494   0.675   1.072   1.558 -0.0019  0.1384 -0.6381
   39MOL   O29928495   0.711   0.991   1.470 -0.2053  0.5234  0.1536
   39MOL   C30028496   0.713   1.215   1.553 -0.2958  1.1706  0.6847
   39MOL   C30128497   0.737   1.276   1.412  0.8115 -1.0005 -0.2107
   39MOL   C30228498   0.606   1.319   1.327 -0.5753 -0.5186  0.2722
   39MOL   C30328499   0.632   1.334   1.184 -0.1717  0.1717  0.2282
   39MOL   C30428500   0.506   1.342   1.097  0.2851 -0.7795 -0.3637
   39MOL   C30528501   0.531   1.409   0.968  0.5447  0.1954  0.3342
   39MOL   C30628502   0.406   1.392   0.880 -0.0782  0.6648  0.0405
   39MOL   C30728503   0.428   1.406   0.734 -0.4750 -0.2462 -0.3372
   39MOL   C30828504   0.311   1.372   0.646  0.5831 -0.1647 -0.0668
   39MOL   C30928505   0.339   1.405   0.498 -0.1450  0.0480  0.1432
   39MOL   C31028506   0.212   1.399   0.411 -0.5076 -0.2053 -0.4875
   39MOL   N31128507   0.259   1.423   0.276  0.6655  0.2516 -0.0585
   39MOL   H31228508   0.808   1.226   1.605 -0.4307 -0.4430  1.3184
   39MOL   H31328509   0.636   1.272   1.605 -2.8859 -0.9167 -0.6969
   39MOL   H31428510   0.804   1.362   1.424  0.4315 -1.0637  2.6447
   39MOL   H31528511   0.787   1.205   1.346  0.7433 -0.3610 -0.9621
   39MOL   H31628512   0.556   1.411   1.355 -1.6798 -0.8122 -0.6994
   39MOL   H31728513   0.529   1.243   1.338  0.0197 -1.4102 -1.4169
   39MOL   H31828514   0.696   1.420   1.161 -0.0168 -0.0864 -0.3227
   39MOL   H31928515   0.682   1.245   1.147 -1.3907  0.0932 -1.2930
   39MOL   H32028516   0.431   1.402   1.149  2.4112  1.1406  0.5684
   39MOL   H32128517   0.463   1.243   1.086 -2.6457  0.4945 -0.9890
   39MOL   H32228518   0.616   1.353   0.929 -0.9182 -2.9451  1.4044
   39MOL   H32328519   0.549   1.515   0.983 -1.2386  0.5405  0.2032
   39MOL   H32428520   0.319   1.446   0.918 -0.0035 -0.1364  1.4019
   39MOL   H32528521   0.378   1.286   0.881  2.5096 -0.0904 -2.2314
   39MOL   H32628522   0.511   1.344   0.701  0.7888  2.3826 -2.2099
   39MOL   H32728523   0.457   1.510   0.720 -2.3901  0.1132 -1.8364
   39MOL   H32828524   0.233   1.435   0.689 -0.0126  0.9006 -2.6459
   39MOL   H32928525   0.284   1.268   0.665  0.2301 -0.1798 -0.6610
   39MOL   H33028526   0.421   1.341   0.467 -0.0084  1.1079 -1.7526
   39MOL   H33128527   0.383   1.505   0.498  1.5144 -0.6695  0.2621
   39MOL   H33228528   0.132   1.470   0.434 -1.9382 -2.0598  0.4348
   39MOL   H33328529   0.164   1.302   0.419 -0.0553 -0.3953 -0.1280
   39MOL   H33428530   0.331   1.494   0.265  1.3240 -0.1955  1.2594
   39MOL   C33528531   0.212   1.362   0.169 -0.4159 -0.0257 -0.3089
   39MOL   O33628532   0.121   1.278   0.162  0.0166 -0.4094  0.2812
   39MOL   C33728533   0.285   1.410   0.045  0.4428  0.0174  0.5370
   39MOL   C33828534   0.247   1.332   7.605 -1.3956  0.3010 -0.4350
   39MOL   C33928535   0.320   1.195   7.592 -0.2708  0.6730 -0.4961
   39MOL   C34028536   0.284   1.122   7.462 -0.1694  0.2843 -0.3669
   39MOL   C34128537   0.341   0.984   7.461  0.6403 -0.2808 -0.2838
   39MOL   C34228538   0.490   0.975   7.470  0.4489 -0.3535  0.0420
   39MOL   C34328539   0.542   0.836   7.446  0.0276 -0.3739 -0.0846
   39MOL   C34428540   0.693   0.843   7.450 -0.3088  0.3083  0.6907
   39MOL   C34528541   0.750   0.897   7.319  0.4666  0.3748 -0.4442
   39MOL   C34628542   0.897   0.857   7.294  0.4043  0.6198 -0.3787
   39MOL   C34728543   0.963   0.910   7.161  0.0084 -0.3827  0.3643
   39MOL   N34828544   0.914   0.853   7.036  0.2826  0.1178  0.4083
   39MOL   H34928545   0.393   1.413   0.060  0.9198 -1.2400 -2.2388
   39MOL   H35028546   0.255   1.508   0.010  1.2098  0.0370 -0.0809
   39MOL   H35128547   0.139   1.329   7.597 -1.4990 -1.0721  1.2252
   39MOL   H35228548   0.284   1.403   7.530  0.7006  0.0049  0.2684
   39MOL   H35328549   0.299   1.137   7.682  0.2258 -0.8033 -1.3278
   39MOL   H35428550   0.428   1.206   7.602 -0.3555 -0.7067  2.2326
   39MOL   H35528551   0.177   1.102   7.460  0.2804 -2.3231 -0.2229
   39MOL   H35628552   0.308   1.183   7.375  0.7653  0.9398  0.3450
   39MOL   H35728553   0.304   0.947   7.366  0.3547 -1.5991  0.3212
   39MOL   H35828554   0.284   0.936   7.540 -0.8239  3.2523  0.9153
   39MOL   H35928555   0.522   1.008   7.568 -2.1682 -0.2525  0.9084
   39MOL   H36028556   0.529   1.046   7.398 -0.9141 -2.0140 -2.4155
   39MOL   H36128557   0.509   0.792   7.352 -0.2881 -1.4277  0.5115
   39MOL   H36228558   0.496   0.777   7.526 -2.3732  1.1657 -0.2932
   39MOL   H36328559   0.719   0.741   7.477 -1.9410 -1.3927 -3.6635
   39MOL   H36428560   0.724   0.912   7.528  0.5362  0.0802  0.5651
   39MOL   H36528561   0.739   1.005   7.312  1.4878  0.4890 -0.3434
   39MOL   H36628562   0.689   0.856   7.238 -0.4859 -1.1164  1.0017
   39MOL   H36728563   0.913   0.750   7.297  0.7781  0.6349 -1.3809
   39MOL   H36828564   0.961   0.894   7.374  2.3489 -2.0598 -0.6389
   39MOL   H36928565   1.072   0.904   7.166  0.1570  1.4445 -0.2751
   39MOL   H37028566   0.941   1.017   7.164  1.2559 -0.0289 -1.6024
   39MOL   H37128567   0.862   0.909   6.969 -2.5014 -0.7388  1.7737
   39MOL   C37228568   0.952   0.724   7.015 -0.2427  0.1001 -0.2716
   39MOL   O37328569   1.030   0.657   7.092 -0.6982  0.0212 -0.4814
   39MOL   C37428570   0.908   0.646   6.891  0.5281  0.3737  0.7108
   39MOL   C37528571   0.773   0.576   6.919 -0.3779  0.4128 -0.5076
   39MOL   C37628572   0.732   0.544   7.066 -0.0409  0.8026 -0.3923
   39MOL   C37728573   0.586   0.487   7.078 -0.5489 -0.3227  0.0085
   39MOL   C37828574   0.571   0.423   7.213  0.5893 -0.0263 -0.4413
   39MOL   C37928575   0.454   0.329   7.219  0.2230  0.5398  0.2050
   39MOL   C38028576   0.433   0.262   7.360 -0.0595  0.2326 -0.2340
   39MOL   C38128577   0.292   0.184   7.368 -0.4800  0.3836 -0.7190
   39MOL   C38228578   0.271   0.123   7.506  0.2814 -0.4211  0.2778
   39MOL   C38328579   0.328   7.684   7.541 -0.3768  0.3219  0.1150
   39MOL   C38428580   0.296   7.651   7.692 -0.5948 -0.4276  0.6813
   39MOL   N38528581   0.317   7.505   0.025 -0.0766  0.2143 -0.2731
   39MOL   H38628582   0.990   0.580   6.863  0.3082  0.7975 -0.9618
   39MOL   H38728583   0.905   0.713   6.805 -1.8499 -0.8120 -0.1696
   39MOL   H38828584   0.691   0.630   6.873  0.0289  0.1572 -1.5678
   39MOL   H38928585   0.784   0.481   6.866  1.3127  1.2135 -1.6579
   39MOL   H39028586   0.744   0.637   7.122  0.0239 -1.0901  2.8565
   39MOL   H39128587   0.797   0.468   7.108 -0.1602 -0.4052 -2.3119
   39MOL   H39228588   0.514   0.568   7.071  0.8070  1.1008  1.7896
   39MOL   H39328589   0.561   0.417   6.999  2.4635 -0.8435 -0.5410
   39MOL   H39428590   0.545   0.502   7.284 -1.4395 -0.2090 -0.9409
   39MOL   H39528591   0.662   0.373   7.246  0.8316  0.3478 -0.5411
   39MOL   H39628592   0.481   0.242   7.159 -0.7000  0.5245 -0.2065
   39MOL   H39728593   0.360   0.365   7.178  0.9757 -0.6666 -2.7062
   39MOL   H39828594   0.423   0.353   7.419 -1.7363  0.1550 -0.3764
   39MOL   H39928595   0.516   0.199   7.391  1.0182  1.6465 -0.1755
   39MOL   H40028596   0.280   0.104   7.295 -2.1854 -0.8786  0.9085
   39MOL   H40128597   0.211   0.256   7.353 -0.9700 -0.1054 -0.4236
   39MOL   H40228598   0.163   0.117   7.518 -0.0134  2.2351 -0.5474
   39MOL   H40328599   0.293   0.188   7.591 -2.6366 -0.6768  1.2876
   39MOL   H40428600   0.435   7.671   7.521 -0.3131  0.7548  0.1560
   39MOL   H40528601   0.278   7.608   7.482  0.2311 -0.2763  0.3560
   39MOL   H40628602   0.198   7.686   0.030 -0.5924  1.7335 -1.5669
   39MOL   H40728603   0.360   0.023   0.058  1.2875 -0.9328 -0.7328
   39MOL   H40828604   0.398   7.470   0.074 -0.2736 -1.2042 -0.9390
   39MOL   C40928605   0.238   7.413   7.682  0.0454  0.1845 -1.0140
   39MOL   O41028606   0.147   7.437   7.609  0.6042 -0.4556  0.0654
   39MOL   C41128607   0.263   7.275   0.039 -0.3850 -0.3871 -0.3446
   39MOL   C41228608   0.151   7.171   0.011  0.3572  0.3795  0.0831
   39MOL   C41328609   0.169   7.045   0.095  0.3867  0.9793 -0.6376
   39MOL   C41428610   0.127   6.918   0.020  0.2504 -0.5396  0.0948
   39MOL   C41528611   0.204   6.796   0.068 -0.1410 -0.0099 -0.4774
   39MOL   C41628612   0.138   6.667   0.005 -0.5849 -0.2964  0.1143
   39MOL   C41728613   0.209   6.552   0.064 -1.0177  0.6379 -0.0151
   39MOL   C41828614   0.362   6.549   0.031 -0.5803  0.7537 -0.7366
   39MOL   C41928615   0.425   6.416   0.086 -0.5630 -0.0523  0.1264
   39MOL   C42028616   0.577   6.410   0.101 -0.1176 -0.0018 -0.4297
   39MOL   C42128617   0.626   6.271   0.150  0.3623 -0.1693 -0.3350
   39MOL   N42228618   0.774   6.274   0.156 -0.1592  0.5168  0.7409
   39MOL   H42328619   0.275   7.294   0.146  1.3213 -3.2573  0.0136
   39MOL   H42428620   0.358   7.235   0.004  1.4286  0.7767  2.9313
   39MOL   H42528621   0.051   7.204   0.037  0.2752  1.6619 -1.7403
   39MOL   H42628622   0.157   7.155   7.597  1.4467 -0.3663  0.2477
   39MOL   H42728623   0.136   7.063   0.197  1.2917  1.5993 -0.4508
   39MOL   H42828624   0.277   7.037   0.102  0.3740  1.7025  0.5660
   39MOL   H42928625   0.019   6.903   0.023  0.0277  0.2047 -2.4380
   39MOL   H43028626   0.142   6.937   7.607 -0.3935 -1.1752 -0.1160
   39MOL   H43128627   0.203   6.801   0.177  0.6099  1.3147 -0.5131
   39MOL   H43228628   0.313   6.803   0.061  0.1218 -2.3471  0.7754
   39MOL   H43328629   0.154   6.673   7.591  1.4308 -0.6347  0.3735
   39MOL   H43428630   0.031   6.666   0.024 -0.3554 -0.5075  1.4804
   39MOL   H43528631   0.156   6.463   0.029  1.0043 -0.6457  0.0863
   39MOL   H43628632   0.205   6.548   0.172  0.7686  2.0827  0.1324
   39MOL   H43728633   0.422   6.630   0.072 -1.3938  3.2717 -4.2623
   39MOL   H43828634   0.373   6.539   7.617  2.7438  1.1943 -0.4733
   39MOL   H43928635   0.395   6.339   0.015 -0.1190  1.2338 -1.4952
   39MOL   H44028636   0.371   6.405   0.180 -2.8815  0.4013 -1.0977
   39MOL   H44128637   0.607   6.483   0.177  0.7857 -1.2467  0.4210
   39MOL   H44228638   0.616   6.442   0.004  0.3052 -0.8248 -0.5288
   39MOL   H44328639   0.577   6.210   0.074 -0.1938 -1.1287  0.7915
   39MOL   H44428640   0.585   6.251   0.248 -0.8393 -0.7858 -0.9535
   39MOL   H44528641   0.822   6.252   0.070 -0.1318 -1.7526  1.2900
   39MOL   C44628642   0.849   6.296   0.265 -0.4936 -0.2587  0.3984
   39MOL   O44728643   0.796   6.333   0.372 -0.3808  0.0914  0.1135
   39MOL   C44828644   0.999   6.298   0.247 -0.5830 -0.3832 -0.2273
   39MOL   C44928645   1.056   6.407   0.336 -0.2283 -0.7401 -0.3832
   39MOL   C45028646   1.212   6.410   0.342  0.3255  0.0362 -0.5997
   39MOL   C45128647   1.268   6.491   0.460  1.0645 -0.2688  0.1837
   39MOL   C45228648   1.426   6.495   0.462  0.3845  1.0008  0.6867
   39MOL   C45328649   1.476   6.612   0.550  0.4724 -0.1225 -0.4481
   39MOL   C45428650   1.485   6.747   0.490  0.0379  0.4317 -0.4388
   39MOL   C45528651   1.594   6.763   0.381 -0.2958  0.0621 -0.5408
   39MOL   C45628652   1.602   6.910   0.332 -0.1331 -0.3564 -0.0555
   39MOL   C45728653   1.702   6.939   0.221  0.9751 -0.5942 -0.1213
   39MOL   C45828654   1.848   6.929   0.264 -0.0816  0.3329  0.6195
   39MOL   N45928655   1.935   6.981   0.157 -0.3160 -0.4792  0.0332
   39MOL   H46028656   1.021   6.319   0.143 -1.8550  0.3707 -0.3498
   39MOL   H46128657   1.045   6.205   0.282 -0.3033 -0.4612 -0.8015
   39MOL   H46228658   1.017   6.503   0.302  0.7869 -0.6771 -1.3816
   39MOL   H46328659   1.029   6.376   0.437  0.1601 -1.1238 -0.3975
   39MOL   H46428660   1.256   6.444   0.248  1.3726 -0.4118 -0.2693
   39MOL   H46528661   1.254   6.310   0.342 -1.9956 -0.9943 -2.1233
   39MOL   H46628662   1.223   6.591   0.456  1.0649 -0.3128 -1.5093
   39MOL   H46728663   1.239   6.438   0.550  0.4162 -1.1059 -0.5054
   39MOL   H46828664   1.461   6.526   0.363 -1.7333  0.9428 -0.1173
   39MOL   H46928665   1.477   6.403   0.491 -1.7426 -0.1068  0.9522
   39MOL   H47028666   1.571   6.586   0.596 -0.8215 -0.1459  2.2847
   39MOL   H47128667   1.417   6.624   0.641  0.3679 -1.4401 -0.3369
   39MOL   H47228668   1.516   6.815   0.570  0.9865 -0.5719  0.0564
   39MOL   H47328669   1.391   6.790   0.454  0.0003  0.0662 -0.7852
   39MOL   H47428670   1.579   6.699   0.294 -0.4881  1.7033 -1.7357
   39MOL   H47528671   1.688   6.731   0.426 -0.7073 -1.7095 -0.9006
   39MOL   H47628672   1.625   6.980   0.412 -1.2326  1.9644 -1.6774
   39MOL   H47728673   1.500   6.941   0.307 -0.6113 -1.5982  0.3125
   39MOL   H47828674   1.669   7.032   0.175 -0.3670 -0.6461  0.7016
   39MOL   H47928675   1.679   6.877   0.134 -0.6958 -0.8652  0.4838
   39MOL   H48028676   1.872   6.824   0.282 -2.1196 -0.1193  0.7398
   39MOL   H48128677   1.879   6.987   0.351 -0.5727  1.1448  0.2577
   39MOL   H48228678   1.880   7.025   0.085 -4.1572 -1.0222  2.5158
   39MOL   C48328679   2.067   6.977   0.158  0.0948  0.0394  0.0576
   39MOL   O48428680   2.120   6.909   0.245  0.3345 -0.0635  0.2745
   39MOL   C48528681   2.160   7.048   0.056 -0.1094  0.0778 -0.2932
   39MOL   C48628682   2.262   6.959   7.671 -0.2070 -0.5621 -0.3438
   39MOL   C48728683   2.202   6.831   7.606  0.3983 -0.0069 -0.0153
   39MOL   C48828684   2.310   6.754   7.534  0.4631 -0.2609  0.4846
   39MOL   C48928685   2.260   6.658   7.422  0.1146 -0.3182  0.0251
   39MOL   C49028686   2.368   6.610   7.326 -0.2705  0.1816  0.5178
   39MOL   C49128687   2.322   6.483   7.257 -0.1050 -0.1928  0.1283
   39MOL   C49228688   2.441   6.414   7.199 -0.1375 -0.4981 -0.4024
   39MOL   C49328689   2.402   6.280   7.125 -0.3442 -0.6611  0.2407
   39MOL   C49428690   2.508   6.203   7.046 -0.5346  0.2346 -0.5123
   39MOL   C49528691   2.623   6.166   7.146 -0.7978 -0.3816 -0.8228
   39MOL   N49628692   2.741   6.109   7.081  0.7506  0.4895 -0.0332
   39MOL   H49728693   2.211   7.116   0.125 -1.6639 -1.5345  2.5839
   39MOL   H49828694   2.098   7.105   7.682  1.0870  0.8170 -0.7834
   39MOL   H49928695   2.309   7.019   7.593  1.0812  0.6234  1.3389
   39MOL   H50028696   2.345   6.932   0.042 -0.2397  1.6927  0.6813
   39MOL   H50128697   2.134   6.874   7.532 -0.3089 -0.6693  0.2412
   39MOL   H50228698   2.149   6.763   7.672  1.2899 -1.9146 -1.2115
   39MOL   H50328699   2.375   6.816   7.471  0.1408 -0.1669  0.2467
   39MOL   H50428700   2.375   6.696   7.599  0.0963 -1.0088  0.1911
   39MOL   H50528701   2.190   6.717   7.363  0.4385  1.5702  1.4713
   39MOL   H50628702   2.208   6.573   7.468  1.3980 -2.1236 -1.7866
   39MOL   H50728703   2.459   6.586   7.383  1.4185  0.8110 -1.8396
   39MOL   H50828704   2.392   6.694   7.261 -1.6581  0.7507  0.7239
   39MOL   H50928705   2.247   6.502   7.180 -2.3139  2.0610  2.7317
   39MOL   H51028706   2.280   6.409   7.325  0.7329  0.5620  1.4904
   39MOL   H51128707   2.515   6.394   7.277 -2.4833  0.7286  2.2311
   39MOL   H51228708   2.498   6.472   7.126  1.7323 -0.4097  1.0806
   39MOL   H51328709   2.323   6.308   7.055  0.1476  1.9016  0.6731
   39MOL   H51428710   2.365   6.204   7.194 -1.3314 -0.4790 -0.0697
   39MOL   H51528711   2.549   6.262   6.964 -0.0763  1.0865  0.3205
   39MOL   H51628712   2.461   6.110   7.013 -0.8443  0.0560  0.4302
   39MOL   H51728713   2.590   6.093   7.220  1.4098 -1.6129 -1.0082
   39MOL   H51828714   2.678   6.247   7.194 -0.8701 -1.7306  1.6150
   39MOL   H51928715   2.730   6.070   6.989  1.8190 -2.0547  0.8837
   39MOL   C52028716   2.854   6.079   7.145 -0.6584  1.0356  0.5054
   39MOL   O52128717   2.875   6.115   7.261 -0.1280 -0.3408 -0.1233
   39MOL   C52228718   2.961   6.002   7.066  0.4348 -0.4876 -0.8555
   39MOL   C52328719   2.984   5.856   7.118  0.4180 -0.1638  0.6673
   39MOL   C52428720   2.861   5.760   7.113  0.0097 -0.4762  0.4064
   39MOL   C52528721   2.909   5.611   7.147  0.4281  0.0605 -0.6190
   39MOL   C52628722   2.802   5.506   7.118  0.2064 -0.4913  0.6010
   39MOL   C52728723   2.842   5.365   7.164  0.0490 -0.2502  0.0013
   39MOL   C52828724   2.943   5.304   7.065 -0.3009  0.3133  0.5611
   39MOL   C52928725   2.966   5.155   7.090 -0.4307  0.4951  0.1618
   39MOL   C53028726   3.070   5.103   6.993 -0.7521 -0.3042  0.5167
   39MOL   C53128727   3.147   4.975   7.033  0.3774  0.1899  0.3316
   39MOL   C53228728   3.053   4.869   7.100  0.2152 -0.0685  0.1324
   39MOL   N53328729   3.124   4.744   7.122 -0.5598 -0.3911 -0.2398
   39MOL   H53428730   3.057   6.053   7.069  0.0535  0.1619  1.5186
   39MOL   H53528731   2.930   6.003   6.962 -4.1793 -0.3656  0.4023
   39MOL   H53628732   3.072   5.824   7.062 -0.0367 -0.8112  0.3204
   39MOL   H53728733   3.009   5.866   7.224 -1.6217  0.9276  1.0805
   39MOL   H53828734   2.811   5.758   7.016  2.0849  1.7946 -0.7884
   39MOL   H53928735   2.793   5.798   7.188  0.6373  0.8521  0.3248
   39MOL   H54028736   2.997   5.603   7.083  0.9311  0.4574  0.0111
   39MOL   H54128737   2.949   5.601   7.248 -0.7332  3.1020  0.1947
   39MOL   H54228738   2.764   5.500   7.016  0.6562 -0.1556  0.4119
   39MOL   H54328739   2.717   5.529   7.180  0.8237  0.3897  1.1285
   39MOL   H54428740   2.749   5.309   7.160  0.1623 -0.4561  0.2473
   39MOL   H54528741   2.887   5.358   7.262 -0.8924  0.8862  0.5237
   39MOL   H54628742   3.037   5.359   7.065  0.6409 -1.2865  0.3183
   39MOL   H54728743   2.911   5.316   6.962 -0.5320  0.8572  0.6904
   39MOL   H54828744   2.881   5.087   7.092  0.1507 -0.2464 -0.1199
   39MOL   H54928745   3.008   5.133   7.189 -1.8010  1.6645  1.0267
   39MOL   H55028746   3.137   5.184   6.962 -1.2666 -0.1258 -0.1195
   39MOL   H55128747   3.029   5.074   6.897  0.5949 -2.1291  0.4565
   39MOL   H55228748   3.222   5.011   7.103 -0.3646 -1.5071  2.0332
   39MOL   H55328749   3.197   4.931   6.947 -0.9233 -2.4973  0.8824
   39MOL   H55428750   2.962   4.844   7.046 -0.4473  0.2533  1.0761
   39MOL   H55528751   3.012   4.895   7.198 -3.3863  0.1106 -1.3256
   39MOL   H55628752   3.223   4.752   7.140 -0.9159  0.3592  1.5029
   39MOL   C55728753   3.074   4.625   7.144 -0.3919 -0.3245 -0.1933
   39MOL   O55828754   2.952   4.604   7.148 -0.0893 -0.2866  0.2803
   39MOL   C55928755   3.172   4.509   7.153 -0.6733  0.2168 -0.3546
   39MOL   C56028756   3.119   4.369   7.113  0.5406  0.6614 -0.3696
   39MOL   C56128757   3.073   4.341   6.974  0.0333 -0.3875 -0.0135
   39MOL   C56228758   3.177   4.374   6.858  0.2370  0.0884  0.0098
   39MOL   C56328759   3.125   4.337   6.718  0.5443  0.1878 -0.2750
   39MOL   C56428760   3.231   4.332   6.608  0.3432 -0.1325  0.3845
   39MOL   C56528761   3.326   4.212   6.621  0.3333 -0.2527 -0.2194
   39MOL   C56628762   3.463   4.226   6.558 -0.0185 -0.9271  0.1634
   39MOL   C56728763   3.516   4.080   6.518 -0.2129  0.2049 -0.9620
   39MOL   C56828764   3.439   4.014   6.404 -0.0879 -0.1772  0.3328
   39MOL   C56928765   3.473   3.863   6.415 -0.0900  0.8108  0.6585
   39MOL   N57028766   3.422   3.792   6.300 -0.4117  0.0024 -0.3101
   39MOL   H57128767   3.210   4.506   7.255 -3.4089 -2.4155  0.6548
   39MOL   H57228768   3.262   4.524   7.093  0.2546  0.1719  0.9946
   39MOL   H57328769   3.206   4.304   7.127 -0.0057  0.1883  0.8987
   39MOL   H57428770   3.042   4.337   7.184  1.1934 -2.0304 -0.8265
   39MOL   H57528771   2.977   4.391   6.964  0.7404  0.5781 -2.3499
   39MOL   H57628772   3.052   4.234   6.970  2.0800 -0.7635 -1.2130
   39MOL   H57728773   3.216   4.476   6.857  1.8807 -0.5297 -0.4774
   39MOL   H57828774   3.266   4.313   6.871 -1.1065 -2.0848 -0.7397
   39MOL   H57928775   3.038   4.392   6.682 -1.2362 -1.2840  1.6838
   39MOL   H58028776   3.081   4.237   6.724  0.4899  0.3623  3.1494
   39MOL   H58128777   3.275   4.432   6.605  2.8812 -1.2032  0.9963
   39MOL   H58228778   3.195   4.325   6.505 -0.2354 -0.1335  0.5828
   39MOL   H58328779   3.271   4.130   6.576  0.1205  0.4262 -1.2219
   39MOL   H58428780   3.338   4.186   6.727  3.8348 -1.5992 -0.8755
   39MOL   H58528781   3.532   4.271   6.630 -1.5300  1.7999  0.0034
   39MOL   H58628782   3.450   4.303   6.482 -0.4780  0.2690  1.4250
   39MOL   H58728783   3.520   4.010   6.601  1.7654  1.3048 -0.0969
   39MOL   H58828784   3.620   4.086   6.489 -0.1037 -0.2965 -0.6823
   39MOL   H58928785   3.473   4.060   6.311 -1.5334  1.9932  0.8168
   39MOL   H59028786   3.332   4.036   6.404  0.5009  3.1634  3.2291
   39MOL   H59128787   3.431   3.832   6.511  1.7254  1.8555  1.8144
   39MOL   H59228788   3.581   3.851   6.424  0.0612 -0.9574 -2.4643
   39MOL   H59328789   3.322   3.791   6.290 -0.6045 -0.9450  1.4052
   39MOL   C59428790   3.492   3.727   6.213 -0.0854 -0.2329  0.0316
   39MOL   O59528791   3.617   3.732   6.215  0.0919 -0.0820 -0.3986
   39MOL   C59628792   3.411   3.653   6.100 -0.0017 -0.4561  0.8727
   39MOL   C59728793   3.504   3.560   6.018 -0.2254  0.0144  0.8744
   39MOL   C59828794   3.582   3.452   6.099 -0.1817  0.2339 -0.2238
   39MOL   C59928795   3.712   3.410   6.036  0.2574 -0.6182  0.0232
   39MOL   C60028796   3.783   3.296   6.107  0.5410 -0.3789  0.9502
   39MOL   C60128797   3.905   3.236   6.043  0.9114 -0.5870 -0.3715
   39MOL   C60228798   3.950   3.106   6.119  0.5092 -0.9498  0.7364
   39MOL   C60328799   4.078   3.043   6.066 -0.5125  0.2398 -0.1466
   39MOL   C60428800   4.203   3.137   6.075 -0.4968  0.4751 -0.3481
   39MOL   C60528801   4.314   3.102   5.966 -0.0681 -0.0704 -0.8294
   39MOL   C60628802   4.371   2.959   5.976 -0.3649 -0.5726  0.3021
   39MOL   N60728803   4.431   2.930   5.849 -0.3051 -0.0580 -0.1892
   39MOL   H60828804   3.370   3.728   6.033  0.2222 -1.2910 -0.2129
   39MOL   H60928805   3.324   3.602   6.141 -1.4330  1.5884  0.4807
   39MOL   H61028806   3.449   3.506   5.941  0.9650 -1.1084  0.7857
   39MOL   H61128807   3.566   3.614   5.947 -2.2037 -0.2604 -1.0969
   39MOL   H61228808   3.513   3.370   6.120 -1.2783  1.1342 -0.3192
   39MOL   H61328809   3.608   3.490   6.198 -0.2265 -1.7473  0.5732
   39MOL   H61428810   3.690   3.387   5.932 -1.9250  1.4932 -0.0055
   39MOL   H61528811   3.781   3.495   6.036 -0.0046 -0.4058  0.4253
   39MOL   H61628812   3.712   3.215   6.120  0.9565 -0.7179  1.0830
   39MOL   H61728813   3.816   3.340   6.201  0.2269  0.8395  0.5037
   39MOL   H61828814   3.984   3.310   6.040 -0.0501  0.5437  1.6692
   39MOL   H61928815   3.878   3.207   5.941  2.0646 -2.0659 -0.2785
   39MOL   H62028816   3.869   3.033   6.119 -0.5939  0.2573  0.3124
   39MOL   H62128817   3.940   3.134   6.224 -0.0819  1.0096  0.1737
   39MOL   H62228818   4.060   3.013   5.963  1.4970 -2.5655  0.2718
   39MOL   H62328819   4.101   2.945   6.108 -0.8727  0.1752 -0.1031
   39MOL   H62428820   4.239   3.130   6.178 -1.1166 -0.4830 -0.1924
   39MOL   H62528821   4.174   3.239   6.050 -2.3486  0.1044  0.2500
   39MOL   H62628822   4.391   3.178   5.976  2.6099 -2.2945 -3.8346
   39MOL   H62728823   4.271   3.131   5.870  1.1822  1.0278 -1.0779
   39MOL   H62828824   4.298   2.882   6.000 -0.5428 -0.7810 -0.8795
   39MOL   H62928825   4.435   2.961   6.064  0.5808 -0.0395 -0.3846
   39MOL   H63028826   4.390   2.869   5.780  2.0808 -0.0707 -1.6602
   39MOL   C63128827   4.564   2.934   5.833 -0.2107  0.1018 -0.2398
   39MOL   O63228828   4.649   2.965   5.908 -0.9074  0.1614 -0.6416
   39MOL   C63328829   4.600   2.894   5.690 -0.1533 -0.4593 -0.0624
   39MOL   C63428830   4.735   2.948   5.641  0.0249  0.4021 -0.0115
   39MOL   C63528831   4.739   2.932   5.485  0.5232  0.5026  0.2048
   39MOL   C63628832   4.880   2.947   5.437 -0.0805 -0.3605  0.3670
   39MOL   C63728833   4.886   2.965   5.284  0.2446  0.0382 -0.2686
   39MOL   C63828834   5.024   3.005   5.237  0.1449  0.3405  0.5178
   39MOL   C63928835   5.125   2.886   5.243 -0.8928  0.0463  0.1661
   39MOL   C64028836   5.255   2.905   5.170 -0.1895  0.9949  0.3897
   39MOL   C64128837   5.340   2.776   5.189  0.0977  0.1610  1.1010
   39MOL   C64228838   5.477   2.787   5.114  0.8519 -0.3821 -0.3823
   39MOL   C64328839   5.570   2.672   5.151 -0.7855  1.0057  0.4551
   39MOL   N64428840   5.694   2.682   5.073 -0.2320 -0.0482  0.4745
   39MOL   H64528841   4.524   2.926   5.618  0.9882 -0.0967 -1.1133
   39MOL   H64628842   4.600   2.785   5.691  0.7368 -0.4704 -0.6258
   39MOL   H64728843   4.750   3.050   5.676 -1.7664  1.1248 -1.3123
   39MOL   H64828844   4.816   2.892   5.689 -0.3879  1.2036  1.6611
   39MOL   H64928845   4.667   3.000   5.439  1.6098  1.6542  0.1847
   39MOL   H65028846   4.703   2.833   5.459 -0.0679  0.3997  1.3513
   39MOL   H65128847   4.918   3.038   5.482 -0.3335 -0.9458  1.7761
   39MOL   H65228848   4.937   2.858   5.466  0.6981 -0.3639 -1.1136
   39MOL   H65328849   4.822   3.047   5.253 -1.0246 -0.9329 -0.2379
   39MOL   H65428850   4.854   2.882   5.222  0.4978 -0.7004  0.5683
   39MOL   H65528851   5.045   3.104   5.278 -0.9866  1.1332 -0.7718
   39MOL   H65628852   5.012   3.023   5.130 -1.6733 -1.3867  0.4047
   39MOL   H65728853   5.086   2.786   5.223 -0.9941  0.4096 -1.4506
   39MOL   H65828854   5.151   2.876   5.349 -0.1743 -1.2057 -0.1110
   39MOL   H65928855   5.294   2.998   5.209 -3.0856  2.6475 -0.5465
   39MOL   H66028856   5.230   2.921   5.066  1.4787  0.3962 -0.1267
   39MOL   H66128857   5.282   2.692   5.151 -1.1128  0.4842  2.1757
   39MOL   H66228858   5.347   2.756   5.296 -0.0107 -1.7319  0.7628
   39MOL   H66328859   5.525   2.884   5.129 -0.0177 -0.1755  1.1833
   39MOL   H66428860   5.455   2.797   5.008 -0.0952  0.4316 -0.1222
   39MOL   H66528861   5.521   2.577   5.128  1.2749  0.3551 -1.4694
   39MOL   H66628862   5.591   2.676   5.258  0.2826  1.0339  0.2567
   39MOL   H66728863   5.724   2.774   5.043 -0.0395 -0.3235 -0.1915
   39MOL   C66828864   5.761   2.577   5.021  0.2976  0.1202  0.2063
   39MOL   O66928865   5.724   2.460   5.031  0.0214 -0.3324  0.0782
   39MOL   C67028866   5.888   2.621   4.946 -0.4320 -0.5302  0.3013
   39MOL   C67128867   5.881   2.590   4.796  0.4028  0.5736  0.2363
   39MOL   C67228868   5.778   2.676   4.726  1.0003  0.3320 -0.9307
   39MOL   C67328869   5.777   2.672   4.575  0.4462  0.0686  0.1956
   39MOL   C67428870   5.693   2.560   4.516 -0.1062  0.3049  0.2242
   39MOL   C67528871   5.732   2.510   4.375 -0.3435 -0.6107 -0.0056
   39MOL   C67628872   5.876   2.470   4.352  0.2697 -0.1925  0.4766
   39MOL   C67728873   5.929   2.364   4.445 -0.9006 -0.1988 -0.5612
   39MOL   C67828874   5.881   2.224   4.404 -0.1060 -0.2084 -0.7138
   39MOL   C67928875   5.932   2.106   4.502  0.9334 -0.2920 -0.0014
   39MOL   C68028876   5.861   1.968   4.475 -0.1943  0.2146 -1.1407
   39MOL   N68128877   5.874   1.884   4.591  0.4248  0.1802 -0.0384
   39MOL   H68228878   5.977   2.568   4.982  0.4847  0.0200 -1.0870
   39MOL   H68328879   5.910   2.727   4.953  0.0696 -0.6019 -0.1483
   39MOL   H68428880   5.974   2.617   4.745 -1.1054 -0.5534 -3.2969
   39MOL   H68528881   5.852   2.486   4.779  1.2801  0.2931  0.4472
   39MOL   H68628882   5.796   2.776   4.765  1.4106  0.4699 -1.4606
   39MOL   H68728883   5.682   2.659   4.774  1.3332  1.4838  0.1624
   39MOL   H68828884   5.749   2.765   4.525  0.4419 -0.9810 -1.7762
   39MOL   H68928885   5.879   2.647   4.545  0.3896  0.9518 -0.7420
   39MOL   H69028886   5.595   2.603   4.495  0.4632 -0.5632 -4.7467
   39MOL   H69128887   5.700   2.472   4.580 -0.9095 -1.1373 -1.6082
   39MOL   H69228888   5.716   2.595   4.308  0.7892  0.5417  1.1372
   39MOL   H69328889   5.667   2.429   4.344 -1.1505  1.0929 -2.9481
   39MOL   H69428890   5.946   2.553   4.356  0.3742 -0.1259 -2.0487
   39MOL   H69528891   5.873   2.434   4.249 -1.1633 -0.0676  0.4592
   39MOL   H69628892   5.900   2.375   4.549 -0.3265 -0.9032 -0.3206
   39MOL   H69728893   6.038   2.367   4.438 -0.9761 -0.2086 -1.7502
   39MOL   H69828894   5.910   2.206   4.300  2.5385 -0.2433 -0.0151
   39MOL   H69928895   5.773   2.226   4.414 -0.0020  0.9102  0.3839
   39MOL   H70028896   5.922   2.146   4.603 -1.3589  0.3242 -0.4439
   39MOL   H70128897   6.040   2.102   4.506  0.9221  0.1154  0.9194
   39MOL   H70228898   5.910   1.931   4.385 -0.4129 -0.7267 -0.8729
   39MOL   H70328899   5.755   1.981   4.456 -0.3563  1.0607  0.2474
   39MOL   H70428900   5.837   1.912   4.680  0.8662  0.4437  0.0637
   39MOL   C70528901   5.931   1.758   4.574 -0.3313 -0.0494 -0.8395
   39MOL   O70628902   5.956   1.713   4.466  0.3020 -0.3565 -0.0290
   39MOL   C70728903   5.967   1.676   4.700 -0.3178  0.5460  0.4637
   39MOL   C70828904   6.082   1.581   4.670  0.3884 -0.5360 -0.5287
   39MOL   C70928905   6.222   1.644   4.645 -0.4142  0.0352 -0.2030
   39MOL   C71028906   6.325   1.529   4.605 -0.1165 -0.0269 -0.0008
   39MOL   C71128907   6.351   1.421   4.712  0.9777  0.4593 -0.2229
   39MOL   C71228908   6.384   1.470   4.854  0.4158  0.0896 -0.1265
   39MOL   C71328909   6.442   1.367   4.947 -0.0187  0.4885 -0.2478
   39MOL   C71428910   6.391   1.392   5.097 -0.0722  0.1043  0.0440
   39MOL   C71528911   6.444   1.307   5.210  0.1196 -0.0204 -0.4776
   39MOL   C71628912   6.379   1.334   5.347 -0.4568  0.9784  0.4416
   39MOL   C71728913   6.410   1.219   5.432 -0.6582  0.0778  0.2989
   39MOL   N71828914   6.386   1.247   5.573 -0.7909 -0.6241  1.0655
   39MOL   H71928915   5.870   1.634   4.729 -0.2754  1.6685  2.2750
   39MOL   H72028916   5.990   1.733   4.790 -1.1425  2.3897 -0.4594
   39MOL   H72128917   6.095   1.510   4.752  0.4207 -1.2631 -1.1670
   39MOL   H72228918   6.054   1.508   4.595 -0.9232 -0.4119 -0.1719
   39MOL   H72328919   6.274   1.704   4.720  0.7160  1.0266 -1.7594
   39MOL   H72428920   6.209   1.716   4.564 -0.5233 -0.6291 -0.7787
   39MOL   H72528921   6.299   1.481   4.511 -0.3840 -1.8335  0.9831
   39MOL   H72628922   6.422   1.572   4.581  0.5578 -1.3201  0.4139
   39MOL   H72728923   6.432   1.356   4.678  0.7914  0.9201 -1.6191
   39MOL   H72828924   6.263   1.357   4.722  0.7173  0.7249 -0.7528
   39MOL   H72928925   6.289   1.510   4.891  0.4391 -0.9906  1.1850
   39MOL   H73028926   6.448   1.558   4.858  0.3633  0.0760  1.7003
   39MOL   H73128927   6.550   1.385   4.952 -0.0502  0.4035  0.9394
   39MOL   H73228928   6.416   1.266   4.917 -1.1215  1.2569 -1.9472
   39MOL   H73328929   6.284   1.373   5.103 -0.1154  0.4719  0.4874
   39MOL   H73428930   6.402   1.493   5.134 -1.7272  1.1602 -2.2560
   39MOL   H73528931   6.552   1.316   5.220  0.2357 -1.5063 -0.1826
   39MOL   H73628932   6.408   1.208   5.181 -0.8771 -0.2533  1.4529
   39MOL   H73728933   6.272   1.349   5.332 -0.2048  3.8553  1.2965
   39MOL   H73828934   6.410   1.434   5.376 -0.2342  0.5567  1.7082
   39MOL   H73928935   6.516   1.192   5.423  0.2700  3.8508 -1.2466
   39MOL   H74028936   6.346   1.133   5.414 -1.4512  1.0638 -1.7110
   39MOL   H74128937   6.377   1.161   5.625  3.0373 -1.4136  0.5700
   39MOL   H74228938   6.306   1.305   5.594 -0.1708  0.6196  0.0512
   40MOL     C128939   0.678   5.684   0.333  0.1811  0.6059 -0.1419
   40MOL     O228940   0.667   5.628   0.445 -0.0637  0.2892  0.0670
   40MOL     C328941   0.704   5.828   0.323  0.3092  0.4454 -0.9585
   40MOL     C428942   0.574   5.917   0.328  0.1019 -0.2699 -0.1725
   40MOL     C528943   0.495   5.912   0.194 -0.0081 -0.0555 -0.2461
   40MOL     C628944   0.374   6.010   0.196 -0.3183  0.4729  0.0878
   40MOL     C728945   0.300   6.038   0.063 -0.3083  0.5123  0.5608
   40MOL     C828946   0.187   6.146   0.074  0.3636 -0.2868 -0.0389
   40MOL     C928947   0.069   6.108   0.166 -0.5013  0.3264  0.3536
   40MOL    C1028948   7.682   5.991   0.105  0.3034 -0.0624 -0.1942
   40MOL    C1128949   7.562   5.932   0.197  0.0358 -0.2395  0.3350
   40MOL    C1228950   7.611   5.861   0.322  0.3468  0.0518 -0.0283
   40MOL    C1328951   7.490   5.782   0.379 -0.6201  0.2130 -0.5144
   40MOL    N1428952   7.511   5.749   0.521 -0.5271  0.2438  0.1937
   40MOL    H1528953   0.766   5.850   0.237  0.2744 -0.6798 -1.2872
   40MOL    H1628954   0.771   5.849   0.406  0.4672 -2.2717 -0.3470
   40MOL    H1728955   0.499   5.876   0.397 -2.1912  1.3697 -1.5950
   40MOL    H1828956   0.594   6.019   0.362  0.8124 -0.8446  1.1728
   40MOL    H1928957   0.462   5.809   0.183  0.2507 -0.0879 -0.7203
   40MOL    H2028958   0.559   5.934   0.109 -0.4297  4.6256  0.4949
   40MOL    H2128959   0.295   5.984   0.268  0.7542 -1.9100  0.4693
   40MOL    H2228960   0.410   6.109   0.222  0.2215  0.0037  1.2008
   40MOL    H2328961   0.253   5.949   0.020 -2.2303  2.4810 -1.5571
   40MOL    H2428962   0.364   6.067   7.673  0.1499 -1.6830  0.1072
   40MOL    H2528963   0.152   6.173   7.669  0.2309 -0.7457 -0.1216
   40MOL    H2628964   0.226   6.238   0.116 -3.6431  0.8196  1.3650
   40MOL    H2728965   0.012   6.197   0.194 -0.7017 -0.0772  1.2295
   40MOL    H2828966   0.109   6.072   0.261  2.7454 -1.0556 -1.4403
   40MOL    H2928967   0.056   5.911   0.077 -0.5060 -1.5421  1.8993
   40MOL    H3028968   7.642   6.024   0.009  0.4080 -0.7482 -0.4757
   40MOL    H3128969   7.507   5.856   0.141  0.6671 -0.7914  0.4661
   40MOL    H3228970   7.486   6.000   0.236 -1.9410 -1.5911 -1.0419
   40MOL    H3328971   7.638   5.945   0.386 -1.0319 -0.6093  1.4566
   40MOL    H3428972   0.006   5.798   0.313 -0.4744 -1.1187  0.0602
   40MOL    H3528973   7.488   5.687   0.326 -2.2362  1.3291 -2.5733
   40MOL    H3628974   7.395   5.832   0.360 -0.2923  0.0437 -2.8242
   40MOL    H3728975   7.554   5.824   0.575 -0.0988 -1.2895  2.0135
   40MOL    H3828976   0.676   5.638   0.233  0.4695 -0.8814  0.5191
   40MOL    C3928977   7.463   5.636   0.576  0.2623  0.0638 -0.2794
   40MOL    O4028978   7.397   5.557   0.510 -0.3911  0.1431 -0.3670
   40MOL    C4128979   7.490   5.621   0.724  0.1162  0.0029  0.1507
   40MOL    C4228980   7.361   5.647   0.806  0.6631  0.0920 -0.0946
   40MOL    C4328981   7.328   5.790   0.854 -0.6090  0.0425  0.0038
   40MOL    C4428982   7.181   5.803   0.891 -0.1832 -0.3890  0.8558
   40MOL    C4528983   7.162   5.943   0.960 -0.1458  0.9427  0.1861
   40MOL    C4628984   7.020   5.976   0.977  0.6715 -0.5423 -0.3036
   40MOL    C4728985   7.009   6.115   1.051 -0.1157  0.5516 -0.0962
   40MOL    C4828986   6.912   6.115   1.167  0.5649  0.0878 -0.6266
   40MOL    C4928987   6.948   6.024   1.285 -0.3256  0.6798 -0.0700
   40MOL    C5028988   6.851   6.013   1.401  0.4056 -0.1936  0.0166
   40MOL    C5128989   6.891   5.952   1.530  0.3264 -0.2528 -0.4297
   40MOL    N5228990   6.965   5.831   1.497  1.1253  0.1576 -0.7158
   40MOL    H5328991   7.573   5.686   0.753 -2.1988  2.8918  0.5240
   40MOL    H5428992   7.508   5.514   0.734 -0.8809  0.0999  4.3979
   40MOL    H5528993   7.275   5.594   0.765  1.0620 -0.3451 -0.3729
   40MOL    H5628994   7.376   5.591   0.899 -0.2610  1.1953  0.7343
   40MOL    H5728995   7.364   5.872   0.792 -0.7541  1.3111  1.5753
   40MOL    H5828996   7.382   5.803   0.947  0.9462  0.6836 -0.9661
   40MOL    H5928997   7.120   5.796   0.801  1.4720  0.0956 -0.3302
   40MOL    H6028998   7.133   5.727   0.953 -0.7148 -1.3597 -0.7208
   40MOL    H6128999   7.210   6.020   0.899 -1.2938  1.9138  0.5042
   40MOL    H6229000   7.219   5.928   1.052  0.2623  1.4573  0.0219
   40MOL    H6329001   6.962   5.898   1.026  0.4963  0.6650  1.4733
   40MOL    H6429002   6.977   5.978   0.877  1.1385  0.6673 -0.4893
   40MOL    H6529003   6.998   6.202   0.986  1.0197  1.4393  0.8845
   40MOL    H6629004   7.102   6.126   1.106  0.5008  0.5163 -1.1277
   40MOL    H6729005   6.807   6.103   1.141  0.3138  2.1558 -0.6964
   40MOL    H6829006   6.918   6.215   1.212 -0.3252 -1.0585  2.1396
   40MOL    H6929007   7.040   6.057   1.331 -1.2138 -0.1572  2.3950
   40MOL    H7029008   6.982   5.928   1.247 -0.9075  0.6873 -0.6256
   40MOL    H7129009   6.769   5.951   1.364  0.0003  0.3362  0.0028
   40MOL    H7229010   6.796   6.107   1.412  0.6010 -0.0574 -0.1783
   40MOL    H7329011   6.798   5.929   1.582  0.0387  0.3713 -0.6602
   40MOL    H7429012   6.957   6.014   1.590  0.2576 -0.5008 -0.0981
   40MOL    H7529013   7.062   5.826   1.471  1.5727  0.9439  0.7902
   40MOL    C7629014   6.896   5.719   1.478  0.2350  0.2126  0.3077
   40MOL    O7729015   6.773   5.713   1.476 -0.0077 -0.1798 -0.4150
   40MOL    C7829016   6.979   5.598   1.452 -0.0760  0.1302 -0.3046
   40MOL    C7929017   7.011   5.575   1.301 -0.6391 -0.0767 -0.1894
   40MOL    C8029018   7.121   5.475   1.270 -0.1922 -0.0458 -0.0400
   40MOL    C8129019   7.152   5.460   1.121 -0.1062 -0.0317  0.0743
   40MOL    C8229020   7.246   5.337   1.106 -0.6182  0.2164  0.6660
   40MOL    C8329021   7.173   5.195   1.098  0.2723  0.3480 -0.1814
   40MOL    C8429022   7.270   5.076   1.082  0.8357 -0.1314 -0.0413
   40MOL    C8529023   7.195   4.946   1.064 -0.1777 -0.3365 -0.2222
   40MOL    C8629024   7.291   4.819   1.082 -0.1334 -0.1983  0.9700
   40MOL    C8729025   7.201   4.699   1.074 -0.1304  0.3434 -0.1666
   40MOL    C8829026   7.119   4.677   1.201 -0.3885 -0.1580  0.1284
   40MOL    N8929027   7.085   4.534   1.205 -0.0718 -0.4032 -0.5517
   40MOL    H9029028   6.930   5.509   1.489 -2.1526  1.4856  0.2869
   40MOL    H9129029   7.075   5.601   1.504 -0.4942  0.9124  0.4225
   40MOL    H9229030   6.918   5.543   1.255  0.2497  0.2791 -2.3106
   40MOL    H9329031   7.039   5.674   1.264 -0.5236  1.6236  4.1221
   40MOL    H9429032   7.080   5.383   1.311 -2.3322  0.4927 -0.9460
   40MOL    H9529033   7.200   5.500   1.342 -1.9284 -0.2178  1.9788
   40MOL    H9629034   7.065   5.447   1.057 -0.4322  0.0100  0.5086
   40MOL    H9729035   7.195   5.552   1.081  1.7458  1.0483  4.2608
   40MOL    H9829036   7.314   5.353   1.190 -0.2362 -0.7554  0.5490
   40MOL    H9929037   7.305   5.349   1.014 -2.2623 -0.2271 -0.4601
   40MOL   H10029038   7.104   5.200   1.014 -2.7220  0.8170  2.2005
   40MOL   H10129039   7.115   5.184   1.190  0.1183  1.5985 -0.1202
   40MOL   H10229040   7.331   5.078   1.172 -1.8284  1.0154  1.7915
   40MOL   H10329041   7.336   5.092   0.996 -1.4783 -0.9094 -2.0047
   40MOL   H10429042   7.147   4.938   0.967 -0.5074 -0.6296 -0.0349
   40MOL   H10529043   7.123   4.931   1.144 -2.3089  1.1003 -1.8206
   40MOL   H10629044   7.354   4.821   1.171  2.1383  0.0139 -0.6161
   40MOL   H10729045   7.357   4.822   0.996 -0.2745  1.9475  0.9158
   40MOL   H10829046   7.265   4.611   1.065  0.7384  0.9399  0.0552
   40MOL   H10929047   7.140   4.696   0.984 -0.0629  1.3068 -0.2517
   40MOL   H11029048   7.031   4.736   1.175 -2.1684 -0.9181  4.1465
   40MOL   H11129049   7.160   4.723   1.290 -2.5064 -0.4906  1.2861
   40MOL   H11229050   7.005   4.507   1.150 -0.4005  0.4139 -0.4791
   40MOL   C11329051   7.151   4.445   1.281 -0.1820  0.3794  0.3045
   40MOL   O11429052   7.224   4.478   1.371 -0.3009 -0.2318  0.1064
   40MOL   C11529053   7.124   4.301   1.245  0.1222 -0.3641 -0.0025
   40MOL   C11629054   7.238   4.213   1.279  0.4545  0.2393  0.0817
   40MOL   C11729055   7.343   4.193   1.171  0.2919  0.1431 -0.1649
   40MOL   C11829056   7.447   4.310   1.165 -0.6409 -0.1068  0.9650
   40MOL   C11929057   7.555   4.286   1.062 -0.0465 -0.0936 -1.0141
   40MOL   C12029058   7.670   4.386   1.066  0.4249  0.6001  0.2217
   40MOL   C12129059   7.627   4.517   1.003 -0.7189 -0.0773 -0.2595
   40MOL   C12229060   0.043   4.632   1.007 -0.1086  0.4228  0.7538
   40MOL   C12329061   7.679   4.770   1.015  0.0425 -0.6076  0.3331
   40MOL   C12429062   0.071   4.891   0.992 -0.4690  0.0413  0.2300
   40MOL   C12529063   7.679   5.018   0.982 -0.1468  0.6853  0.4758
   40MOL   N12629064   0.075   5.124   0.965  0.7491  0.4299 -0.6332
   40MOL   H12729065   7.093   4.289   1.141  1.3029 -1.3876 -0.2466
   40MOL   H12829066   7.035   4.275   1.302  1.9490 -1.3517  2.4820
   40MOL   H12929067   7.269   4.241   1.379  0.2896 -2.4561  0.9189
   40MOL   H13029068   7.194   4.116   1.304 -0.7151  1.1663  1.6598
   40MOL   H13129069   7.289   4.169   1.079  1.8768 -2.4631 -0.4603
   40MOL   H13229070   7.387   4.095   1.191  1.3257  0.5148 -0.5980
   40MOL   H13329071   7.403   4.406   1.139 -1.0091 -0.9533 -1.6873
   40MOL   H13429072   7.482   4.339   1.264 -2.0764  0.2211  1.3863
   40MOL   H13529073   7.507   4.264   0.967 -0.8600 -0.9353 -0.4180
   40MOL   H13629074   7.612   4.200   1.097  0.2439  0.0849 -1.0469
   40MOL   H13729075   0.063   4.352   1.010 -0.4107 -1.8454  0.3627
   40MOL   H13829076   0.013   4.398   1.168 -1.2605  0.9626  0.8130
   40MOL   H13929077   7.534   4.552   1.047 -0.4537 -0.4615  0.6108
   40MOL   H14029078   7.599   4.488   0.902 -0.7116  0.6534 -0.4755
   40MOL   H14129079   0.101   4.619   0.916 -1.1439  1.0634 -0.0050
   40MOL   H14229080   0.117   4.613   1.085 -0.4376 -2.9104  0.3198
   40MOL   H14329081   7.627   4.786   1.110 -0.7618 -0.4356 -0.1278
   40MOL   H14429082   7.609   4.780   0.932  0.5203  0.4013  0.0433
   40MOL   H14529083   0.145   4.872   0.915  0.2718  1.6302  0.5214
   40MOL   H14629084   0.127   4.907   1.084  0.0865 -0.1708 -0.0686
   40MOL   H14729085   7.612   5.040   1.065  0.7081 -1.1725  1.7013
   40MOL   H14829086   7.614   5.019   0.894  0.2860  3.4141  0.1632
   40MOL   H14929087   0.169   5.101   0.937  1.1081 -0.6915  1.4035
   40MOL   C15029088   0.037   5.253   0.943  0.0179 -0.9587  1.0197
   40MOL   O15129089   7.610   5.283   0.944  0.7232 -0.3752 -0.5496
   40MOL   C15229090   0.149   5.361   0.931  0.2864 -0.5301 -0.3226
   40MOL   C15329091   0.111   5.504   0.976 -0.5559  0.3303  0.7107
   40MOL   C15429092   0.226   5.602   0.992  0.3685 -0.3923  0.4309
   40MOL   C15529093   0.187   5.752   1.016  0.3307 -0.0189  0.3602
   40MOL   C15629094   0.309   5.830   1.060 -0.0933 -0.3394  0.4055
   40MOL   C15729095   0.376   5.782   1.191 -0.1360  0.9762 -0.4236
   40MOL   C15829096   0.476   5.879   1.244 -0.3239  0.3137 -0.1458
   40MOL   C15929097   0.569   5.817   1.342 -0.3010  0.2686 -0.5450
   40MOL   C16029098   0.685   5.735   1.281  0.4217  0.0144 -0.6387
   40MOL   C16129099   0.804   5.819   1.220  0.7227 -0.2166  0.1517
   40MOL   C16229100   0.910   5.729   1.142 -0.6833  1.0869 -0.5098
   40MOL   N16329101   1.011   5.811   1.075 -0.4545 -0.2071 -0.0442
   40MOL   H16429102   0.192   5.351   0.831  1.5146 -2.7094  0.3905
   40MOL   H16529103   0.224   5.317   0.998  0.9707 -1.3667 -1.6224
   40MOL   H16629104   0.046   5.548   0.900  1.3767  1.5764 -0.2652
   40MOL   H16729105   0.062   5.500   1.073  3.1452 -0.2214  2.6295
   40MOL   H16829106   0.288   5.596   0.902 -0.7674  0.9770 -0.4653
   40MOL   H16929107   0.291   5.571   1.074 -0.9746 -2.8526  0.6260
   40MOL   H17029108   0.157   5.800   0.923 -0.4552 -0.1087  0.5654
   40MOL   H17129109   0.116   5.751   1.098 -2.9000  0.3356 -2.3072
   40MOL   H17229110   0.274   5.932   1.076  1.6661  0.1117  1.4513
   40MOL   H17329111   0.367   5.838   0.968 -1.2789  2.0409 -0.1615
   40MOL   H17429112   0.441   5.697   1.166  0.3934  1.6658 -1.3923
   40MOL   H17529113   0.301   5.758   1.267 -1.7160  0.4701 -2.1198
   40MOL   H17629114   0.423   5.963   1.289  0.0580  0.9282 -0.8192
   40MOL   H17729115   0.532   5.925   1.162  0.8275  1.4835  1.2593
   40MOL   H17829116   0.510   5.760   1.413  0.4406  1.8120  1.3452
   40MOL   H17929117   0.613   5.898   1.400 -0.7338 -1.4894  2.3264
   40MOL   H18029118   0.651   5.661   1.208  2.5458 -2.1112  0.4697
   40MOL   H18129119   0.716   5.676   1.367 -2.6089 -1.0739 -0.2190
   40MOL   H18229120   0.851   5.867   1.306 -1.3659  0.7844  0.7422
   40MOL   H18329121   0.752   5.891   1.157  0.1862 -0.7890 -0.0629
   40MOL   H18429122   0.850   5.662   1.080 -1.1829  1.2907 -0.2453
   40MOL   H18529123   0.967   5.672   1.215 -0.8250 -0.8639 -1.8646
   40MOL   H18629124   1.016   5.907   1.108 -1.6345  0.1613 -0.9049
   40MOL   C18729125   1.086   5.770   0.975  0.1519  0.6174  0.6009
   40MOL   O18829126   1.083   5.661   0.925  0.6276 -0.3006 -0.4517
   40MOL   C18929127   1.184   5.875   0.919 -0.5572  0.5873 -0.1116
   40MOL   C19029128   1.329   5.858   0.969 -0.1197 -0.4092  0.9221
   40MOL   C19129129   1.357   5.876   1.118 -0.2618  0.0646 -0.3886
   40MOL   C19229130   1.332   6.023   1.176 -0.7788 -0.2423  0.1967
   40MOL   C19329131   1.407   6.137   1.107  0.3954  0.1276 -0.5443
   40MOL   C19429132   1.399   6.272   1.177  0.3341 -0.0411  0.4377
   40MOL   C19529133   1.500   6.375   1.113  0.5970 -0.2986 -0.1886
   40MOL   C19629134   1.454   6.455   0.994 -0.6588 -0.0790  0.7936
   40MOL   C19729135   1.412   6.380   0.867 -0.2993  1.1921  0.2168
   40MOL   C19829136   1.529   6.307   0.797 -0.1474  0.0818 -0.1766
   40MOL   C19929137   1.480   6.194   0.707  0.3267  0.3597  0.1389
   40MOL   N20029138   1.587   6.115   0.645 -0.3496  0.1923 -0.0160
   40MOL   H20129139   1.139   5.969   0.953 -0.7997 -0.2608  2.0439
   40MOL   H20229140   1.187   5.879   0.811  2.2201 -1.2043 -0.1442
   40MOL   H20329141   1.350   5.752   0.954  0.5347 -0.1587 -0.0153
   40MOL   H20429142   1.395   5.912   0.901  0.3094 -1.0606  0.8171
   40MOL   H20529143   1.460   5.846   1.138 -0.5999 -1.8568 -1.4297
   40MOL   H20629144   1.304   5.812   1.189 -1.7396  3.2786  1.5234
   40MOL   H20729145   1.225   6.040   1.193 -1.0783  0.6872 -2.3804
   40MOL   H20829146   1.351   6.028   1.284  1.1768  4.5907 -0.2430
   40MOL   H20929147   1.368   6.142   1.005 -0.6216  1.4360 -0.1159
   40MOL   H21029148   1.513   6.116   1.101 -0.1995 -2.9546 -0.8363
   40MOL   H21129149   1.417   6.265   1.284 -0.7944  0.5506  0.6659
   40MOL   H21229150   1.301   6.317   1.187  0.6708  0.6858  0.4686
   40MOL   H21329151   1.598   6.332   1.093  1.1578  0.1444  1.4627
   40MOL   H21429152   1.517   6.449   1.192 -0.0306 -1.5135  1.0915
   40MOL   H21529153   1.543   6.510   0.963 -2.3625  2.2767 -0.0690
   40MOL   H21629154   1.375   6.526   1.017 -0.3928  0.8896 -1.1359
   40MOL   H21729155   1.375   6.453   0.795 -1.8040  0.2351 -0.0018
   40MOL   H21829156   1.337   6.308   0.897  1.3576  0.0170  1.6408
   40MOL   H21929157   1.593   6.268   0.876 -1.7592  1.3865  1.8697
   40MOL   H22029158   1.598   6.370   0.741  0.9896 -0.7580  0.2647
   40MOL   H22129159   1.409   6.222   0.629 -0.4699  1.0589  1.0946
   40MOL   H22229160   1.429   6.124   0.774  0.0575  0.4310  0.0079
   40MOL   H22329161   1.606   6.137   0.548  2.7432  0.0669  0.4899
   40MOL   C22429162   1.634   5.997   0.680  0.6402 -0.3931 -0.3370
   40MOL   O22529163   1.607   5.945   0.789 -0.0792  0.2299  0.3902
   40MOL   C22629164   1.712   5.926   0.568  0.1055  0.0677  0.1318
   40MOL   C22729165   1.809   5.822   0.628 -0.0129  0.2175  0.1941
   40MOL   C22829166   1.944   5.894   0.674  0.5829 -0.7982 -0.9843
   40MOL   C22929167   2.044   5.809   0.751 -0.5534  0.2813  0.1507
   40MOL   C23029168   2.112   5.701   0.663  0.5691 -0.3018  0.0084
   40MOL   C23129169   2.223   5.627   0.741 -0.4354  0.1952  0.3015
   40MOL   C23229170   2.318   5.555   0.647 -0.1735 -0.0823 -0.3406
   40MOL   C23329171   2.231   5.447   0.573  0.2001 -0.0913 -0.4844
   40MOL   C23429172   2.307   5.353   0.479 -0.9027  0.4681 -0.1003
   40MOL   C23529173   2.224   5.253   0.404 -0.1166 -0.1472  0.1433
   40MOL   C23629174   2.313   5.184   0.298  0.9224 -0.6872 -0.2393
   40MOL   N23729175   2.233   5.086   0.220  0.0134  0.2228 -0.6884
   40MOL   H23829176   1.755   5.993   0.494  0.1264 -1.2978 -1.1165
   40MOL   H23929177   1.638   5.860   0.522  2.1151 -0.2501 -2.7829
   40MOL   H24029178   1.776   5.753   0.706  1.1802  0.3134  0.7898
   40MOL   H24129179   1.843   5.762   0.544  0.8713 -0.5361  1.0804
   40MOL   H24229180   1.913   5.972   0.744  0.7254 -1.9405  0.3874
   40MOL   H24329181   1.988   5.953   0.594  1.4530  2.9667  2.1037
   40MOL   H24429182   2.121   5.879   0.785  2.0978 -1.2385 -2.5239
   40MOL   H24529183   1.993   5.760   0.834 -1.6031  0.2920 -0.4777
   40MOL   H24629184   2.139   5.747   0.568 -0.3860 -0.0255 -0.1371
   40MOL   H24729185   2.044   5.622   0.631  0.5323 -0.0806 -0.4740
   40MOL   H24829186   2.175   5.571   0.821 -0.6253 -2.0851 -1.3818
   40MOL   H24929187   2.286   5.695   0.799  0.4120  0.2359 -0.6578
   40MOL   H25029188   2.404   5.504   0.690  0.2699  0.7193 -0.2788
   40MOL   H25129189   2.380   5.617   0.583 -1.5354  2.7112  0.9672
   40MOL   H25229190   2.150   5.492   0.515  0.3977  1.4017  0.3682
   40MOL   H25329191   2.186   5.386   0.651  0.0534 -0.9600 -1.2398
   40MOL   H25429192   2.386   5.303   0.535 -1.0078  0.6652  0.2270
   40MOL   H25529193   2.350   5.411   0.397  1.2590  0.8490  1.2666
   40MOL   H25629194   2.152   5.310   0.346 -0.2257  0.9070  1.2960
   40MOL   H25729195   2.176   5.182   0.472  1.1356 -0.3260  0.8509
   40MOL   H25829196   2.391   5.131   0.353 -0.2539 -0.8902  1.2802
   40MOL   H25929197   2.368   5.253   0.235 -0.2134  1.5580  1.1578
   40MOL   H26029198   2.181   5.021   0.277 -0.1467  0.3800 -0.6538
   40MOL   C26129199   2.205   5.100   0.090 -0.0395  0.6565  0.5073
   40MOL   O26229200   2.263   5.182   0.014  0.0469 -0.2735 -0.1026
   40MOL   C26329201   2.104   4.997   0.044 -0.0151 -0.4642 -0.2506
   40MOL   C26429202   1.978   5.065   7.673  0.3564  0.1380 -0.0690
   40MOL   C26529203   1.967   5.037   7.519 -0.1148  0.0862  0.3512
   40MOL   C26629204   1.861   5.111   7.444 -0.6130  0.4932 -0.2670
   40MOL   C26729205   1.846   5.082   7.289 -0.1374 -0.3272 -0.0171
   40MOL   C26829206   1.737   5.168   7.223 -0.3637  0.2482  0.4898
   40MOL   C26929207   1.713   5.157   7.074 -0.5645 -0.2408 -0.4075
   40MOL   C27029208   1.827   5.210   6.987  0.2077  0.2593  0.0977
   40MOL   C27129209   1.871   5.358   6.999 -0.1473  0.2364  0.2583
   40MOL   C27229210   1.983   5.392   6.898  0.1322  0.5107  0.3342
   40MOL   C27329211   2.014   5.545   6.884 -0.6778  0.7127  0.8767
   40MOL   N27429212   2.128   5.588   6.802 -0.0886 -0.1038 -0.2625
   40MOL   H27529213   2.080   4.922   0.119  0.9806 -1.1072 -0.5775
   40MOL   H27629214   2.153   4.943   7.657 -1.3149  1.2824 -2.2818
   40MOL   H27729215   1.883   5.029   0.021 -0.6019  2.0078 -0.5963
   40MOL   H27829216   1.973   5.172   7.692 -4.9341 -0.0744  0.5638
   40MOL   H27929217   1.964   4.931   7.497 -1.7815 -0.0550  1.1914
   40MOL   H28029218   2.059   5.069   7.469 -0.0781 -0.7749 -0.1352
   40MOL   H28129219   1.765   5.079   7.485  1.4208 -2.7427  2.1524
   40MOL   H28229220   1.872   5.220   7.448 -0.2034  0.4146  0.9327
   40MOL   H28329221   1.821   4.976   7.285 -0.3750 -0.2429 -0.8050
   40MOL   H28429222   1.941   5.100   7.239  0.7674 -1.4028  1.2840
   40MOL   H28529223   1.766   5.270   7.249 -2.5772  1.9033 -3.1904
   40MOL   H28629224   1.641   5.154   7.272 -0.8463 -0.0810 -0.5397
   40MOL   H28729225   1.624   5.218   7.062 -0.3510  0.0308 -0.6389
   40MOL   H28829226   1.683   5.055   7.053  1.2505 -0.8130 -0.2710
   40MOL   H28929227   1.800   5.206   6.882  0.6240  2.3724 -0.1281
   40MOL   H29029228   1.919   5.154   6.997 -1.5756 -2.8938 -0.6151
   40MOL   H29129229   1.906   5.384   7.099  2.0497  0.4132 -0.5208
   40MOL   H29229230   1.787   5.422   6.975  0.8515  1.5939  0.3408
   40MOL   H29329231   1.957   5.358   6.798 -0.5338  2.6908 -0.2550
   40MOL   H29429232   2.064   5.326   6.932 -0.5555 -0.7626 -0.4683
   40MOL   H29529233   2.036   5.575   6.987  0.7225 -0.1677  0.8467
   40MOL   H29629234   1.930   5.608   6.856 -0.3133  1.9424  2.4324
   40MOL   H29729235   2.220   5.559   6.833 -0.0173  0.6995  0.3112
   40MOL   C29829236   2.126   5.624   6.674 -0.8357 -0.1948 -0.4532
   40MOL   O29929237   2.023   5.656   6.618  0.0467  0.0969  0.9304
   40MOL   C30029238   2.261   5.637   6.610  0.3307  1.1341  0.1612
   40MOL   C30129239   2.285   5.527   6.499  0.0848 -0.4576 -0.3252
   40MOL   C30229240   2.306   5.386   6.545 -0.3588 -0.1573 -0.0187
   40MOL   C30329241   2.177   5.308   6.539 -0.3693  0.1421 -0.2598
   40MOL   C30429242   2.184   5.177   6.616  0.6356  0.0064  0.8371
   40MOL   C30529243   2.055   5.093   6.616 -0.0415  0.4677 -0.2031
   40MOL   C30629244   2.083   4.946   6.661 -0.2311  0.2694  0.1372
   40MOL   C30729245   2.146   4.863   6.551 -0.2139 -0.4694 -0.4155
   40MOL   C30829246   2.149   4.713   6.580  0.2414  0.6187  1.1034
   40MOL   C30929247   2.195   4.623   6.465 -0.5007  0.3948  1.1282
   40MOL   C31029248   2.122   4.660   6.335 -0.0143  0.0520 -0.4497
   40MOL   N31129249   2.133   4.546   6.246 -1.1213  0.2623 -0.0043
   40MOL   H31229250   2.341   5.634   6.685  1.4055 -0.0996 -1.0190
   40MOL   H31329251   2.274   5.738   6.570 -0.2006  0.9429 -0.5013
   40MOL   H31429252   2.215   5.537   6.415  1.2649  4.3913 -0.8841
   40MOL   H31529253   2.384   5.554   6.462  0.9129 -1.9457  0.7785
   40MOL   H31629254   2.342   5.391   6.647  1.3225  0.6869 -0.6325
   40MOL   H31729255   2.369   5.329   6.476  0.2602  0.9650 -0.3932
   40MOL   H31829256   2.100   5.374   6.578  1.0522  1.9667 -0.4386
   40MOL   H31929257   2.143   5.281   6.439 -2.3238 -1.1194  0.7155
   40MOL   H32029258   2.216   5.201   6.717 -0.4266  1.5485  0.8103
   40MOL   H32129259   2.271   5.127   6.573  0.3327  0.0058  0.2210
   40MOL   H32229260   2.001   5.094   6.521 -2.7886 -3.2818  1.2017
   40MOL   H32329261   1.980   5.131   6.686  0.1110 -0.9999  0.7623
   40MOL   H32429262   1.994   4.894   6.697 -0.6159  0.0009 -1.1958
   40MOL   H32529263   2.151   4.948   6.747  1.5039  1.0509 -1.2096
   40MOL   H32629264   2.246   4.903   6.537 -0.1306  0.7504  3.2225
   40MOL   H32729265   2.081   4.877   6.465  1.9517  2.2727 -1.6938
   40MOL   H32829266   2.059   4.666   6.619  0.3685 -1.2715 -0.7710
   40MOL   H32929267   2.222   4.697   6.659  0.0938  1.6579  1.4637
   40MOL   H33029268   2.165   4.526   6.505 -2.4289  0.9785  1.1472
   40MOL   H33129269   2.303   4.615   6.451 -0.7839  0.6234 -1.4725
   40MOL   H33229270   2.171   4.745   6.287 -0.0908  0.3168 -0.0589
   40MOL   H33329271   2.017   4.682   6.355 -0.8665 -2.3543 -2.0867
   40MOL   H33429272   2.223   4.545   6.201 -0.9578  1.2996  0.2758
   40MOL   C33529273   2.035   4.463   6.216 -0.4090 -0.7472  0.1309
   40MOL   O33629274   1.922   4.471   6.264 -0.0052 -0.3513  0.2980
   40MOL   C33729275   2.074   4.340   6.132  0.4337 -0.5145 -0.2765
   40MOL   C33829276   2.060   4.203   6.201 -0.1810  0.5858  0.5600
   40MOL   C33929277   2.164   4.180   6.312 -0.5298 -0.7211  0.4391
   40MOL   C34029278   2.137   4.052   6.401 -0.4649  0.0712 -0.6041
   40MOL   C34129279   2.231   4.041   6.521 -0.6907 -0.1616  0.2367
   40MOL   C34229280   2.198   3.930   6.618  0.0286  0.0109 -0.4743
   40MOL   C34329281   2.300   3.904   6.734  0.0495  0.1289  0.2301
   40MOL   C34429282   2.255   3.786   6.819 -0.9486 -0.0911  0.8377
   40MOL   C34529283   2.345   3.760   6.946 -0.5301  0.5532  0.7564
   40MOL   C34629284   2.316   3.854   7.059  0.7101 -0.5252 -0.2144
   40MOL   C34729285   2.396   3.846   7.194  0.3087 -0.0855  0.0327
   40MOL   N34829286   2.353   3.954   7.279  0.2894  0.1960  0.2181
   40MOL   H34929287   2.169   4.355   6.082  1.4421 -1.2029  1.4173
   40MOL   H35029288   2.003   4.334   6.049 -1.2102 -0.9652  1.1376
   40MOL   H35129289   1.964   4.186   6.250 -0.1219  0.3641  0.5967
   40MOL   H35229290   2.057   4.119   6.131 -1.4601  0.2440  1.0014
   40MOL   H35329291   2.177   4.270   6.372 -0.4206  0.0566 -0.7353
   40MOL   H35429292   2.260   4.166   6.262 -0.0519 -0.3879  1.2726
   40MOL   H35529293   2.031   4.045   6.424 -0.3210  1.1835  0.4691
   40MOL   H35629294   2.159   3.973   6.330 -0.3015 -0.2922 -0.1517
   40MOL   H35729295   2.237   4.128   6.587  3.0341 -0.5676  0.5686
   40MOL   H35829296   2.336   4.030   6.494 -0.8339 -1.7463  0.2794
   40MOL   H35929297   2.200   3.835   6.564  0.8295 -0.0825 -0.2880
   40MOL   H36029298   2.094   3.935   6.652  1.1332  0.1981  3.1043
   40MOL   H36129299   2.302   3.989   6.801 -3.2522 -1.3374  2.3409
   40MOL   H36229300   2.400   3.884   6.694 -0.3369  0.1451 -0.7668
   40MOL   H36329301   2.264   3.693   6.763 -0.3775 -0.0202  0.8018
   40MOL   H36429302   2.150   3.805   6.842 -1.2914  1.5346 -1.8871
   40MOL   H36529303   2.452   3.747   6.929 -0.7037 -0.3190  0.2957
   40MOL   H36629304   2.312   3.661   6.978  1.4836 -1.3494 -2.8054
   40MOL   H36729305   2.215   3.818   7.079  1.4489 -2.0497  0.8963
   40MOL   H36829306   2.298   3.956   7.026 -0.3783 -1.3699 -2.2736
   40MOL   H36929307   2.505   3.854   7.197  0.1901  3.6532 -1.9825
   40MOL   H37029308   2.367   3.754   7.245 -1.4037  0.2155 -0.3815
   40MOL   H37129309   2.297   3.918   7.355 -1.2354 -0.1524 -1.0265
   40MOL   C37229310   2.375   4.086   7.276  0.0574 -0.2749 -0.3068
   40MOL   O37329311   2.318   4.165   7.352  0.2387  0.3374  0.5143
   40MOL   C37429312   2.471   4.144   7.174 -0.3539  0.5017  0.4655
   40MOL   C37529313   2.425   4.266   7.100 -0.2987 -1.0662 -0.4638
   40MOL   C37629314   2.302   4.238   7.013  0.4856 -0.2809  0.2863
   40MOL   C37729315   2.269   4.346   6.917 -0.3253 -0.0965  0.7038
   40MOL   C37829316   2.162   4.313   6.810  0.4949 -0.0020 -0.7828
   40MOL   C37929317   2.023   4.363   6.860  0.1911 -0.7657 -0.1000
   40MOL   C38029318   1.920   4.319   6.765 -0.0818  0.5936 -0.0390
   40MOL   C38129319   1.783   4.382   6.803  0.5231  0.6111  0.1458
   40MOL   C38229320   1.673   4.320   6.712  0.3051  0.0501 -0.1772
   40MOL   C38329321   1.533   4.377   6.747 -0.2142  0.0653 -0.5702
   40MOL   C38429322   1.456   4.301   6.848 -0.6058  0.4621  0.3090
   40MOL   N38529323   1.535   4.281   6.969 -0.0047 -0.4040  0.3080
   40MOL   H38629324   2.497   4.072   7.096 -0.5287  0.5212  0.3896
   40MOL   H38729325   2.567   4.155   7.224 -0.3503 -2.8271  1.3266
   40MOL   H38829326   2.422   4.355   7.162  0.2208  1.9539 -4.5623
   40MOL   H38929327   2.504   4.292   7.029  0.0312  2.9819  1.2568
   40MOL   H39029328   2.215   4.202   7.068  1.1542 -0.8261  0.9916
   40MOL   H39129329   2.338   4.160   6.946 -0.7369 -0.9737  0.4157
   40MOL   H39229330   2.246   4.441   6.966 -2.2057  0.8433 -1.8525
   40MOL   H39329331   2.369   4.349   6.872 -0.5476 -0.6027  0.1829
   40MOL   H39429332   2.165   4.210   6.773 -1.1952 -0.5213  0.4860
   40MOL   H39529333   2.186   4.373   6.722 -1.3709  1.6634 -0.1888
   40MOL   H39629334   2.014   4.471   6.864  2.7392 -0.5094 -0.5864
   40MOL   H39729335   2.003   4.326   6.961 -0.9070  2.9392  1.1237
   40MOL   H39829336   1.901   4.213   6.785  0.7138  0.6449  1.0063
   40MOL   H39929337   1.940   4.335   6.659  0.8648 -1.0316 -0.1205
   40MOL   H40029338   1.780   4.489   6.785  0.7338  0.3883 -1.2858
   40MOL   H40129339   1.765   4.371   6.910 -1.3125  2.1672  0.0276
   40MOL   H40229340   1.663   4.211   6.708  2.5380 -0.1523 -0.9466
   40MOL   H40329341   1.694   4.332   6.606 -1.3065  0.6025 -0.4449
   40MOL   H40429342   1.462   4.372   6.665 -0.4380 -2.0478 -0.2729
   40MOL   H40529343   1.530   4.485   6.765 -0.2470 -0.1399  0.6832
   40MOL   H40629344   1.452   4.197   6.815  0.0147  0.5115  0.0708
   40MOL   H40729345   1.356   4.339   6.866 -0.2154  1.2183  0.9188
   40MOL   H40829346   1.595   4.201   6.981  0.7038 -0.3760 -2.6795
   40MOL   C40929347   1.538   4.364   7.074  1.0972 -0.4518  0.2644
   40MOL   O41029348   1.449   4.451   7.094 -0.2746  0.0955  0.4237
   40MOL   C41129349   1.648   4.350   7.179  0.3234 -0.5686  0.2378
   40MOL   C41229350   1.698   4.492   7.233  0.7266 -0.3886  0.6481
   40MOL   C41329351   1.774   4.579   7.129 -0.2860  0.1274 -0.2701
   40MOL   C41429352   1.809   4.720   7.184 -0.1763  0.1634 -0.0080
   40MOL   C41529353   1.910   4.792   7.098  0.0886 -0.2655 -0.6469
   40MOL   C41629354   2.053   4.748   7.131 -0.3728  0.2460 -0.3345
   40MOL   C41729355   2.164   4.818   7.049 -0.0505 -0.0611 -0.5220
   40MOL   C41829356   2.179   4.965   7.099  0.1756  0.2292  0.5214
   40MOL   C41929357   2.303   5.025   7.024 -0.4225 -0.1989  0.9623
   40MOL   C42029358   2.325   5.172   7.054  0.2303 -0.6439 -0.5943
   40MOL   C42129359   2.469   5.223   7.032  0.3991  0.1193 -0.1884
   40MOL   N42229360   2.483   5.365   7.073  0.4757 -0.3969 -1.1276
   40MOL   H42329361   1.736   4.295   7.144  1.4274  1.6069 -0.4986
   40MOL   H42429362   1.611   4.299   7.268  1.4439 -0.4334  0.7884
   40MOL   H42529363   1.617   4.553   7.273  0.7650  2.4581 -3.2756
   40MOL   H42629364   1.762   4.470   7.319  1.8389 -2.7935 -0.7409
   40MOL   H42729365   1.706   4.605   7.047  0.1866 -0.7242 -0.9526
   40MOL   H42829366   1.860   4.523   7.092 -2.3703 -2.2773 -1.6337
   40MOL   H42929367   1.718   4.780   7.186  0.5691  1.4348 -2.4252
   40MOL   H43029368   1.832   4.716   7.290  1.4670 -2.3140 -0.4243
   40MOL   H43129369   1.906   4.900   7.081 -1.6073 -0.2130 -0.0652
   40MOL   H43229370   1.885   4.757   6.997 -3.3961  0.2684 -0.0528
   40MOL   H43329371   2.049   4.640   7.123  2.0101  0.0962  0.0422
   40MOL   H43429372   2.076   4.785   7.232  1.8644  1.0280 -1.0872
   40MOL   H43529373   2.151   4.803   6.942  0.5170 -0.0546 -0.5913
   40MOL   H43629374   2.259   4.774   7.077 -0.4561 -1.3057 -1.0743
   40MOL   H43729375   2.197   4.964   7.206 -0.8223  1.8748  0.7216
   40MOL   H43829376   2.093   5.029   7.077  0.6576  0.7760  0.2075
   40MOL   H43929377   2.292   5.009   6.916 -1.4837  0.0070  1.0323
   40MOL   H44029378   2.387   4.964   7.057  0.6334  0.3155 -0.7024
   40MOL   H44129379   2.302   5.173   7.161 -0.0403 -3.2076 -0.6087
   40MOL   H44229380   2.255   5.222   6.988  2.3868 -1.1282 -3.3448
   40MOL   H44329381   2.488   5.220   6.924 -1.3918  0.3335 -0.5176
   40MOL   H44429382   2.540   5.162   7.087 -0.6500 -0.4885  0.5018
   40MOL   H44529383   2.528   5.383   7.162  0.9192  0.0276 -1.4330
   40MOL   C44629384   2.417   5.466   7.024  1.0036 -0.0294  0.3246
   40MOL   O44729385   2.355   5.461   6.915 -0.3272  0.2249  0.4237
   40MOL   C44829386   2.422   5.595   7.112 -0.7056  0.5059 -0.5852
   40MOL   C44929387   2.354   5.719   7.051  0.2199 -0.5464 -0.3744
   40MOL   C45029388   2.421   5.805   6.945 -0.6632  0.2082 -0.0213
   40MOL   C45129389   2.320   5.889   6.868 -0.0691 -0.0823  0.3571
   40MOL   C45229390   2.384   5.981   6.758 -0.0632  0.1622  0.4436
   40MOL   C45329391   2.288   6.079   6.694 -1.2228 -0.2344 -0.0364
   40MOL   C45429392   2.355   6.179   6.599  0.3602 -0.4561 -0.1770
   40MOL   C45529393   2.449   6.291   6.650 -0.4630  0.2753 -0.1145
   40MOL   C45629394   2.381   6.390   6.749  0.2336  0.1753  0.0110
   40MOL   C45729395   2.475   6.500   6.786  0.4510 -0.5506  0.0141
   40MOL   C45829396   2.406   6.607   6.869  0.2403  0.5523  0.6270
   40MOL   N45929397   2.499   6.705   6.918 -0.4846  0.2054  0.2568
   40MOL   H46029398   2.523   5.627   7.133 -2.2210  3.4477  2.6386
   40MOL   H46129399   2.366   5.559   7.199  0.3590 -0.6644 -0.3739
   40MOL   H46229400   2.257   5.694   7.008  0.1037 -0.8201  0.0413
   40MOL   H46329401   2.325   5.783   7.133 -0.7812  1.2387 -2.0834
   40MOL   H46429402   2.471   5.737   6.875 -0.5511  0.0522  0.2088
   40MOL   H46529403   2.504   5.855   6.996 -0.1376 -0.5718 -0.0986
   40MOL   H46629404   2.250   5.824   6.818  0.2172 -0.4458  0.4281
   40MOL   H46729405   2.260   5.947   6.938 -0.3916  1.2913 -1.0327
   40MOL   H46829406   2.420   5.916   6.678 -3.0670 -1.3635  0.2623
   40MOL   H46929407   2.462   6.048   6.794 -1.6356  2.0613  0.4291
   40MOL   H47029408   2.232   6.131   6.772  0.3317  1.2433  0.1240
   40MOL   H47129409   2.217   6.020   6.636  0.3827 -1.7749 -0.4646
   40MOL   H47229410   2.272   6.232   6.553 -0.5689 -1.4779  0.2854
   40MOL   H47329411   2.397   6.135   6.509 -0.7316 -0.1007 -0.8693
   40MOL   H47429412   2.475   6.356   6.567 -0.1282 -1.2773 -1.2534
   40MOL   H47529413   2.544   6.251   6.686 -1.7391 -1.3868  1.4835
   40MOL   H47629414   2.350   6.331   6.836  1.2524 -0.2189  0.1131
   40MOL   H47729415   2.300   6.447   6.704  0.6972  1.5018  0.8232
   40MOL   H47829416   2.518   6.553   6.701 -1.9257  0.1391 -0.7846
   40MOL   H47929417   2.557   6.459   6.845  1.5431  2.0504  0.3648
   40MOL   H48029418   2.343   6.560   6.946 -0.5710  1.3280  0.4437
   40MOL   H48129419   2.332   6.662   6.811  2.1352  1.6567 -0.7554
   40MOL   H48229420   2.587   6.669   6.952 -1.0375 -1.1262  0.3356
   40MOL   C48329421   2.470   6.838   6.933 -0.2290 -0.1129 -0.1722
   40MOL   O48429422   2.364   6.895   6.901  0.1356  0.0870  0.5226
   40MOL   C48529423   2.579   6.927   6.992  0.0052 -0.4955  0.2948
   40MOL   C48629424   2.523   7.004   7.112 -0.3512 -0.0669 -0.3389
   40MOL   C48729425   2.640   7.073   7.173 -0.2257 -0.2976 -0.1581
   40MOL   C48829426   2.610   7.165   7.293  0.2992  0.0710  0.7306
   40MOL   C48929427   2.735   7.203   7.373 -0.6833 -0.5921 -0.1054
   40MOL   C49029428   2.701   7.306   7.484 -0.0044  0.6639  0.0826
   40MOL   C49129429   2.814   7.335   7.578 -0.0200  0.1215 -0.3560
   40MOL   C49229430   2.778   7.440   7.680  0.4109  0.2435  0.2776
   40MOL   C49329431   2.877   7.458   0.098 -0.2242  0.0024 -0.1014
   40MOL   C49429432   2.868   7.592   0.172  0.2167 -0.0402  0.0354
   40MOL   C49529433   2.741   7.603   0.254  0.7879  0.3034 -0.4877
   40MOL   N49629434   2.717   0.040   0.323 -0.4815  0.0191  0.3715
   40MOL   H49729435   2.591   7.003   6.915 -1.5617  0.9988  1.4823
   40MOL   H49829436   2.668   6.869   7.015 -0.1115 -0.0056  2.0606
   40MOL   H49929437   2.444   7.076   7.093 -2.4733 -2.0949  0.5624
   40MOL   H50029438   2.478   6.941   7.188 -2.2498  2.4167  0.6467
   40MOL   H50129439   2.697   7.130   7.100  1.1780  1.2874  2.1322
   40MOL   H50229440   2.711   6.999   7.206  1.1769  0.3794 -1.5979
   40MOL   H50329441   2.559   7.259   7.274  0.3641  0.2016  1.1948
   40MOL   H50429442   2.548   7.117   7.369  0.4389  0.1560  0.8997
   40MOL   H50529443   2.807   7.250   7.306 -0.5869  1.1627  1.1831
   40MOL   H50629444   2.772   7.115   7.425 -1.0073 -1.0263 -0.6007
   40MOL   H50729445   2.610   7.271   7.531 -1.0639  2.5608 -0.4873
   40MOL   H50829446   2.673   7.398   7.432 -3.8833 -0.1839  0.5259
   40MOL   H50929447   2.900   7.366   7.520 -1.7839  0.2387 -2.9876
   40MOL   H51029448   2.836   7.240   7.626  0.3709  0.5216  0.2546
   40MOL   H51129449   2.683   7.411   0.032  0.1641  1.6534  0.6794
   40MOL   H51229450   2.742   7.523   7.618  2.1727 -0.1091 -1.2660
   40MOL   H51329451   2.976   7.455   0.052 -0.1426 -0.1730  0.0863
   40MOL   H51429452   2.882   7.371   0.163  0.6449 -0.1960 -0.4191
   40MOL   H51529453   2.873   7.672   0.098  1.4908  1.5865  1.8589
   40MOL   H51629454   2.952   7.595   0.241 -0.9615  1.2269  1.4383
   40MOL   H51729455   2.749   7.523   0.328  1.7235 -0.1385 -1.0524
   40MOL   H51829456   2.658   7.591   0.184 -0.0425  2.0481  0.1868
   40MOL   H51929457   2.757   0.123   0.282 -0.2307 -1.4211 -2.4068
   40MOL   C52029458   2.619   0.064   0.408  0.4645 -0.4361 -0.2400
   40MOL   O52129459   2.551   7.670   0.458  0.1403 -0.0265 -0.3158
   40MOL   C52229460   2.605   0.210   0.459  0.7093 -0.8448 -0.1888
   40MOL   C52329461   2.589   0.232   0.606 -0.2884 -0.2610  0.1546
   40MOL   C52429462   2.731   0.229   0.666 -0.6353  0.4068  0.1675
   40MOL   C52529463   2.720   0.271   0.816  0.2044  0.3000  0.8901
   40MOL   C52629464   2.859   0.300   0.877 -0.2689 -0.4143 -0.2340
   40MOL   C52729465   2.855   0.381   1.015  0.1553 -0.0997 -0.3077
   40MOL   C52829466   2.762   0.323   1.124 -0.4066  0.1022  0.2706
   40MOL   C52929467   2.800   0.181   1.173  0.2865  0.3125  0.1719
   40MOL   C53029468   2.702   0.131   1.274  0.7762 -0.4006 -0.3410
   40MOL   C53129469   2.730   7.684   1.312 -0.4335  0.1472  0.2400
   40MOL   C53229470   2.623   7.634   1.409 -0.1505  0.2673 -0.0576
   40MOL   N53329471   2.491   7.604   1.352 -0.5103 -0.2857  0.3343
   40MOL   H53429472   2.521   0.254   0.405  0.7413 -0.5774 -0.0229
   40MOL   H53529473   2.695   0.265   0.434 -0.0617  1.2233  1.3875
   40MOL   H53629474   2.547   0.332   0.611  2.8068  1.0159  2.7243
   40MOL   H53729475   2.519   0.165   0.655  1.8552 -3.9955 -1.6662
   40MOL   H53829476   2.788   0.301   0.608  1.7888 -1.2180  0.4740
   40MOL   H53929477   2.787   0.136   0.663 -1.8879 -0.4026  1.1187
   40MOL   H54029478   2.668   0.367   0.819 -1.1692 -0.3184 -1.5320
   40MOL   H54129479   2.660   0.198   0.871  0.4261  0.2827  1.1104
   40MOL   H54229480   2.917   0.367   0.814 -0.2549  1.1028  1.3779
   40MOL   H54329481   2.917   0.209   0.893  0.8896  0.2220 -0.7616
   40MOL   H54429482   2.826   0.484   0.993  0.5371 -0.1169 -0.9095
   40MOL   H54529483   2.954   0.389   1.062  0.7806 -1.5564 -1.3162
   40MOL   H54629484   2.656   0.318   1.099 -0.4670  2.0430  0.0516
   40MOL   H54729485   2.767   0.393   1.208 -1.2947  0.7065 -0.1694
   40MOL   H54829486   2.895   0.181   1.226  0.6831 -1.5637 -0.4903
   40MOL   H54929487   2.814   0.110   1.091  0.7443  1.8114 -1.0800
   40MOL   H55029488   2.601   0.134   1.233  1.4136  0.8336 -1.9033
   40MOL   H55129489   2.717   0.206   1.351  1.0252 -0.0780 -0.7016
   40MOL   H55229490   2.830   7.680   1.357 -0.4429  0.4342  0.2872
   40MOL   H55329491   2.733   7.619   1.224 -1.6990  1.6264 -0.9162
   40MOL   H55429492   2.611   0.008   1.493 -4.1445 -1.2174  0.6491
   40MOL   H55529493   2.663   7.547   1.461  0.4629  0.1082 -0.7753
   40MOL   H55629494   2.476   7.516   1.305 -0.2691 -0.7478  1.1092
   40MOL   C55729495   2.377   7.654   1.394 -0.1557 -0.1065  0.6066
   40MOL   O55829496   2.364   0.036   1.487 -0.4146  0.3127 -0.4189
   40MOL   C55929497   2.256   7.633   1.301  0.1407 -0.6064 -0.0009
   40MOL   C56029498   2.120   7.652   1.376 -0.4510 -0.2230  0.1061
   40MOL   C56129499   2.010   7.627   1.275 -0.1422  0.6103 -0.1720
   40MOL   C56229500   1.877   7.655   1.351  0.6743 -0.7841 -0.5196
   40MOL   C56329501   1.745   7.636   1.272 -1.2495  0.0011  0.2798
   40MOL   C56429502   1.610   7.613   1.350 -0.2354 -0.5346 -0.3678
   40MOL   C56529503   1.584   0.021   1.460  0.5523 -0.4350  0.2131
   40MOL   C56629504   1.454   7.692   1.528  0.0895  0.6762 -0.6178
   40MOL   C56729505   1.438   0.106   1.632  0.8028 -0.7430  0.2228
   40MOL   C56829506   1.312   0.099   1.714 -0.5847  0.3711 -0.6471
   40MOL   C56929507   1.295   0.207   1.828  0.0094 -1.0686 -0.0559
   40MOL   N57029508   1.298   0.342   1.779 -0.6154 -0.2771  0.4324
   40MOL   H57129509   2.265   7.532   1.262  1.3839  0.0282 -1.4194
   40MOL   H57229510   2.273   0.017   1.226 -2.9748 -0.6453 -0.8016
   40MOL   H57329511   2.114   7.575   1.453 -0.9080  0.0236  0.3159
   40MOL   H57429512   2.117   0.058   1.419  0.6480 -1.0703  2.1908
   40MOL   H57529513   2.014   7.523   1.243 -1.5726  0.5419 -0.1785
   40MOL   H57629514   2.016   7.686   1.183  0.0816 -0.0151 -0.5555
   40MOL   H57729515   1.873   7.593   1.441 -0.1087 -1.0335 -0.7202
   40MOL   H57829516   1.867   0.065   1.385 -0.8605 -0.5315 -1.6550
   40MOL   H57929517   1.740   7.547   1.210  0.3569 -0.4955  0.8280
   40MOL   H58029518   1.725   0.028   1.208 -1.0936  0.3839  0.7311
   40MOL   H58129519   1.620   7.516   1.399 -0.6279 -0.4727 -0.1690
   40MOL   H58229520   1.527   7.618   1.280  0.0275 -0.2987 -0.6655
   40MOL   H58329521   1.587   0.119   1.412  1.0488 -0.5637 -0.0289
   40MOL   H58429522   1.659   0.015   1.538 -0.6139 -2.3849  1.2123
   40MOL   H58529523   1.450   7.591   1.571 -0.3930  0.3931 -1.3289
   40MOL   H58629524   1.370   7.687   1.459 -0.2191 -1.0732 -0.1534
   40MOL   H58729525   1.444   0.202   1.582 -0.1938  0.4845  2.3512
   40MOL   H58829526   1.522   0.102   1.701  1.0927 -1.3568 -0.1667
   40MOL   H58929527   1.312   7.694   1.759 -0.1439  1.0015  0.7697
   40MOL   H59029528   1.228   0.109   1.645 -0.0601 -1.1200 -1.5132
   40MOL   H59129529   1.368   0.190   1.908  1.5538  0.1065 -1.1912
   40MOL   H59229530   1.196   0.183   1.868  0.0915 -1.1682  0.0900
   40MOL   H59329531   1.327   0.369   1.686  2.0360  2.8421  2.0438
   40MOL   C59429532   1.254   0.445   1.850  0.6733  0.2949  0.1009
   40MOL   O59529533   1.216   0.448   1.968  0.6583 -0.6902 -0.1041
   40MOL   C59629534   1.243   0.576   1.764 -0.6306  0.1861  0.0727
   40MOL   C59729535   1.152   0.682   1.830  0.1762 -0.4370  1.0575
   40MOL   C59829536   1.131   0.798   1.735 -0.7058  0.4831 -0.0447
   40MOL   C59929537   1.062   0.922   1.794 -0.0651 -0.3166  0.6640
   40MOL   C60029538   1.068   1.050   1.712 -0.1861 -0.0849  1.0228
   40MOL   C60129539   1.031   1.170   1.803  0.3652 -0.6689  0.3626
   40MOL   C60229540   1.071   1.311   1.749  0.1717  0.3254 -0.4433
   40MOL   C60329541   1.216   1.330   1.697 -0.8159 -0.4086 -0.0629
   40MOL   C60429542   1.255   1.480   1.683  0.6051 -0.4452  0.1697
   40MOL   C60529543   1.383   1.501   1.602 -0.2687  0.3954  0.2909
   40MOL   C60629544   1.413   1.649   1.569 -0.1475 -0.5221  0.0260
   40MOL   N60729545   1.553   1.656   1.513  0.0349  0.2341  0.3014
   40MOL   H60829546   1.214   0.551   1.662 -0.8759 -1.4862  0.5452
   40MOL   H60929547   1.341   0.623   1.768 -0.1252 -0.8437 -0.1003
   40MOL   H61029548   1.061   0.635   1.864 -1.4368 -0.0887 -2.5507
   40MOL   H61129549   1.198   0.723   1.920  3.2659 -3.3172  0.8733
   40MOL   H61229550   1.062   0.755   1.662  1.4810 -1.8858 -0.7921
   40MOL   H61329551   1.222   0.833   1.686 -0.3878  0.6819  0.6767
   40MOL   H61429552   0.955   0.898   1.801  0.2465 -2.2876 -0.9707
   40MOL   H61529553   1.096   0.935   1.896  1.8774 -3.3523  0.4587
   40MOL   H61629554   1.008   1.052   1.621  1.8937 -0.3712 -0.3817
   40MOL   H61729555   1.168   1.053   1.669 -0.1446 -0.7315  1.0715
   40MOL   H61829556   1.080   1.163   1.900  0.2304 -2.1835  0.3353
   40MOL   H61929557   0.923   1.173   1.816  0.6393  0.9500  2.5843
   40MOL   H62029558   1.057   1.379   1.833 -1.2655  0.5875 -0.8818
   40MOL   H62129559   1.002   1.347   1.673  1.1189  0.8986 -1.0478
   40MOL   H62229560   1.217   1.286   1.597  0.2841 -2.2573  0.7401
   40MOL   H62329561   1.288   1.276   1.758  0.5580  0.3489 -0.9866
   40MOL   H62429562   1.266   1.525   1.782  2.3160 -1.4332  0.4610
   40MOL   H62529563   1.172   1.534   1.637  1.9181  2.6173  1.2641
   40MOL   H62629564   1.372   1.455   1.504  2.0355  0.0230  0.1833
   40MOL   H62729565   1.472   1.454   1.644  1.0537  2.1042 -0.5241
   40MOL   H62829566   1.413   1.709   1.660 -0.0275 -1.4396  0.6306
   40MOL   H62929567   1.332   1.688   1.508 -1.2641 -4.1926 -0.9480
   40MOL   H63029568   1.626   1.650   1.582  1.7744 -1.8443 -1.6441
   40MOL   C63129569   1.594   1.674   1.387 -0.6956 -0.3750  0.4424
   40MOL   O63229570   1.521   1.661   1.290 -0.7499  0.1605 -0.1392
   40MOL   C63329571   1.733   1.717   1.366 -0.1116 -0.4273  0.0419
   40MOL   C63429572   1.797   1.672   1.233 -0.5840  0.3481  0.4191
   40MOL   C63529573   1.752   1.753   1.109 -0.3154  0.1827  0.0351
   40MOL   C63629574   1.753   1.667   0.977 -0.1468 -0.0579  0.2656
   40MOL   C63729575   1.689   1.746   0.861 -0.5467 -0.7454 -0.3096
   40MOL   C63829576   1.686   1.676   0.727 -0.2625  0.3284 -0.4897
   40MOL   C63929577   1.815   1.672   0.643  0.0410  0.6856  0.3644
   40MOL   C64029578   1.837   1.808   0.570 -0.4589 -0.4827  0.1377
   40MOL   C64129579   1.947   1.809   0.460  0.4720 -0.3032  0.1631
   40MOL   C64229580   1.937   1.935   0.377 -0.9420 -0.1052 -0.4767
   40MOL   C64329581   2.049   1.947   0.275 -0.0961  0.0370 -0.0505
   40MOL   N64429582   2.035   2.072   0.204 -0.0118  0.1470 -0.6629
   40MOL   H64529583   1.795   1.674   1.444 -0.6207 -3.5364 -1.2176
   40MOL   H64629584   1.741   1.826   1.374  0.3197 -0.3189 -1.5945
   40MOL   H64729585   1.905   1.667   1.241 -0.5658 -0.2006 -0.1271
   40MOL   H64829586   1.772   1.568   1.209 -0.1315  0.2707  0.2892
   40MOL   H64929587   1.822   1.833   1.086 -0.2742 -0.8278 -3.7173
   40MOL   H65029588   1.649   1.787   1.121 -0.8092 -0.6458 -1.7301
   40MOL   H65129589   1.854   1.639   0.946  1.0654  2.9836  1.2092
   40MOL   H65229590   1.699   1.574   0.989  0.8169 -0.5561  0.7805
   40MOL   H65329591   1.739   1.843   0.854 -1.9747 -0.0520 -1.2549
   40MOL   H65429592   1.585   1.769   0.883  0.0317  2.0861 -0.3888
   40MOL   H65529593   1.600   1.711   0.670 -2.0460 -0.1741  1.8201
   40MOL   H65629594   1.663   1.571   0.745 -0.1483  0.0114 -2.0495
   40MOL   H65729595   1.810   1.598   0.563  0.1793  2.2181 -1.1022
   40MOL   H65829596   1.899   1.643   0.705  0.0263 -0.3293 -0.0816
   40MOL   H65929597   1.841   1.879   0.653 -0.0170  1.9236 -1.8786
   40MOL   H66029598   1.747   1.824   0.511  0.3673 -2.1221 -1.6088
   40MOL   H66129599   1.942   1.719   0.400 -0.2622 -0.7216  0.8477
   40MOL   H66229600   2.046   1.807   0.506  1.4505  0.1977 -1.8632
   40MOL   H66329601   1.936   2.027   0.436  0.1835 -0.1829 -0.3316
   40MOL   H66429602   1.840   1.929   0.327 -1.8400 -2.1417  1.4197
   40MOL   H66529603   2.052   1.855   0.215 -0.4787  0.1616 -0.2667
   40MOL   H66629604   2.144   1.946   0.327 -0.3900  1.5071  0.5245
   40MOL   H66729605   2.113   2.135   0.188  0.6190 -0.4224  0.1081
   40MOL   C66829606   1.937   2.095   0.117  0.9103 -0.7442 -0.1082
   40MOL   O66929607   1.845   2.014   0.099 -0.0187  0.0495 -0.0167
   40MOL   C67029608   1.942   2.218   0.024 -0.1862 -0.3332 -1.0684
   40MOL   C67129609   1.834   2.218   7.609  0.5618  0.5215 -0.2723
   40MOL   C67229610   1.823   2.342   7.516 -0.2802  0.0873 -0.1839
   40MOL   C67329611   1.691   2.335   7.426  0.2151  0.7203  0.8287
   40MOL   C67429612   1.714   2.435   7.316 -0.0658 -0.2597 -0.3179
   40MOL   C67529613   1.576   2.483   7.255 -0.4237 -0.1975  0.2418
   40MOL   C67629614   1.605   2.522   7.110  0.7134  0.3878  0.5449
   40MOL   C67729615   1.478   2.552   7.040  0.3233  0.0642 -0.0387
   40MOL   C67829616   1.512   2.623   6.907 -0.3912 -0.0041 -0.2273
   40MOL   C67929617   1.378   2.637   6.830  0.0356 -0.3440 -0.0987
   40MOL   C68029618   1.393   2.675   6.686  0.1745 -0.9340 -0.0468
   40MOL   N68129619   1.272   2.700   6.605 -0.6185 -0.3499 -0.2149
   40MOL   H68229620   2.036   2.207   7.663 -1.2880 -2.1074 -2.6351
   40MOL   H68329621   1.952   2.309   0.083  0.0963 -1.5754  0.8370
   40MOL   H68429622   1.842   2.126   7.552 -1.8811 -0.1520  0.4158
   40MOL   H68529623   1.745   2.205   7.670  1.4788 -0.2797  0.9024
   40MOL   H68629624   1.910   2.340   7.450  0.6374  0.6065  1.0021
   40MOL   H68729625   1.839   2.432   7.575  2.6988 -0.4090 -0.1819
   40MOL   H68829626   1.677   2.236   7.384 -2.4047  2.4865 -2.6562
   40MOL   H68929627   1.605   2.359   7.489 -0.8277  1.3230 -0.8041
   40MOL   H69029628   1.773   2.388   7.238 -0.5885 -0.7268 -0.4358
   40MOL   H69129629   1.771   2.527   7.329  0.9890 -0.9944  0.3245
   40MOL   H69229630   1.526   2.552   7.322 -0.5882 -1.0740  1.0450
   40MOL   H69329631   1.502   2.402   7.256 -1.0439  0.3641  2.0762
   40MOL   H69429632   1.671   2.448   7.065 -1.2725  0.5457 -2.7857
   40MOL   H69529633   1.667   2.612   7.108 -1.2038  1.7310  0.9008
   40MOL   H69629634   1.408   2.612   7.099  0.1319  0.2175 -0.4169
   40MOL   H69729635   1.433   2.455   7.019  2.3888 -0.7027 -1.0237
   40MOL   H69829636   1.580   2.550   6.862  1.7786  1.2083  0.9888
   40MOL   H69929637   1.562   2.718   6.921 -0.3335  0.0778 -0.9425
   40MOL   H70029638   1.329   2.714   6.891 -0.0658 -0.2020 -0.3594
   40MOL   H70129639   1.317   2.547   6.838  0.5329 -0.5191  2.0260
   40MOL   H70229640   1.446   2.599   6.628  0.3273  0.4691 -1.8169
   40MOL   H70329641   1.461   2.761   6.686  0.3098 -1.0407  0.0298
   40MOL   H70429642   1.187   2.729   6.651  0.0626  1.0713  0.1648
   40MOL   C70529643   1.265   2.697   6.472 -1.2084  0.0232 -0.0903
   40MOL   O70629644   1.361   2.656   6.402  0.4658  0.1486 -0.3755
   40MOL   C70729645   1.142   2.751   6.399  0.4535 -0.1509  0.1244
   40MOL   C70829646   1.177   2.852   6.290 -0.6153  0.4807  0.4991
   40MOL   C70929647   1.250   2.979   6.334 -0.2218 -0.9114  0.6860
   40MOL   C71029648   1.172   3.063   6.440 -0.1625  0.3632 -0.1083
   40MOL   C71129649   1.221   3.201   6.451 -0.0468  0.0057  1.1451
   40MOL   C71229650   1.157   3.297   6.556  1.2098  0.0819  0.3046
   40MOL   C71329651   1.005   3.309   6.541  0.1430  0.6007  0.6917
   40MOL   C71429652   0.936   3.400   6.640 -0.4157 -0.4119  0.4269
   40MOL   C71529653   0.784   3.404   6.638 -0.6359  0.2025 -0.1939
   40MOL   C71629654   0.710   3.513   6.714  0.4707  0.3188 -1.0587
   40MOL   C71729655   0.567   3.519   6.681 -0.4009  0.4540  0.5529
   40MOL   N71829656   0.503   3.644   6.736  0.0624  0.3511  0.2340
   40MOL   H71929657   1.075   2.796   6.473 -0.9840 -0.4607 -0.9590
   40MOL   H72029658   1.085   2.664   6.365  2.3761 -1.7746  1.0246
   40MOL   H72129659   1.242   2.808   6.214  1.2363  2.5913  0.8108
   40MOL   H72229660   1.086   2.883   6.239 -0.7680  0.2358  0.6201
   40MOL   H72329661   1.277   3.039   6.247 -0.2131 -0.5911  0.9081
   40MOL   H72429662   1.350   2.958   6.369  0.5404 -1.2816 -1.6482
   40MOL   H72529663   1.069   3.060   6.405  0.9778 -0.2840 -3.6579
   40MOL   H72629664   1.178   3.015   6.538 -1.2686 -0.7902 -0.5823
   40MOL   H72729665   1.220   3.242   6.350 -1.1365 -0.9104  0.7760
   40MOL   H72829666   1.325   3.185   6.482  0.4182 -1.7553 -1.1507
   40MOL   H72929667   1.188   3.401   6.541  2.5218 -0.2800  0.4955
   40MOL   H73029668   1.178   3.256   6.654  0.8160 -0.3949  0.1922
   40MOL   H73129669   0.971   3.206   6.546 -0.0487  0.6940  1.2882
   40MOL   H73229670   0.984   3.337   6.437  1.8613  0.2230  0.2148
   40MOL   H73329671   0.968   3.502   6.619  0.6965 -0.3126  2.4875
   40MOL   H73429672   0.979   3.373   6.736 -0.8723 -3.1482 -0.1061
   40MOL   H73529673   0.752   3.304   6.666  0.5865  0.1790  1.1976
   40MOL   H73629674   0.760   3.412   6.532 -1.2775  0.2113 -0.0503
   40MOL   H73729675   0.754   3.605   6.676  2.8950 -1.1914 -1.9912
   40MOL   H73829676   0.731   3.513   6.821 -0.7907 -0.8493 -0.7947
   40MOL   H73929677   0.522   3.430   6.725 -1.1114 -0.1747 -1.3879
   40MOL   H74029678   0.552   3.531   6.573 -0.4644  0.0743  0.5212
   40MOL   H74129679   0.406   3.645   6.708 -0.2072 -0.9662  1.0903
   40MOL   H74229680   0.557   3.718   6.692 -0.4087  0.3650 -0.3191
   41MOL     C129681   7.082   5.217   3.125 -0.5171 -0.5448 -0.0968
   41MOL     O229682   7.023   5.285   3.039 -0.3287 -0.2615  0.3518
   41MOL     C329683   7.179   5.098   3.092  0.9137  0.2248 -0.0788
   41MOL     C429684   7.239   5.106   2.945  0.1819  0.1885 -0.1931
   41MOL     C529685   7.285   4.966   2.905  0.7157  0.3165 -0.0243
   41MOL     C629686   7.409   4.906   2.970 -0.2964  0.2381 -0.2519
   41MOL     C729687   7.536   4.991   2.944 -0.5747 -0.3156 -0.1295
   41MOL     C829688   7.670   4.920   2.990 -0.4557  0.1212 -0.4802
   41MOL     C929689   0.106   5.002   2.981  0.6741  0.4584 -0.1863
   41MOL    C1029690   0.228   4.921   3.011 -0.1203  0.0367 -0.1042
   41MOL    C1129691   0.358   4.991   2.968  0.3510  0.5740  0.5781
   41MOL    C1229692   0.367   5.023   2.825 -0.1067  0.6314  0.7222
   41MOL    C1329693   0.341   4.910   2.730  0.1576  0.9739 -0.0546
   41MOL    N1429694   0.343   4.950   2.588 -0.1329  0.8144  0.1090
   41MOL    H1529695   7.113   5.012   3.081  1.1416  0.2251 -1.5688
   41MOL    H1629696   7.251   5.082   3.173 -0.8609  1.1330  1.7128
   41MOL    H1729697   7.156   5.134   2.881  0.0218  0.5396  0.1704
   41MOL    H1829698   7.321   5.177   2.932  0.2522  0.1091 -0.1815
   41MOL    H1929699   7.298   4.970   2.797 -3.5337 -1.3886 -0.6991
   41MOL    H2029700   7.199   4.899   2.906  0.9700 -0.0271 -1.0738
   41MOL    H2129701   7.405   4.891   3.078 -0.6285 -0.4656 -0.3544
   41MOL    H2229702   7.426   4.805   2.932 -0.4840  0.2326 -0.3204
   41MOL    H2329703   7.521   5.077   3.009 -0.8836 -2.0068  2.1043
   41MOL    H2429704   7.540   5.031   2.842  0.2862  2.7672  1.0683
   41MOL    H2529705   7.671   4.826   2.937 -1.9138  1.1361 -2.3654
   41MOL    H2629706   7.652   4.886   3.092  1.7515  0.4723  0.0652
   41MOL    H2729707   0.098   5.100   3.028 -4.3160  0.4065 -0.5657
   41MOL    H2829708   0.110   5.043   2.879 -1.5815 -0.4919 -0.6851
   41MOL    H2929709   0.234   4.819   2.972 -2.7114 -0.3806  0.5099
   41MOL    H3029710   0.229   4.906   3.119 -2.1657 -1.0831 -0.2071
   41MOL    H3129711   0.442   4.923   2.977  1.1422  1.3001 -1.0461
   41MOL    H3229712   0.392   5.071   3.035 -0.6003  0.2753  1.4237
   41MOL    H3329713   0.472   5.050   2.809  0.4832 -0.3060  2.8865
   41MOL    H3429714   0.305   5.110   2.801  0.2567  0.7553  0.2230
   41MOL    H3529715   0.240   4.874   2.754  1.5301 -1.7844  1.8802
   41MOL    H3629716   0.389   4.813   2.743 -1.3771  0.3495  1.1352
   41MOL    H3729717   0.375   5.043   2.567  0.5680  0.2988 -1.1951
   41MOL    H3829718   7.077   5.242   3.231  0.5508 -1.7379  0.2380
   41MOL    C3929719   0.325   4.868   2.486  0.5555  0.2206 -0.2583
   41MOL    O4029720   0.298   4.750   2.503  0.0101  0.4159  0.1019
   41MOL    C4129721   0.357   4.914   2.352  0.7176  0.1794 -0.5053
   41MOL    C4229722   0.508   4.938   2.341 -0.6490  0.2444  0.2815
   41MOL    C4329723   0.544   4.994   2.206 -0.1219 -0.6781  1.0767
   41MOL    C4429724   0.688   5.042   2.205  0.5414 -0.2951  0.5776
   41MOL    C4529725   0.721   5.090   2.068 -0.6671 -0.2815 -0.4083
   41MOL    C4629726   0.859   5.144   2.062  0.1679  0.3077  0.2066
   41MOL    C4729727   0.898   5.188   1.918  0.1092  0.0724 -0.7840
   41MOL    C4829728   1.032   5.257   1.895  0.0131  0.2693  0.3155
   41MOL    C4929729   1.017   5.408   1.915 -0.3504 -0.3601  0.1619
   41MOL    C5029730   1.154   5.463   1.958  0.6273 -0.0282 -0.3678
   41MOL    C5129731   1.147   5.601   2.015 -0.5270 -0.9496  0.2972
   41MOL    N5229732   1.278   5.673   1.986  0.7531 -0.1035  0.4072
   41MOL    H5329733   0.295   5.001   2.330 -0.3289 -0.2756  0.5755
   41MOL    H5429734   0.317   4.836   2.287  0.9341 -0.1712 -0.2209
   41MOL    H5529735   0.545   5.002   2.421  2.2206  1.0205 -1.6179
   41MOL    H5629736   0.559   4.843   2.357  1.6941  1.4212 -0.0580
   41MOL    H5729737   0.481   5.074   2.168  0.9645 -0.4901 -0.4067
   41MOL    H5829738   0.527   4.927   2.121 -2.9749 -0.8890  1.7709
   41MOL    H5929739   0.702   5.120   2.280  0.7741 -2.2028  2.5693
   41MOL    H6029740   0.745   4.952   2.227  0.2278 -0.8149 -0.6753
   41MOL    H6129741   0.647   5.164   2.040  1.0365  2.0690  1.1382
   41MOL    H6229742   0.714   5.004   2.001  0.8120  0.5900 -1.7159
   41MOL    H6329743   0.936   5.073   2.095 -0.5062 -0.4594  0.1340
   41MOL    H6429744   0.868   5.223   2.137 -0.5830  1.6969 -1.1342
   41MOL    H6529745   0.818   5.244   1.870  0.1280 -0.8054 -1.8743
   41MOL    H6629746   0.906   5.097   1.858  2.0881 -0.9966  1.0479
   41MOL    H6729747   1.056   5.233   1.792 -0.4163  0.4950  0.1622
   41MOL    H6829748   1.119   5.214   1.945  0.2152 -0.5154 -0.7225
   41MOL    H6929749   0.957   5.413   2.006  1.6859 -1.2987  1.5992
   41MOL    H7029750   0.970   5.474   1.842 -0.1081  0.4745  0.7461
   41MOL    H7129751   1.231   5.439   1.884  0.4952 -1.9576  0.0916
   41MOL    H7229752   1.188   5.400   2.040 -0.2679  1.3569  1.0773
   41MOL    H7329753   1.131   5.585   2.122  2.0356 -1.6025  0.6090
   41MOL    H7429754   1.067   5.658   1.967  0.6843 -1.1370 -1.9920
   41MOL    H7529755   1.331   5.637   1.908 -0.6759 -0.6708 -0.3274
   41MOL    C7629756   1.340   5.769   2.056  0.2162  0.2067  0.0750
   41MOL    O7729757   1.285   5.812   2.155 -0.1893  0.2913 -0.6062
   41MOL    C7829758   1.464   5.831   1.998  0.8199  0.1619  0.0369
   41MOL    C7929759   1.589   5.783   2.073  0.1094 -0.5997  0.0358
   41MOL    C8029760   1.594   5.835   2.220 -0.0442 -0.1748  0.1643
   41MOL    C8129761   1.707   5.761   2.298  0.1664  0.3870 -0.2942
   41MOL    C8229762   1.750   5.816   2.431  0.0626  0.1762 -0.0964
   41MOL    C8329763   1.633   5.811   2.532 -0.4067  0.7342  0.1276
   41MOL    C8429764   1.678   5.839   2.672  0.1155  0.0484 -0.4529
   41MOL    C8529765   1.572   5.823   2.785 -0.2938  0.0123  0.8757
   41MOL    C8629766   1.659   5.781   2.909  0.1621 -0.1267 -0.4187
   41MOL    C8729767   1.598   5.782   3.052  0.2492 -0.6844 -0.5818
   41MOL    C8829768   1.485   5.681   3.079  0.0631  0.3067  0.7029
   41MOL    N8929769   1.363   5.730   3.019 -0.2313  0.4036  0.2097
   41MOL    H9029770   1.451   5.938   1.986 -1.0081 -0.2874 -2.1923
   41MOL    H9129771   1.486   5.800   1.896 -0.9386 -1.6253  0.1650
   41MOL    H9229772   1.572   5.675   2.073  0.7946 -0.7190  1.8039
   41MOL    H9329773   1.683   5.799   2.021  0.6184 -1.4217  0.6957
   41MOL    H9429774   1.497   5.843   2.268 -0.1754  0.3578 -0.1833
   41MOL    H9529775   1.625   5.935   2.190 -1.6228 -0.2437 -1.8367
   41MOL    H9629776   1.685   5.655   2.310  0.8158  0.5322  2.3995
   41MOL    H9729777   1.795   5.761   2.234  1.2788 -2.3790  1.1315
   41MOL    H9829778   1.776   5.919   2.408  1.0965 -0.0302  0.1331
   41MOL    H9929779   1.834   5.759   2.473 -0.0042 -0.1941 -0.4623
   41MOL   H10029780   1.576   5.719   2.533 -0.3601  0.6965 -0.4085
   41MOL   H10129781   1.553   5.880   2.505 -0.5175  0.6511  0.2446
   41MOL   H10229782   1.725   5.937   2.674 -1.3330  0.7546 -0.4653
   41MOL   H10329783   1.759   5.770   2.698 -1.7282 -1.6730  0.8769
   41MOL   H10429784   1.507   5.739   2.764 -0.7073  0.1558  1.5498
   41MOL   H10529785   1.506   5.909   2.802 -0.8776 -0.7169  2.4025
   41MOL   H10629786   1.748   5.844   2.914 -1.4600  2.0525  2.2039
   41MOL   H10729787   1.688   5.676   2.896 -1.1194 -0.4748 -0.4776
   41MOL   H10829788   1.572   5.885   3.077 -0.4847 -1.2306  1.0000
   41MOL   H10929789   1.678   5.764   3.124  1.4496  1.7721 -1.2517
   41MOL   H11029790   1.463   5.668   3.185 -2.1279 -0.9772  0.1134
   41MOL   H11129791   1.507   5.581   3.041  2.8414  1.0764  0.2030
   41MOL   H11229792   1.318   5.812   3.056 -3.4631 -1.3547  0.4117
   41MOL   C11329793   1.291   5.672   2.920 -0.1662 -0.0502 -0.2127
   41MOL   O11429794   1.321   5.563   2.879 -0.6501  0.1943  0.0212
   41MOL   C11529795   1.163   5.736   2.872  0.4603 -1.0110 -0.4822
   41MOL   C11629796   1.131   5.737   2.721 -0.7814 -0.4794 -0.2676
   41MOL   C11729797   1.220   5.811   2.625  0.2127 -0.0065 -0.3027
   41MOL   C11829798   1.232   5.963   2.649 -0.4955  0.5609  0.1863
   41MOL   C11929799   1.104   6.039   2.610 -0.4683  0.0415  0.2854
   41MOL   C12029800   1.067   6.166   2.681 -1.0267 -0.4871  0.5926
   41MOL   C12129801   1.011   6.133   2.823 -0.0240  0.8211  0.1097
   41MOL   C12229802   0.934   6.257   2.874 -0.1192  0.1189 -0.1052
   41MOL   C12329803   1.043   6.351   2.933 -0.3182  0.6541 -0.5167
   41MOL   C12429804   0.990   6.488   2.990  0.1870  0.6821 -0.1193
   41MOL   C12529805   1.109   6.573   3.044  0.1442  0.4390  0.1808
   41MOL   N12629806   1.060   6.676   3.134 -0.1137  0.2732 -0.2170
   41MOL   H12729807   1.140   5.832   2.917  2.0965  0.2013 -2.1937
   41MOL   H12829808   1.084   5.678   2.922 -0.3370 -0.3061 -0.9242
   41MOL   H12929809   1.125   5.629   2.708  0.4210 -0.5029 -0.7168
   41MOL   H13029810   1.033   5.782   2.707 -0.9818 -0.7236  0.3232
   41MOL   H13129811   1.178   5.791   2.526 -2.2228 -1.6766  1.0112
   41MOL   H13229812   1.318   5.764   2.623 -0.1259 -0.8010 -4.8933
   41MOL   H13329813   1.242   5.982   2.756  0.1685  0.9128  0.0613
   41MOL   H13429814   1.325   5.996   2.605 -0.0351  0.3355  0.9857
   41MOL   H13529815   1.016   5.977   2.625 -0.8644  0.4604 -0.3132
   41MOL   H13629816   1.092   6.039   2.501  1.4027 -1.5933  0.0271
   41MOL   H13729817   0.992   6.209   2.615  1.7207  0.0377 -2.3495
   41MOL   H13829818   1.149   6.238   2.684  0.3432 -1.7387 -3.2963
   41MOL   H13929819   1.085   6.099   2.895  0.2127 -1.0270 -0.9718
   41MOL   H14029820   0.944   6.047   2.811 -0.6169  1.7116 -3.4060
   41MOL   H14129821   0.849   6.236   2.938 -1.8487  1.8371 -1.7749
   41MOL   H14229822   0.884   6.303   2.790  0.1243 -0.4271 -0.5497
   41MOL   H14329823   1.130   6.368   2.870  0.8476  0.1438  0.9289
   41MOL   H14429824   1.092   6.292   3.011  0.7501  2.1708 -0.0111
   41MOL   H14529825   0.930   6.468   3.079  2.2009 -1.1932  0.8804
   41MOL   H14629826   0.924   6.528   2.913 -1.4647 -1.5757  0.0729
   41MOL   H14729827   1.162   6.609   2.955  0.7217 -0.0763  0.3106
   41MOL   H14829828   1.180   6.510   3.098  2.0188  1.9439 -0.4386
   41MOL   H14929829   1.014   6.758   3.098 -0.9978 -0.9085 -1.8389
   41MOL   C15029830   1.065   6.662   3.268  0.2277 -0.5716 -0.3066
   41MOL   O15129831   1.126   6.576   3.325  0.0701  0.4285  0.0864
   41MOL   C15229832   1.015   6.774   3.358  0.3359 -0.2178 -0.2486
   41MOL   C15329833   0.920   6.727   3.471  0.4637 -0.6320  0.4739
   41MOL   C15429834   0.999   6.685   3.591  0.1723 -0.0898  0.1811
   41MOL   C15529835   0.916   6.631   3.712  0.3839  0.4787 -0.2425
   41MOL   C15629836   1.010   6.582   3.829 -0.4936  1.4785 -1.1156
   41MOL   C15729837   0.944   6.524   3.951  0.5645  0.0431  0.3912
   41MOL   C15829838   1.053   6.450   4.031 -0.5841  0.2277  0.6812
   41MOL   C15929839   1.138   6.542   4.119 -0.7035  0.5366 -0.1238
   41MOL   C16029840   1.243   6.467   4.204  0.1568  0.1030 -0.6482
   41MOL   C16129841   1.330   6.554   4.298  0.1430 -0.3017  0.1819
   41MOL   C16229842   1.460   6.472   4.346  0.0346  0.0767 -0.4615
   41MOL   N16329843   1.424   6.333   4.386  0.4589 -0.2024 -0.5294
   41MOL   H16429844   0.953   6.834   3.291  0.0511  0.5212  0.6758
   41MOL   H16529845   1.099   6.836   3.389  0.6551 -1.0690  0.6146
   41MOL   H16629846   0.859   6.817   3.485 -0.0337 -0.4102 -2.7428
   41MOL   H16729847   0.856   6.645   3.438 -0.2019  1.0806 -2.6911
   41MOL   H16829848   1.056   6.776   3.611 -0.0963  0.4743 -1.5177
   41MOL   H16929849   1.072   6.610   3.561 -1.6851 -1.6452 -0.5274
   41MOL   H17029850   0.844   6.704   3.748  0.9440  0.6596  0.5134
   41MOL   H17129851   0.857   6.547   3.674  0.3246  1.2586 -1.9089
   41MOL   H17229852   1.076   6.662   3.861 -0.3828  0.7823  0.4492
   41MOL   H17329853   1.065   6.498   3.786 -2.6433 -1.1112  1.0020
   41MOL   H17429854   0.865   6.461   3.911  0.3114  0.7424 -0.2223
   41MOL   H17529855   0.894   6.596   4.016  1.1178  0.1998  0.6513
   41MOL   H17629856   1.113   6.391   3.962  0.2263  1.8520 -0.0178
   41MOL   H17729857   1.009   6.377   4.099 -1.3438  1.8053  1.9145
   41MOL   H17829858   1.073   6.603   4.182 -0.9700  0.0314  0.0933
   41MOL   H17929859   1.187   6.620   4.061  1.0698 -1.2547 -1.1110
   41MOL   H18029860   1.307   6.407   4.138  0.4631  0.5574 -0.7708
   41MOL   H18129861   1.188   6.398   4.267  1.1251 -1.2595 -1.2764
   41MOL   H18229862   1.264   6.570   4.384 -0.0409  1.9699 -0.3487
   41MOL   H18329863   1.352   6.651   4.254 -3.1872  0.2575 -0.3561
   41MOL   H18429864   1.526   6.525   4.415 -0.9348 -1.9819  2.0769
   41MOL   H18529865   1.524   6.463   4.257 -0.4834  1.5179 -0.9945
   41MOL   H18629866   1.432   6.256   4.322 -0.6495  1.2306 -2.4602
   41MOL   C18729867   1.381   6.310   4.508 -0.1667 -0.2539 -0.2785
   41MOL   O18829868   1.359   6.400   4.592 -0.4183  0.4504 -0.6471
   41MOL   C18929869   1.346   6.162   4.534  0.2246 -0.3274  0.2802
   41MOL   C19029870   1.200   6.122   4.520  0.6190  0.0854 -0.4152
   41MOL   C19129871   1.089   6.224   4.559  0.2009 -0.5268 -0.1625
   41MOL   C19229872   0.954   6.165   4.528 -0.2228  0.0039  0.2398
   41MOL   C19329873   0.828   6.253   4.495  0.4808  0.0040 -0.0049
   41MOL   C19429874   0.737   6.201   4.381 -0.0106  0.0020 -0.3104
   41MOL   C19529875   0.636   6.310   4.346  0.2463 -0.0539 -0.3127
   41MOL   C19629876   0.543   6.266   4.233  0.1354 -0.9688 -0.7492
   41MOL   C19729877   0.610   6.245   4.094  0.2095 -0.1292  0.5793
   41MOL   C19829878   0.508   6.235   3.978  0.0733 -0.2374  0.2577
   41MOL   C19929879   0.572   6.236   3.839 -0.6778 -0.7408  0.2070
   41MOL   N20029880   0.647   6.112   3.813 -0.5202 -0.2392  0.1057
   41MOL   H20129881   1.373   6.144   4.638 -0.6861 -1.0271  0.4084
   41MOL   H20229882   1.405   6.088   4.481 -0.2437 -0.7598  0.3555
   41MOL   H20329883   1.182   6.082   4.420  0.8487  1.6031 -1.0665
   41MOL   H20429884   1.188   6.033   4.582  2.0578  0.7110  0.8056
   41MOL   H20529885   1.097   6.309   4.491 -0.7492 -0.5289 -0.2935
   41MOL   H20629886   1.098   6.252   4.664  1.2550 -0.6906 -0.2104
   41MOL   H20729887   0.980   6.108   4.439 -0.9468 -3.9211  2.4120
   41MOL   H20829888   0.928   6.097   4.610  0.7370  1.1758  1.5380
   41MOL   H20929889   0.866   6.352   4.470  0.7707  0.1357  0.9217
   41MOL   H21029890   0.777   6.268   4.590 -0.3937 -0.2447 -0.4347
   41MOL   H21129891   0.680   6.117   4.423  2.9380 -1.3127  1.2209
   41MOL   H21229892   0.789   6.170   4.291  1.4522  0.6126  0.3127
   41MOL   H21329893   0.693   6.398   4.316 -1.5761  0.9657 -0.8209
   41MOL   H21429894   0.582   6.339   4.435  0.5187  0.4789 -0.3198
   41MOL   H21529895   0.467   6.343   4.223  1.2240  0.4996  1.7108
   41MOL   H21629896   0.480   6.184   4.265 -1.4643  1.0614  1.4354
   41MOL   H21729897   0.686   6.168   4.090 -0.2702 -0.7821  3.2720
   41MOL   H21829898   0.668   6.334   4.070  0.2510 -0.2839  0.0986
   41MOL   H21929899   0.449   6.327   3.981  0.8898  0.2699  0.7156
   41MOL   H22029900   0.444   6.150   4.000  0.6908 -0.9405 -0.6406
   41MOL   H22129901   0.646   6.314   3.823  0.2089 -1.2644  1.6368
   41MOL   H22229902   0.508   6.259   3.754  2.6188 -0.3069 -2.2572
   41MOL   H22329903   0.743   6.110   3.844 -0.9610  0.5344  1.5923
   41MOL   C22429904   0.607   6.000   3.745  1.2811  0.1419 -0.1683
   41MOL   O22529905   0.489   5.993   3.704 -0.0223 -0.2523 -0.3491
   41MOL   C22629906   0.713   5.891   3.704 -0.1319 -0.4673  0.2258
   41MOL   C22729907   0.715   5.865   3.559  0.4282 -0.6603 -0.4826
   41MOL   C22829908   0.833   5.783   3.506  0.1009 -0.2676  0.0215
   41MOL   C22929909   0.800   5.707   3.377  0.3899 -0.2331 -0.2394
   41MOL   C23029910   0.924   5.642   3.302  0.1623 -0.4458 -0.0827
   41MOL   C23129911   0.961   5.509   3.360  0.4725 -0.1879 -0.4988
   41MOL   C23229912   1.090   5.456   3.288 -0.5771 -0.3574  0.2501
   41MOL   C23329913   1.073   5.396   3.148 -0.4868 -0.7264  1.2876
   41MOL   C23429914   1.188   5.314   3.092  0.3723  0.2697 -0.1803
   41MOL   C23529915   1.170   5.276   2.939 -0.1948 -0.0911 -0.7816
   41MOL   C23629916   1.285   5.199   2.873  1.1134 -0.9345  0.1923
   41MOL   N23729917   1.385   5.292   2.829  0.1168 -0.3739  0.1814
   41MOL   H23829918   0.679   5.802   3.757 -0.6373  1.4666  3.2716
   41MOL   H23929919   0.815   5.916   3.732 -0.3966 -0.1797  0.9447
   41MOL   H24029920   0.620   5.824   3.524 -0.0511  0.9836 -1.1546
   41MOL   H24129921   0.725   5.951   3.492 -0.2762 -1.3745 -1.5263
   41MOL   H24229922   0.844   5.702   3.577 -4.7271  0.0843  1.3512
   41MOL   H24329923   0.931   5.832   3.502  0.3406 -0.8339 -1.3664
   41MOL   H24429924   0.738   5.620   3.401 -0.4696  0.7211  1.0297
   41MOL   H24529925   0.746   5.773   3.309  1.2410  0.1383 -0.5625
   41MOL   H24629926   1.003   5.717   3.295  0.1921 -0.4941 -0.2482
   41MOL   H24729927   0.902   5.637   3.196  0.8003  1.4775 -0.3443
   41MOL   H24829928   0.877   5.442   3.341 -0.2407  0.7174 -0.5922
   41MOL   H24929929   0.974   5.519   3.468 -1.8517  1.6674 -0.3490
   41MOL   H25029930   1.122   5.377   3.355  0.4484  0.0371  0.2390
   41MOL   H25129931   1.169   5.532   3.292  0.1676 -0.9647 -1.8738
   41MOL   H25229932   1.053   5.469   3.070  1.8038 -2.3649 -0.9279
   41MOL   H25329933   0.981   5.337   3.145 -0.3450 -0.9510  1.3085
   41MOL   H25429934   1.202   5.217   3.139  0.3962  1.0251  1.4119
   41MOL   H25529935   1.280   5.367   3.116  0.3408  0.3979 -0.3468
   41MOL   H25629936   1.144   5.365   2.882  0.6205  1.1358  0.7060
   41MOL   H25729937   1.088   5.205   2.938  1.0058 -1.6340  2.2958
   41MOL   H25829938   1.252   5.145   2.785  0.6150  1.2042 -0.9701
   41MOL   H25929939   1.336   5.133   2.943  0.9882 -1.1785  0.0518
   41MOL   H26029940   1.364   5.389   2.811 -1.7373 -0.5453  1.2802
   41MOL   C26129941   1.511   5.262   2.788  0.7554 -0.0279  0.2186
   41MOL   O26229942   1.569   5.154   2.800 -0.4372  0.5028 -0.3133
   41MOL   C26329943   1.586   5.380   2.736 -0.4581  0.0912 -0.1641
   41MOL   C26429944   1.730   5.343   2.689 -1.3256  0.3627  0.4300
   41MOL   C26529945   1.818   5.465   2.650  0.2091 -0.0982  0.3859
   41MOL   C26629946   1.964   5.425   2.609 -0.3309  0.5559 -0.4804
   41MOL   C26729947   2.047   5.551   2.574  0.1788  0.1677 -1.3644
   41MOL   C26829948   2.203   5.533   2.573 -0.5490 -0.0581 -0.5201
   41MOL   C26929949   2.262   5.446   2.454  0.6618 -0.5680  0.2440
   41MOL   C27029950   2.418   5.459   2.454  0.5230  0.0162  0.4068
   41MOL   C27129951   2.478   5.362   2.564 -0.1565  0.0168  0.5407
   41MOL   C27229952   2.624   5.370   2.561 -0.4253 -0.6951  0.1208
   41MOL   C27329953   2.691   5.289   2.678  0.1388 -0.2174  0.6263
   41MOL   N27429954   2.834   5.302   2.665 -0.0548  0.1214  0.6749
   41MOL   H27529955   1.593   5.464   2.805 -2.2969  1.1976 -1.2963
   41MOL   H27629956   1.528   5.418   2.652 -1.5659  1.4151  1.1842
   41MOL   H27729957   1.796   5.292   2.758 -2.6807 -2.0630  0.0084
   41MOL   H27829958   1.725   5.282   2.599 -0.2840  0.6602  0.1689
   41MOL   H27929959   1.836   5.527   2.738  1.6138 -0.1518  0.1383
   41MOL   H28029960   1.771   5.528   2.574  1.7474 -1.6778 -1.9182
   41MOL   H28129961   2.003   5.368   2.693  1.0337  0.7095 -0.9936
   41MOL   H28229962   1.961   5.368   2.517 -1.0338 -1.7999  0.9676
   41MOL   H28329963   2.025   5.630   2.646 -0.6480 -1.5132  0.2477
   41MOL   H28429964   2.003   5.581   2.479 -0.7312 -1.0710 -1.3411
   41MOL   H28529965   2.235   5.489   2.667 -0.6301  2.3518  0.6736
   41MOL   H28629966   2.252   5.630   2.571 -0.2720 -0.0980  2.3221
   41MOL   H28729967   2.217   5.485   2.363  1.3167 -0.4576 -0.0373
   41MOL   H28829968   2.226   5.343   2.447 -2.3994  0.4618  0.3703
   41MOL   H28929969   2.458   5.560   2.454 -0.0700  0.2493 -0.0409
   41MOL   H29029970   2.447   5.426   2.354 -1.1288  2.9175 -1.0860
   41MOL   H29129971   2.446   5.259   2.547  0.7924 -0.0610 -0.8520
   41MOL   H29229972   2.434   5.401   2.656 -3.0411  3.3674 -2.1618
   41MOL   H29329973   2.659   5.473   2.557 -1.7423 -0.2397 -0.1185
   41MOL   H29429974   2.645   5.337   2.459  2.1346  3.2372 -0.7203
   41MOL   H29529975   2.660   5.186   2.662  1.0944 -0.5429  0.8245
   41MOL   H29629976   2.650   5.332   2.769 -0.8371  0.0420  0.0726
   41MOL   H29729977   2.862   5.395   2.637  1.1769  0.8891  4.2401
   41MOL   C29829978   2.924   5.210   2.703  0.4129  0.5749  0.0106
   41MOL   O29929979   2.888   5.113   2.768 -0.6931 -0.3954  0.5285
   41MOL   C30029980   3.071   5.246   2.681 -0.2513 -0.1000  0.0494
   41MOL   C30129981   3.150   5.125   2.629 -0.1305 -0.0439 -0.1147
   41MOL   C30229982   3.278   5.177   2.560  0.3643 -0.3993 -0.0710
   41MOL   C30329983   3.355   5.058   2.498  0.8193 -0.2004  0.2784
   41MOL   C30429984   3.412   4.948   2.601  0.7624  0.7847  0.5224
   41MOL   C30529985   3.502   4.841   2.547 -0.1218  0.5033 -0.1038
   41MOL   C30629986   3.435   4.748   2.450  1.2990 -0.3652  0.7184
   41MOL   C30729987   3.315   4.667   2.505 -0.2640 -0.8969 -0.3528
   41MOL   C30829988   3.273   4.554   2.410  0.2732  0.2477  1.0782
   41MOL   C30929989   3.179   4.437   2.467 -0.1715 -0.6897  0.1864
   41MOL   C31029990   3.035   4.484   2.486  0.3256 -0.1270  0.3683
   41MOL   N31129991   2.946   4.375   2.515 -0.0368  0.1054 -0.6211
   41MOL   H31229992   3.120   5.273   2.774  0.9348 -0.8900 -0.3171
   41MOL   H31329993   3.078   5.330   2.613  1.7711 -1.1725 -1.1235
   41MOL   H31429994   3.184   5.069   2.715  1.9588  1.7503  0.2915
   41MOL   H31529995   3.098   5.060   2.559  0.4438 -1.6549  0.9508
   41MOL   H31629996   3.330   5.233   2.638 -0.7692 -0.9339  1.0930
   41MOL   H31729997   3.245   5.237   2.475 -0.4360  0.7450  1.0268
   41MOL   H31829998   3.304   5.002   2.419 -0.9152  0.3336  0.9847
   41MOL   H31929999   3.439   5.110   2.452  0.4861  3.1138  3.2492
   41MOL   H32030000   3.328   4.903   2.653  1.9934 -1.4579  0.6162
   41MOL   H32130001   3.459   5.004   2.682  3.4606  1.5222 -1.4524
   41MOL   H32230002   3.542   4.780   2.629 -0.6323 -0.0843 -0.2820
   41MOL   H32330003   3.578   4.899   2.495  0.5905  1.2930  1.7968
   41MOL   H32430004   3.496   4.674   2.398  1.9730  1.2523 -0.8035
   41MOL   H32530005   3.397   4.804   2.366  0.8479 -0.2848  0.9742
   41MOL   H32630006   3.230   4.731   2.529  0.3434  0.1713 -1.0076
   41MOL   H32730007   3.339   4.623   2.602  0.1139  0.5780  0.2383
   41MOL   H32830008   3.359   4.497   2.375 -0.2992 -1.1551  1.8760
   41MOL   H32930009   3.233   4.595   2.317  0.6237  1.9756  1.6810
   41MOL   H33030010   3.217   4.384   2.554 -0.8380  0.3523  1.1367
   41MOL   H33130011   3.191   4.363   2.389  0.7412 -0.4856  0.1358
   41MOL   H33230012   3.003   4.527   2.391 -2.4323 -0.1191  1.2442
   41MOL   H33330013   3.018   4.562   2.561  0.2839 -2.8506  3.2923
   41MOL   H33430014   2.988   4.283   2.519  0.7478  0.3580 -2.6196
   41MOL   C33530015   2.819   4.381   2.507 -0.0125 -1.2276 -0.3820
   41MOL   O33630016   2.761   4.488   2.482  0.0652 -0.5092  0.3546
   41MOL   C33730017   2.743   4.250   2.512  0.0026  0.3835  0.1724
   41MOL   C33830018   2.595   4.262   2.522 -0.0097  0.1644  0.1548
   41MOL   C33930019   2.526   4.130   2.502  0.5420  0.3428 -0.0257
   41MOL   C34030020   2.374   4.136   2.511 -0.3845 -0.2513  0.2891
   41MOL   C34130021   2.316   4.114   2.652  0.6818  0.0933 -0.4281
   41MOL   C34230022   2.253   3.972   2.638  0.3269 -0.8063 -0.4333
   41MOL   C34330023   2.217   3.913   2.774  0.5091  0.3849 -0.2150
   41MOL   C34430024   2.145   3.776   2.762  0.3639  0.2074 -0.1388
   41MOL   C34530025   2.140   3.715   2.903 -0.0380  0.1360  0.1213
   41MOL   C34630026   2.035   3.606   2.893 -0.2819  0.1746  0.3590
   41MOL   C34730027   1.980   3.560   3.026  0.0950 -0.3560  0.5337
   41MOL   N34830028   1.902   3.664   3.098  1.2136 -0.8938  0.8599
   41MOL   H34930029   2.771   4.189   2.599 -1.4769  0.9238  1.0594
   41MOL   H35030030   2.779   4.198   2.423  1.4827 -2.0993  2.1337
   41MOL   H35130031   2.577   4.311   2.618  0.0804  1.4235 -0.4594
   41MOL   H35230032   2.566   4.334   2.445  0.2076  0.4790  0.3646
   41MOL   H35330033   2.560   4.058   2.576  1.5309  0.5341 -0.2919
   41MOL   H35430034   2.558   4.083   2.409 -0.7030 -2.7098  1.0130
   41MOL   H35530035   2.340   4.233   2.474 -0.0462  0.3289  1.4703
   41MOL   H35630036   2.328   4.068   2.439  0.0709  0.2480 -0.4784
   41MOL   H35730037   2.241   4.192   2.665  0.0820 -0.5397  0.0178
   41MOL   H35830038   2.391   4.109   2.731  1.7573  2.1797 -1.2998
   41MOL   H35930039   2.326   3.909   2.587  0.1741 -0.8043 -0.6540
   41MOL   H36030040   2.165   3.984   2.576 -1.1126 -2.6189  1.1998
   41MOL   H36130041   2.150   3.983   2.824 -0.2939 -2.0380  2.2283
   41MOL   H36230042   2.306   3.903   2.836  1.2556  1.1604 -1.1479
   41MOL   H36330043   2.199   3.710   2.693  0.8587 -0.1359  0.5736
   41MOL   H36430044   2.048   3.791   2.713  0.6630  0.2518 -0.7203
   41MOL   H36530045   2.121   3.790   2.980 -1.2612  0.1353 -0.1561
   41MOL   H36630046   2.239   3.673   2.918 -0.3967 -0.9831 -0.5595
   41MOL   H36730047   2.068   3.509   2.856  2.4637  1.6772 -1.3578
   41MOL   H36830048   1.957   3.640   2.825 -0.9159 -2.0054 -0.0153
   41MOL   H36930049   2.062   3.522   3.086  0.2950 -0.0938  0.4235
   41MOL   H37030050   1.913   3.478   2.999  1.4076 -0.5582 -2.2761
   41MOL   H37130051   1.833   3.715   3.044  0.9111  0.7959  2.7876
   41MOL   C37230052   1.924   3.718   3.222  0.3615  0.3564 -0.5391
   41MOL   O37330053   2.010   3.666   3.295 -0.9685  0.3403  0.6411
   41MOL   C37430054   1.842   3.844   3.264 -0.3405  0.0631 -0.2451
   41MOL   C37530055   1.735   3.834   3.372 -0.3689 -0.4438  0.2849
   41MOL   C37630056   1.618   3.744   3.329  0.0063  0.0558 -0.3558
   41MOL   C37730057   1.506   3.733   3.432  0.4386 -0.1632 -1.0189
   41MOL   C37830058   1.434   3.864   3.455  0.1590 -0.2432 -0.6609
   41MOL   C37930059   1.320   3.844   3.546 -0.1527 -0.4992  0.1832
   41MOL   C38030060   1.211   3.954   3.545 -0.0634 -0.2528 -0.2801
   41MOL   C38130061   1.259   4.093   3.597  0.1831  0.1358 -0.0371
   41MOL   C38230062   1.147   4.192   3.642 -0.0921 -0.3151 -0.1842
   41MOL   C38330063   1.190   4.334   3.661 -0.3292 -0.1804 -0.6287
   41MOL   C38430064   1.080   4.426   3.716 -0.1145  0.3906 -0.6738
   41MOL   N38530065   1.121   4.566   3.700 -0.1739 -0.2580  0.3210
   41MOL   H38630066   1.796   3.884   3.173  1.3064  2.4568 -0.0639
   41MOL   H38730067   1.924   3.909   3.294 -0.0808  0.2931 -1.3976
   41MOL   H38830068   1.775   3.791   3.463 -0.1687 -2.3360 -0.6629
   41MOL   H38930069   1.698   3.933   3.399  0.1892  0.1243 -0.9655
   41MOL   H39030070   1.665   3.646   3.320 -1.2964 -0.7549  1.4629
   41MOL   H39130071   1.573   3.790   3.241 -1.4789  2.7525  1.7551
   41MOL   H39230072   1.427   3.670   3.391 -0.8515  0.2039  0.8449
   41MOL   H39330073   1.542   3.686   3.523  0.6791  1.7766 -0.0903
   41MOL   H39430074   1.379   3.896   3.366  0.1390  2.6141  0.3272
   41MOL   H39530075   1.487   3.956   3.479 -0.5197  0.4831 -1.8674
   41MOL   H39630076   1.355   3.827   3.648  0.4233  0.1385  0.0878
   41MOL   H39730077   1.279   3.744   3.528  1.2833 -0.9940 -0.3970
   41MOL   H39830078   1.136   3.920   3.617  0.3710  0.2622  0.4264
   41MOL   H39930079   1.146   3.963   3.458  0.9294 -3.5267 -1.4322
   41MOL   H40030080   1.324   4.144   3.525  0.8235 -0.4647  0.1134
   41MOL   H40130081   1.329   4.065   3.675  0.9459 -3.0480 -1.7675
   41MOL   H40230082   1.096   4.162   3.733 -0.2931  0.2842 -0.0932
   41MOL   H40330083   1.059   4.185   3.578 -1.7779  1.1531  1.8962
   41MOL   H40430084   1.218   4.363   3.560 -2.8725 -1.8413 -1.8447
   41MOL   H40530085   1.274   4.348   3.730 -0.7900  0.5816 -0.2144
   41MOL   H40630086   1.052   4.400   3.818 -1.1155  0.7951 -0.8383
   41MOL   H40730087   0.989   4.412   3.657 -1.0714  0.9808  0.6559
   41MOL   H40830088   1.148   4.606   3.611  1.0437 -1.5574  0.0920
   41MOL   C40930089   1.120   4.652   3.799 -0.6565  0.0463  0.2745
   41MOL   O41030090   1.074   4.639   3.914  0.3724 -0.3580 -0.1677
   41MOL   C41130091   1.178   4.795   3.767 -0.5887 -0.1527  0.1590
   41MOL   C41230092   1.124   4.913   3.845  0.4072 -0.5906  0.7700
   41MOL   C41330093   1.219   5.032   3.866 -0.4859 -0.0916 -0.0941
   41MOL   C41430094   1.216   5.132   3.737 -0.3313  0.5026  0.1835
   41MOL   C41530095   1.265   5.275   3.780 -0.1789 -0.4049  0.4315
   41MOL   C41630096   1.275   5.377   3.668  0.3532 -0.1811  0.6360
   41MOL   C41730097   1.284   5.521   3.732  0.1124 -0.3191  0.2636
   41MOL   C41830098   1.307   5.629   3.626 -0.7492  0.0867  0.1103
   41MOL   C41930099   1.268   5.773   3.664 -0.1788  0.5396 -0.0046
   41MOL   C42030100   1.326   5.869   3.563 -0.3307  0.1206  0.0680
   41MOL   C42130101   1.274   5.862   3.415  0.0220 -0.4931 -0.7500
   41MOL   N42230102   1.341   5.965   3.345  0.5885  0.0626  0.1291
   41MOL   H42330103   1.188   4.817   3.661 -0.4016 -1.6419 -0.1392
   41MOL   H42430104   1.280   4.790   3.805 -0.2899 -1.3968 -0.7670
   41MOL   H42530105   1.028   4.947   3.806  0.5051 -1.1356  0.0436
   41MOL   H42630106   1.090   4.886   3.945  1.8115 -1.9519  0.8895
   41MOL   H42730107   1.318   5.003   3.901 -1.2217 -2.0754  0.3953
   41MOL   H42830108   1.193   5.091   3.954 -1.9917 -3.4943  1.8257
   41MOL   H42930109   1.247   5.077   3.648  0.6864 -0.5735  1.1878
   41MOL   H43030110   1.112   5.154   3.715  0.1570  1.2560 -1.4478
   41MOL   H43130111   1.358   5.268   3.835 -1.0119  3.4441  2.4838
   41MOL   H43230112   1.189   5.313   3.849  2.0609  2.8085  1.2438
   41MOL   H43330113   1.186   5.363   3.606  0.8312  1.6668 -0.5223
   41MOL   H43430114   1.371   5.357   3.619  0.7380 -1.4857  1.8769
   41MOL   H43530115   1.372   5.532   3.794  1.3187 -4.6483 -0.4823
   41MOL   H43630116   1.198   5.535   3.798 -0.8520 -0.7310 -0.8800
   41MOL   H43730117   1.248   5.601   3.538 -1.9869 -2.0819  1.5643
   41MOL   H43830118   1.411   5.631   3.593 -0.5646 -1.1289  0.6041
   41MOL   H43930119   1.299   5.806   3.763 -0.4825 -0.9945  0.6152
   41MOL   H44030120   1.159   5.774   3.658 -0.1692  2.2710 -0.1438
   41MOL   H44130121   1.435   5.866   3.559 -0.3794 -3.2694 -0.7471
   41MOL   H44230122   1.307   5.966   3.608  1.3875  0.2711  0.5155
   41MOL   H44330123   1.167   5.881   3.413  0.0633 -0.0975  0.4679
   41MOL   H44430124   1.308   5.772   3.364  1.3983 -0.1270 -0.4927
   41MOL   H44530125   1.412   6.016   3.396 -0.3100  2.1572 -0.6743
   41MOL   C44630126   1.310   6.013   3.224 -0.2422  0.0655  0.8896
   41MOL   O44730127   1.235   5.947   3.146 -0.6007  0.0872  0.0601
   41MOL   C44830128   1.368   6.152   3.184  0.3570  0.2555 -0.4008
   41MOL   C44930129   1.389   6.173   3.036 -0.8660  0.0844  0.8261
   41MOL   C45030130   1.421   6.323   3.008 -0.1805 -0.0583  0.5084
   41MOL   C45130131   1.470   6.354   2.871  0.0690 -0.2162 -0.6276
   41MOL   C45230132   1.612   6.316   2.837 -0.1793 -0.9281  0.3567
   41MOL   C45330133   1.650   6.327   2.692  0.2192  0.3473 -0.5376
   41MOL   C45430134   1.797   6.317   2.649  0.8558 -0.1686  0.3543
   41MOL   C45530135   1.811   6.313   2.497  0.3267  0.4171  0.3736
   41MOL   C45630136   1.953   6.264   2.448 -0.3153  0.5087  0.9642
   41MOL   C45730137   1.966   6.250   2.293  0.2384  0.6782 -1.1510
   41MOL   C45830138   2.086   6.157   2.258 -0.3483  0.2343 -0.5611
   41MOL   N45930139   2.087   6.134   2.114  0.2358 -0.0055 -0.0914
   41MOL   H46030140   1.451   6.180   3.250 -1.7958  2.2273  1.5504
   41MOL   H46130141   1.280   6.211   3.207 -0.7891 -1.5340 -0.1381
   41MOL   H46230142   1.481   6.120   3.010 -2.3982 -2.8495  1.2102
   41MOL   H46330143   1.303   6.143   2.975  0.0755 -2.1917  0.5512
   41MOL   H46430144   1.484   6.363   3.087 -0.2542 -0.2465  0.6605
   41MOL   H46530145   1.326   6.372   3.030 -0.5061 -0.6028  0.3302
   41MOL   H46630146   1.411   6.302   2.796  0.0398 -1.9027  0.5187
   41MOL   H46730147   1.438   6.457   2.854 -0.4219 -0.2594  0.0236
   41MOL   H46830148   1.634   6.216   2.874  1.6608  1.0745  5.0583
   41MOL   H46930149   1.675   6.387   2.890  0.1929  1.0122 -2.5652
   41MOL   H47030150   1.613   6.420   2.649  0.8040  0.9065  0.1551
   41MOL   H47130151   1.584   6.255   2.643  0.5584 -0.9204  0.8135
   41MOL   H47230152   1.846   6.227   2.687 -0.0250 -0.7475  0.1435
   41MOL   H47330153   1.839   6.406   2.695 -3.2003  2.6948 -1.2014
   41MOL   H47430154   1.784   6.407   2.448 -2.2853 -0.8307 -0.6572
   41MOL   H47530155   1.737   6.244   2.459 -0.5544  0.3400  2.1979
   41MOL   H47630156   1.969   6.162   2.484  0.1974 -0.0354 -0.7178
   41MOL   H47730157   2.031   6.332   2.483  0.7196  0.1904 -0.6683
   41MOL   H47830158   1.970   6.345   2.240  0.4782  1.2139 -0.1821
   41MOL   H47930159   1.873   6.209   2.254  0.1440  0.7786 -1.0293
   41MOL   H48030160   2.073   6.062   2.309  1.8722  0.3012  0.1719
   41MOL   H48130161   2.178   6.201   2.296  0.0088 -2.3256  1.6676
   41MOL   H48230162   2.017   6.184   2.061 -0.8216 -0.3628  0.9529
   41MOL   C48330163   2.146   6.035   2.039  0.2523 -0.1476 -0.6869
   41MOL   O48430164   2.236   5.967   2.089  0.8685  0.1550 -0.2646
   41MOL   C48530165   2.084   5.999   1.906  0.1950  0.0579 -0.3527
   41MOL   C48630166   2.186   5.965   1.803  0.7415 -0.2156  1.0122
   41MOL   C48730167   2.298   6.063   1.771  0.3912 -0.1987  0.7088
   41MOL   C48830168   2.399   6.018   1.670  0.6508 -0.0913  0.4164
   41MOL   C48930169   2.512   6.126   1.657 -0.2075 -0.1484 -0.3037
   41MOL   C49030170   2.611   6.097   1.774  0.4614 -0.0973 -0.3113
   41MOL   C49130171   2.745   6.163   1.775 -0.1521 -0.4221  0.2903
   41MOL   C49230172   2.838   6.115   1.886 -0.0990 -0.3596  0.7067
   41MOL   C49330173   2.780   6.153   2.026 -0.6908  0.0399 -0.3186
   41MOL   C49430174   2.878   6.154   2.142  0.0521 -0.2057 -0.0964
   41MOL   C49530175   2.819   6.200   2.284 -0.2572 -0.7201 -0.0856
   41MOL   N49630176   2.748   6.326   2.261 -0.2870 -0.2399  0.6275
   41MOL   H49730177   2.028   6.087   1.874  2.2745  1.2148 -0.9096
   41MOL   H49830178   2.010   5.919   1.907  1.4825 -1.1798 -2.3168
   41MOL   H49930179   2.233   5.872   1.836  0.8337 -0.4131  0.3360
   41MOL   H50030180   2.138   5.925   1.714  0.2154  1.5185  0.5067
   41MOL   H50130181   2.347   6.097   1.863 -0.2446  0.6252  0.7518
   41MOL   H50230182   2.258   6.159   1.738 -1.3454 -1.5849 -1.3537
   41MOL   H50330183   2.431   5.922   1.711  1.9180 -0.2030 -0.7759
   41MOL   H50430184   2.341   6.011   1.577  0.9784  0.2506  0.1888
   41MOL   H50530185   2.471   6.227   1.663 -0.0461 -0.2130  2.4212
   41MOL   H50630186   2.561   6.125   1.560  0.4915  3.0464 -0.0521
   41MOL   H50730187   2.632   5.990   1.771  2.6191  0.2471  1.7680
   41MOL   H50830188   2.570   6.109   1.874  2.2352  0.2981  0.3793
   41MOL   H50930189   2.739   6.272   1.778  1.8401 -0.1929 -1.9340
   41MOL   H51030190   2.794   6.149   1.679  1.4408 -3.0667  1.4395
   41MOL   H51130191   2.933   6.167   1.873 -0.2920 -0.2489 -0.2833
   41MOL   H51230192   2.855   6.008   1.879 -0.5320 -0.3012 -1.7252
   41MOL   H51330193   2.714   6.068   2.044  2.6240 -2.5325  0.3311
   41MOL   H51430194   2.721   6.244   2.021  1.1249  1.1783 -1.4899
   41MOL   H51530195   2.971   6.205   2.119 -0.4836  0.4069 -0.9460
   41MOL   H51630196   2.918   6.054   2.159 -0.3880 -0.2310  0.7692
   41MOL   H51730197   2.897   6.209   2.360  0.3674 -1.3320 -0.6475
   41MOL   H51830198   2.742   6.126   2.306 -0.3875 -0.7747 -0.7127
   41MOL   H51930199   2.778   6.389   2.188 -2.7333 -0.0276 -0.2367
   41MOL   C52030200   2.655   6.376   2.337  0.3543  0.2176  0.7875
   41MOL   O52130201   2.615   6.306   2.431  0.3565 -0.3226  0.1907
   41MOL   C52230202   2.583   6.502   2.306 -0.2815 -0.8881  0.0805
   41MOL   C52330203   2.433   6.478   2.274  0.3217  0.0221 -0.0824
   41MOL   C52430204   2.416   6.405   2.138 -0.2951  0.7326  0.1442
   41MOL   C52530205   2.426   6.507   2.023  0.5074  0.4835 -0.1642
   41MOL   C52630206   2.378   6.443   1.893 -0.4756 -0.0053  0.8995
   41MOL   C52730207   2.355   6.531   1.770 -0.0634 -0.2508  0.2678
   41MOL   C52830208   2.295   6.471   1.640 -0.5696  1.1274 -0.0564
   41MOL   C52930209   2.192   6.566   1.582 -0.3521 -0.0036  0.1955
   41MOL   C53030210   2.246   6.696   1.522 -0.3007  0.0517  0.2580
   41MOL   C53130211   2.136   6.789   1.475 -0.2078 -0.7548  0.6488
   41MOL   C53230212   2.122   6.769   1.324 -0.8174  0.5986 -0.5826
   41MOL   N53330213   2.035   6.866   1.265  0.5370  0.3780  0.1648
   41MOL   H53430214   2.634   6.540   2.217 -1.5382  0.4603 -0.0873
   41MOL   H53530215   2.589   6.571   2.390  1.1719 -0.1637 -0.5996
   41MOL   H53630216   2.388   6.415   2.351  0.0121  0.0109 -0.2695
   41MOL   H53730217   2.368   6.565   2.271 -1.4171 -1.1765  1.9390
   41MOL   H53830218   2.314   6.368   2.149 -0.8402  2.5476  1.3356
   41MOL   H53930219   2.486   6.327   2.109 -0.1488  0.8772  0.1053
   41MOL   H54030220   2.353   6.586   2.040  0.1967 -0.2229  1.8322
   41MOL   H54130221   2.526   6.551   2.021 -0.6855  3.2725 -2.3975
   41MOL   H54230222   2.285   6.393   1.922 -0.9289 -0.3640 -1.0750
   41MOL   H54330223   2.441   6.357   1.870 -1.7029 -1.0633  1.3733
   41MOL   H54430224   2.455   6.568   1.747 -0.9251  1.5864 -0.6523
   41MOL   H54530225   2.280   6.601   1.805 -0.8845 -1.5121  1.0907
   41MOL   H54630226   2.249   6.374   1.658  0.1590  0.5283 -1.4328
   41MOL   H54730227   2.372   6.455   1.565  0.3447  1.7729  0.7267
   41MOL   H54830228   2.114   6.578   1.658  0.6617 -0.0734  1.2631
   41MOL   H54930229   2.151   6.510   1.498  0.4426 -0.8793  0.3804
   41MOL   H55030230   2.305   6.661   1.437  0.5756  1.2477  0.3564
   41MOL   H55130231   2.310   6.757   1.587 -0.3026 -0.2351  0.5317
   41MOL   H55230232   2.170   6.892   1.488 -0.7658 -0.8269  2.8990
   41MOL   H55330233   2.040   6.770   1.524 -0.4428  0.2000  0.5670
   41MOL   H55430234   2.073   6.673   1.303 -2.6886  1.1366  1.1124
   41MOL   H55530235   2.216   6.756   1.270  0.4750  1.7258  1.3567
   41MOL   H55630236   1.939   6.854   1.291  0.2793  1.0008 -0.4940
   41MOL   C55730237   2.076   6.974   1.199 -0.7437  0.0044  0.0543
   41MOL   O55830238   2.188   6.990   1.165 -0.1055  0.3094 -0.0487
   41MOL   C55930239   1.973   7.085   1.163 -0.0091 -0.4714  0.4120
   41MOL   C56030240   2.020   7.229   1.199 -0.5891 -0.7230 -0.3557
   41MOL   C56130241   2.023   7.260   1.351  0.9051 -0.2012 -0.1214
   41MOL   C56230242   1.883   7.274   1.415  0.1095  1.1269 -0.8114
   41MOL   C56330243   1.868   7.308   1.570  0.4392  0.5601 -0.2631
   41MOL   C56430244   1.724   7.327   1.610 -0.3847 -1.0896  0.3525
   41MOL   C56530245   1.707   7.396   1.745  0.8759 -0.3165 -0.8263
   41MOL   C56630246   1.566   7.383   1.793  0.2868  0.0299  0.7578
   41MOL   C56730247   1.517   7.481   1.906 -0.0711 -0.3358 -0.1068
   41MOL   C56830248   1.372   7.459   1.941  0.6472  0.3694 -0.5391
   41MOL   C56930249   1.302   7.563   2.036 -0.6575 -0.3294 -0.5632
   41MOL   N57030250   1.163   7.518   2.056 -0.0358  0.1028 -0.4487
   41MOL   H57130251   1.885   7.057   1.220 -0.4518 -0.4879 -0.2691
   41MOL   H57230252   1.961   7.071   1.055 -0.4590 -0.4042  0.4509
   41MOL   H57330253   2.110   7.260   1.146 -1.7291  0.1806 -1.8134
   41MOL   H57430254   1.945   7.293   1.153  1.2717  0.4326 -1.8912
   41MOL   H57530255   2.071   7.356   1.368 -0.8192  0.5527  0.7081
   41MOL   H57630256   2.095   7.194   1.397 -0.1249  0.4807  2.5585
   41MOL   H57730257   1.820   7.349   1.366  0.2815  0.4635 -2.0388
   41MOL   H57830258   1.841   7.176   1.394  0.8119  1.0388 -1.8470
   41MOL   H57930259   1.921   7.400   1.593 -0.7392  0.8915  1.1956
   41MOL   H58030260   1.913   7.230   1.631 -0.7898 -0.0420 -0.0938
   41MOL   H58130261   1.700   7.222   1.629  0.5048 -0.9798  2.1756
   41MOL   H58230262   1.665   7.366   1.527  1.2605 -1.1691 -0.8840
   41MOL   H58330263   1.717   7.504   1.733 -2.6888  0.1318 -0.1236
   41MOL   H58430264   1.783   7.368   1.819  0.1629 -0.6232 -0.2027
   41MOL   H58530265   1.542   7.280   1.820  0.5634  0.1731  1.5548
   41MOL   H58630266   1.495   7.420   1.718 -0.2304 -4.2876 -1.0308
   41MOL   H58730267   1.537   7.585   1.878 -0.9142 -0.4905 -1.3520
   41MOL   H58830268   1.585   7.466   1.990  0.7487 -1.2985 -0.9270
   41MOL   H58930269   1.342   7.363   1.982  0.5091  0.3530 -0.6812
   41MOL   H59030270   1.309   7.467   1.853 -2.9326  1.2182  1.9751
   41MOL   H59130271   1.301   7.660   1.986  3.0043  0.0254 -0.1028
   41MOL   H59230272   1.350   7.581   2.133 -1.6417  0.1444 -0.1585
   41MOL   H59330273   1.100   7.528   1.977 -0.6339  0.6067  0.0868
   41MOL   C59430274   1.107   7.499   2.173 -0.2945 -0.3666 -0.2744
   41MOL   O59530275   1.169   7.501   2.283  0.0319 -0.4762 -0.2502
   41MOL   C59630276   0.957   7.457   2.169  0.8060  0.0911  0.1202
   41MOL   C59730277   0.924   7.308   2.140 -0.0883  0.3945  0.1149
   41MOL   C59830278   0.970   7.259   2.004  0.0521 -0.4726  0.5113
   41MOL   C59930279   0.974   7.103   1.984  0.0951  0.5085  0.0749
   41MOL   C60030280   1.012   7.060   1.839 -0.0734 -0.0315 -0.1497
   41MOL   C60130281   1.159   7.073   1.808  0.0749  0.3301 -0.0460
   41MOL   C60230282   1.195   7.032   1.668 -1.0592 -0.7508 -0.2237
   41MOL   C60330283   1.338   7.072   1.626 -0.0316 -0.3576  0.7446
   41MOL   C60430284   1.362   7.026   1.484 -0.3165 -0.3806  0.2639
   41MOL   C60530285   1.477   7.096   1.407 -0.1563  0.2417  0.2908
   41MOL   C60630286   1.517   7.050   1.264 -0.5802  0.9757  0.2489
   41MOL   N60730287   1.531   6.908   1.264 -0.3379  0.5409 -0.5616
   41MOL   H60830288   0.905   7.529   2.106 -1.7003 -1.4142  0.3972
   41MOL   H60930289   0.912   7.485   2.264 -0.4002 -0.2292 -0.3537
   41MOL   H61030290   0.983   7.259   2.218  0.8512  1.8736  0.3524
   41MOL   H61130291   0.820   7.277   2.151 -0.0005  0.1464  0.2575
   41MOL   H61230292   1.070   7.300   1.987  0.1595  0.2621  2.8024
   41MOL   H61330293   0.906   7.307   1.929 -0.5214 -2.3791 -0.2563
   41MOL   H61430294   1.041   7.049   2.051  1.7606  0.5499 -1.5099
   41MOL   H61530295   0.875   7.059   1.989  0.3933 -0.1870 -0.1035
   41MOL   H61630296   0.944   7.124   1.782  0.7436  1.1701  0.1839
   41MOL   H61730297   0.987   6.954   1.840 -1.1120  0.1650 -2.1867
   41MOL   H61830298   1.215   7.015   1.882 -0.3210  1.5569  1.2492
   41MOL   H61930299   1.194   7.176   1.819 -3.6584  1.2771  5.1305
   41MOL   H62030300   1.123   7.069   1.594  2.1500  4.7511 -0.8954
   41MOL   H62130301   1.189   6.924   1.666  0.9884 -0.8724 -0.8438
   41MOL   H62230302   1.412   7.024   1.689 -1.3141 -2.0524  0.9973
   41MOL   H62330303   1.330   7.180   1.634  0.0461 -0.0687 -2.4115
   41MOL   H62430304   1.275   7.047   1.422 -0.1102 -0.4319 -0.0468
   41MOL   H62530305   1.379   6.919   1.484  1.3271 -0.1427  2.1363
   41MOL   H62630306   1.568   7.093   1.467  0.6165  1.4497 -0.7716
   41MOL   H62730307   1.460   7.203   1.402 -0.2999  0.1566 -1.6872
   41MOL   H62830308   1.617   7.089   1.245 -1.0226  2.5307  1.0529
   41MOL   H62930309   1.446   7.080   1.186 -0.8428 -0.1208  0.0524
   41MOL   H63030310   1.452   6.864   1.220 -0.9584  0.8445  0.2311
   41MOL   C63130311   1.644   6.838   1.288 -0.7050  0.6404 -0.1484
   41MOL   O63230312   1.744   6.887   1.346 -0.0918  0.1505  0.3219
   41MOL   C63330313   1.649   6.688   1.246 -0.0705 -0.8443  0.0853
   41MOL   C63430314   1.675   6.601   1.376 -1.0521  0.1765 -0.4247
   41MOL   C63530315   1.818   6.586   1.421 -0.4660 -0.2261  0.6043
   41MOL   C63630316   1.840   6.478   1.527  0.2484  0.2029 -0.5253
   41MOL   C63730317   1.839   6.332   1.470  0.9367 -0.2243  0.4377
   41MOL   C63830318   1.867   6.214   1.562  0.3755 -0.4074 -0.0055
   41MOL   C63930319   1.822   6.074   1.514  0.1584  0.2269 -0.4299
   41MOL   C64030320   1.776   5.981   1.624 -0.7969 -0.8238  0.2441
   41MOL   C64130321   1.740   5.838   1.573  0.2501 -0.4540 -0.3290
   41MOL   C64230322   1.714   5.737   1.680  0.1386 -0.3016 -0.1491
   41MOL   C64330323   1.645   5.611   1.614 -0.2335 -0.3053 -0.2057
   41MOL   N64430324   1.646   5.498   1.711  0.1235 -0.2263 -0.6243
   41MOL   H64530325   1.737   6.685   1.182  0.5489  2.0233  0.7334
   41MOL   H64630326   1.565   6.657   1.184 -0.0775  1.2819 -0.9890
   41MOL   H64730327   1.617   6.633   1.462  2.0021  2.7816  0.7334
   41MOL   H64830328   1.633   6.503   1.354 -0.4366 -0.0322 -0.6721
   41MOL   H64930329   1.855   6.679   1.465  1.2035 -0.6770  0.1989
   41MOL   H65030330   1.882   6.556   1.338 -0.1509 -2.6129  1.6700
   41MOL   H65130331   1.923   6.496   1.595 -1.8778 -0.2191  2.2353
   41MOL   H65230332   1.750   6.492   1.587  0.5440 -0.7779  0.1567
   41MOL   H65330333   1.904   6.316   1.384 -0.5514  1.6130 -1.0804
   41MOL   H65430334   1.741   6.313   1.426  0.7412 -0.9802  1.1950
   41MOL   H65530335   1.835   6.221   1.666  1.6024  1.0926  0.2960
   41MOL   H65630336   1.975   6.206   1.579  0.8029  1.4258 -1.6163
   41MOL   H65730337   1.899   6.015   1.464 -0.8786 -0.0011 -1.7689
   41MOL   H65830338   1.745   6.080   1.437  0.2400 -1.9405 -0.7083
   41MOL   H65930339   1.680   6.009   1.668 -1.9491 -2.2207 -1.2852
   41MOL   H66030340   1.855   5.973   1.698  0.2544  0.0143 -0.7639
   41MOL   H66130341   1.812   5.798   1.502  1.9602 -0.4236  1.3465
   41MOL   H66230342   1.647   5.849   1.517  1.4190  2.0291 -1.8744
   41MOL   H66330343   1.649   5.776   1.758 -0.3373 -2.4337  0.5350
   41MOL   H66430344   1.801   5.708   1.739  0.3045  1.5376  0.5510
   41MOL   H66530345   1.688   5.583   1.518  1.5688 -2.0453  1.0631
   41MOL   H66630346   1.542   5.637   1.593  0.3734  1.3506 -1.2448
   41MOL   H66730347   1.725   5.437   1.718 -2.4347 -3.4383  1.6492
   41MOL   C66830348   1.566   5.471   1.810  0.4118 -0.0394  0.0915
   41MOL   O66930349   1.474   5.543   1.839  0.8106 -0.4860 -0.2769
   41MOL   C67030350   1.603   5.343   1.891  0.1390  0.4046  0.3924
   41MOL   C67130351   1.517   5.295   2.015  0.0138  0.1096 -0.7481
   41MOL   C67230352   1.501   5.400   2.117 -0.1219 -0.5422 -1.0247
   41MOL   C67330353   1.433   5.342   2.241  0.5269  0.4146 -0.4561
   41MOL   C67430354   1.409   5.450   2.344 -0.2700  1.0035 -0.1118
   41MOL   C67530355   1.316   5.414   2.464  0.0832  0.6751  0.1383
   41MOL   C67630356   1.172   5.370   2.419  0.5807 -0.7826 -0.1037
   41MOL   C67730357   1.088   5.328   2.544  0.2450 -0.1149 -0.8264
   41MOL   C67830358   0.949   5.270   2.526 -0.0249  0.0550 -0.4481
   41MOL   C67930359   0.866   5.259   2.656 -0.4578 -1.0446  0.0784
   41MOL   C68030360   0.714   5.209   2.647  0.2648 -0.4783 -0.8772
   41MOL   N68130361   0.641   5.303   2.568 -0.5331 -0.6497 -0.2546
   41MOL   H68230362   1.704   5.356   1.931  0.3308 -0.2486  0.1188
   41MOL   H68330363   1.612   5.256   1.826  1.3033 -0.3240  1.5084
   41MOL   H68430364   1.414   5.268   1.989 -0.9202  0.5390  2.2926
   41MOL   H68530365   1.567   5.206   2.054 -1.9659 -0.5259  0.4713
   41MOL   H68630366   1.445   5.488   2.085 -0.4902 -0.5993 -0.5340
   41MOL   H68730367   1.601   5.432   2.144 -0.3035  0.0957 -1.1120
   41MOL   H68830368   1.334   5.314   2.205  0.9420 -0.1157 -1.1821
   41MOL   H68930369   1.480   5.251   2.278  1.2738  0.7018 -0.6956
   41MOL   H69030370   1.371   5.544   2.303 -1.1884  1.2778  1.3380
   41MOL   H69130371   1.511   5.466   2.379  0.6489 -3.2026 -0.6147
   41MOL   H69230372   1.311   5.497   2.534 -0.3339 -1.3667  2.5830
   41MOL   H69330373   1.372   5.337   2.516  1.0583  0.5043 -1.1474
   41MOL   H69430374   1.175   5.281   2.355  1.4903 -1.5455  0.9918
   41MOL   H69530375   1.122   5.447   2.360  0.1948 -2.0688 -1.5119
   41MOL   H69630376   1.079   5.418   2.605 -0.8794 -0.2931 -0.7192
   41MOL   H69730377   1.145   5.250   2.594  0.5559 -0.6099 -1.9435
   41MOL   H69830378   0.960   5.182   2.463 -0.5426  0.0734 -0.5592
   41MOL   H69930379   0.898   5.340   2.461  0.3913  1.4010  0.6597
   41MOL   H70030380   0.869   5.359   2.698 -0.5317 -1.9772  2.3773
   41MOL   H70130381   0.909   5.202   2.738  2.0125  0.6186 -0.0252
   41MOL   H70230382   0.661   5.216   2.742  0.0222  0.0061 -1.0459
   41MOL   H70330383   0.699   5.110   2.604 -1.9765 -0.1975 -0.7821
   41MOL   H70430384   0.682   5.394   2.554 -1.5871 -0.2383 -0.7024
   41MOL   C70530385   0.513   5.295   2.527 -0.9031  0.4182 -0.4461
   41MOL   O70630386   0.428   5.222   2.573 -0.1877  0.2053 -0.6784
   41MOL   C70730387   0.473   5.392   2.418 -0.6083  0.7435  0.5140
   41MOL   C70830388   0.421   5.328   2.292  0.0489 -0.1534 -0.4006
   41MOL   C70930389   0.336   5.422   2.209 -0.5626 -0.1774  0.0224
   41MOL   C71030390   0.320   5.385   2.067  0.4934 -0.1189  0.1433
   41MOL   C71130391   0.446   5.400   1.982 -0.2787  0.0395 -0.1392
   41MOL   C71230392   0.519   5.544   1.994  0.2757  0.1701  0.2391
   41MOL   C71330393   0.661   5.538   2.066  0.1998 -0.2005  0.9413
   41MOL   C71430394   0.757   5.657   2.058  0.2995  0.4148  0.3669
   41MOL   C71530395   0.855   5.650   2.178  0.5302  0.1504 -0.1132
   41MOL   C71630396   0.804   5.725   2.299 -0.1798  0.3664 -0.5680
   41MOL   C71730397   0.895   5.712   2.422  0.5620 -0.2097 -0.0477
   41MOL   N71830398   0.821   5.748   2.536  0.1816  0.1577 -0.0739
   41MOL   H71930399   0.559   5.455   2.394 -1.2073  1.5559  0.4856
   41MOL   H72030400   0.403   5.463   2.463 -0.7271 -1.0747  3.3027
   41MOL   H72130401   0.495   5.276   2.231 -0.0898  1.0214 -1.6175
   41MOL   H72230402   0.349   5.255   2.329  0.0540  0.6574  1.2264
   41MOL   H72330403   0.375   5.524   2.213 -1.2358  0.0546  0.9418
   41MOL   H72430404   0.236   5.433   2.253 -1.3121 -2.7015 -0.9470
   41MOL   H72530405   0.278   5.285   2.055  1.1465 -0.3270 -0.4639
   41MOL   H72630406   0.238   5.448   2.032 -0.4354 -0.8601  0.9468
   41MOL   H72730407   0.421   5.378   1.879 -1.5260 -1.6020  0.5035
   41MOL   H72830408   0.520   5.328   2.017  0.5524  0.3467 -1.2528
   41MOL   H72930409   0.455   5.624   2.032 -1.3997 -0.9056 -0.2524
   41MOL   H73030410   0.544   5.575   1.892  0.5164 -1.3507 -0.1716
   41MOL   H73130411   0.710   5.450   2.023  0.3646  0.5123 -0.3402
   41MOL   H73230412   0.638   5.517   2.171  0.9850 -3.7100  0.4822
   41MOL   H73330413   0.705   5.753   2.061  2.2143  1.4830  0.3148
   41MOL   H73430414   0.813   5.653   1.965 -1.0569 -0.9007 -0.4305
   41MOL   H73530415   0.948   5.698   2.148  1.6279 -1.8961 -0.0802
   41MOL   H73630416   0.882   5.551   2.213  3.5304  0.3520 -1.6657
   41MOL   H73730417   0.712   5.670   2.323 -1.2704  1.8764 -1.1878
   41MOL   H73830418   0.783   5.825   2.262  0.9344  0.9520  0.3748
   41MOL   H73930419   0.987   5.768   2.403 -0.8320  2.5526  0.9067
   41MOL   H74030420   0.928   5.608   2.424 -0.0209 -0.3842  2.7022
   41MOL   H74130421   0.722   5.727   2.539  0.3210 -0.6903 -1.1829
   41MOL   H74230422   0.828   5.847   2.558 -1.2514 -0.0160  1.2646
   42MOL     C130423   5.664   6.034   5.119  0.7434 -0.0670 -0.5124
   42MOL     O230424   5.575   6.107   5.076 -0.2053  0.0740 -0.5160
   42MOL     C330425   5.628   5.911   5.208 -0.1094  0.1102 -0.3376
   42MOL     C430426   5.518   5.821   5.150 -0.9993 -0.4364  0.1467
   42MOL     C530427   5.388   5.875   5.210 -0.2425  0.2882  0.0404
   42MOL     C630428   5.267   5.793   5.171  0.2594  0.1809 -0.1671
   42MOL     C730429   5.142   5.859   5.236  0.0006 -0.4733  0.0691
   42MOL     C830430   5.007   5.839   5.158  0.2834  0.1222 -0.0693
   42MOL     C930431   4.886   5.864   5.234  0.7241  0.2122  0.0999
   42MOL    C1030432   4.749   5.843   5.169 -0.2502  0.3620  0.3747
   42MOL    C1130433   4.745   5.884   5.016 -0.2663  0.4653 -0.2901
   42MOL    C1230434   4.604   5.914   4.955 -0.1541 -0.4059  0.2539
   42MOL    C1330435   4.615   5.913   4.806 -0.2927 -0.4757  0.0396
   42MOL    N1430436   4.479   5.913   4.750 -0.0482  0.0050  0.0062
   42MOL    H1530437   5.607   5.946   5.309  0.1828 -1.9795  0.4650
   42MOL    H1630438   5.722   5.855   5.211 -1.7665 -2.6799  0.6158
   42MOL    H1730439   5.507   5.840   5.044 -4.0912  0.4810  0.5625
   42MOL    H1830440   5.534   5.715   5.170 -0.1414 -1.0629 -3.5286
   42MOL    H1930441   5.382   5.977   5.174 -0.1342  0.1155 -0.4704
   42MOL    H2030442   5.397   5.870   5.319  2.0966  0.6483 -0.1063
   42MOL    H2130443   5.271   5.808   5.064  2.1898 -0.1920 -0.1619
   42MOL    H2230444   5.284   5.687   5.190 -1.7988 -0.4399 -1.6389
   42MOL    H2330445   5.152   5.967   5.228 -2.0821 -0.4362 -2.6506
   42MOL    H2430446   5.129   5.838   5.342 -4.3539  1.9786  0.1204
   42MOL    H2530447   5.009   5.737   5.122 -0.4292  0.7793 -2.0501
   42MOL    H2630448   5.011   5.912   5.076  1.1178 -0.1726 -0.2993
   42MOL    H2730449   4.898   5.967   5.267  1.2400  0.0344  0.4727
   42MOL    H2830450   4.892   5.807   5.327 -0.4845 -0.6756 -0.3469
   42MOL    H2930451   4.674   5.900   5.223 -0.3100 -0.8226  1.5713
   42MOL    H3030452   4.721   5.738   5.177  1.2751 -0.1695 -0.8290
   42MOL    H3130453   4.803   5.809   4.963 -1.4811 -2.1181  1.9256
   42MOL    H3230454   4.815   5.967   5.002  1.5637 -0.8085  1.0549
   42MOL    H3330455   4.553   6.002   4.993  2.4881  0.7883  1.1208
   42MOL    H3430456   4.546   5.827   4.988 -3.0828  2.0974  1.9276
   42MOL    H3530457   4.655   5.822   4.761 -1.4015 -1.0292  0.1719
   42MOL    H3630458   4.671   6.001   4.773  2.7603 -1.0899  3.3034
   42MOL    H3730459   4.401   5.897   4.811  0.6140  0.3564  0.9585
   42MOL    H3830460   5.772   6.046   5.111  0.8837 -0.9961 -0.1008
   42MOL    C3930461   4.448   5.897   4.619  0.2774 -0.1915  0.5042
   42MOL    O4030462   4.531   5.911   4.531 -0.1731 -0.1798  0.5755
   42MOL    C4130463   4.305   5.877   4.577  0.8224 -1.2295  0.0224
   42MOL    C4230464   4.263   5.731   4.582 -0.2010  0.1179  0.2770
   42MOL    C4330465   4.172   5.709   4.463 -0.1993  0.4190  0.5309
   42MOL    C4430466   4.146   5.558   4.437  0.1182 -0.3564  0.0653
   42MOL    C4530467   4.078   5.529   4.301 -0.0156  0.0966  0.5122
   42MOL    C4630468   3.945   5.584   4.275 -0.1188  0.8994 -0.5593
   42MOL    C4730469   3.886   5.538   4.143  0.0380 -0.1055 -0.3325
   42MOL    C4830470   3.957   5.600   4.017  1.0464  0.7932 -0.3052
   42MOL    C4930471   3.916   5.743   3.990  0.1676  0.1203 -0.2083
   42MOL    C5030472   3.991   5.798   3.870  0.0266 -0.1602 -0.2452
   42MOL    C5130473   3.936   5.941   3.831 -0.2733 -0.3513 -0.5610
   42MOL    N5230474   4.015   5.993   3.717  0.4285  0.2271  0.1062
   42MOL    H5330475   4.288   5.925   4.481  2.0867 -0.0523  0.3677
   42MOL    H5430476   4.248   5.937   4.648  0.0994 -3.4739  1.3866
   42MOL    H5530477   4.343   5.657   4.590 -0.5508 -0.2559  0.3188
   42MOL    H5630478   4.221   5.726   4.683 -3.1346 -2.8423 -1.0032
   42MOL    H5730479   4.209   5.755   4.372 -2.4113 -0.3629 -0.7900
   42MOL    H5830480   4.077   5.759   4.480 -0.3407  0.0585  0.8207
   42MOL    H5930481   4.236   5.498   4.428 -1.2933 -2.3962 -0.7767
   42MOL    H6030482   4.091   5.527   4.526  3.7814 -1.5251  2.0314
   42MOL    H6130483   4.069   5.421   4.286  2.5662 -0.4638  2.6512
   42MOL    H6230484   4.136   5.575   4.221 -1.9341 -0.7314 -1.4201
   42MOL    H6330485   3.958   5.692   4.287  2.4160  0.4766  0.8252
   42MOL    H6430486   3.877   5.550   4.353  0.6437 -0.8662 -0.6486
   42MOL    H6530487   3.782   5.567   4.131  0.0231  0.6164  1.4088
   42MOL    H6630488   3.904   5.430   4.138  1.5569  0.0943  0.5790
   42MOL    H6730489   3.924   5.533   3.937 -1.7179  0.7948  0.7484
   42MOL    H6830490   4.065   5.592   4.025  1.1670  1.6051 -1.1542
   42MOL    H6930491   3.925   5.808   4.077 -0.5032  1.9715 -1.4947
   42MOL    H7030492   3.811   5.740   3.962  0.2542  0.4374 -0.5726
   42MOL    H7130493   3.965   5.741   3.781 -0.8821 -0.0974 -0.0267
   42MOL    H7230494   4.099   5.800   3.885 -0.4377 -0.1304  3.5083
   42MOL    H7330495   3.946   6.001   3.921  1.2750 -0.8319 -0.4015
   42MOL    H7430496   3.830   5.940   3.807 -0.0563 -0.6200 -1.5411
   42MOL    H7530497   4.040   5.931   3.641 -2.3074  2.2378 -2.5478
   42MOL    C7630498   4.073   6.117   3.719  0.4695  0.1283 -0.5198
   42MOL    O7730499   4.048   6.197   3.813 -0.1569 -0.1321  0.0432
   42MOL    C7830500   4.168   6.151   3.612 -0.2469  0.0720 -0.0122
   42MOL    C7930501   4.102   6.247   3.511 -0.6013  0.4597  0.2078
   42MOL    C8030502   4.021   6.162   3.415 -0.5850 -0.2413  0.3133
   42MOL    C8130503   3.967   6.228   3.292  0.6527 -0.5807 -0.2799
   42MOL    C8230504   3.900   6.133   3.190 -0.0628 -0.4517  0.0482
   42MOL    C8330505   3.810   6.021   3.256  0.4892 -0.0124 -0.6340
   42MOL    C8430506   3.739   5.937   3.151  0.5938 -0.3825  0.1131
   42MOL    C8530507   3.659   5.820   3.215 -0.2470  0.0633  0.0280
   42MOL    C8630508   3.596   5.734   3.111 -0.2055 -0.3957 -0.2750
   42MOL    C8730509   3.508   5.624   3.171  0.2374  0.1642  0.2034
   42MOL    C8830510   3.379   5.674   3.239 -0.3719 -0.1270 -0.3066
   42MOL    N8930511   3.295   5.559   3.282 -0.4633 -0.6805 -0.6488
   42MOL    H9030512   4.221   6.061   3.579  0.4949  0.7473 -0.6806
   42MOL    H9130513   4.248   6.202   3.666  0.4531  0.2631 -1.2214
   42MOL    H9230514   4.040   6.323   3.556  0.4192  0.7518  1.1496
   42MOL    H9330515   4.170   6.306   3.450  0.1770 -1.1859 -0.5739
   42MOL    H9430516   3.934   6.120   3.466  0.1516  0.3043  2.0542
   42MOL    H9530517   4.073   6.078   3.370  0.7983 -0.7362  2.7780
   42MOL    H9630518   3.895   6.301   3.328 -0.2177 -0.8256 -1.4895
   42MOL    H9730519   4.044   6.288   3.243 -0.4732  0.2773 -1.0250
   42MOL    H9830520   3.975   6.093   3.122 -0.7846  1.5237 -1.9973
   42MOL    H9930521   3.845   6.192   3.116 -1.0898  1.4014  2.2057
   42MOL   H10030522   3.736   6.058   3.326 -0.7254 -4.2921  0.4988
   42MOL   H10130523   3.873   5.955   3.316 -2.4049 -1.1493  1.2547
   42MOL   H10230524   3.803   5.896   3.073  1.4384  0.7243  0.2125
   42MOL   H10330525   3.664   6.001   3.105 -0.5165 -0.5110  1.7050
   42MOL   H10430526   3.579   5.863   3.273 -0.4656 -0.2273 -0.0560
   42MOL   H10530527   3.718   5.756   3.280 -2.1967 -0.1910  1.5588
   42MOL   H10630528   3.682   5.693   3.059 -1.0946 -0.5196 -1.7039
   42MOL   H10730529   3.539   5.797   3.042  2.0686  2.2883  0.2058
   42MOL   H10830530   3.575   5.561   3.229 -0.7277 -1.4954 -0.4259
   42MOL   H10930531   3.473   5.554   3.095  1.5554 -0.2461 -0.0319
   42MOL   H11030532   3.328   5.732   3.162 -1.2969 -1.2490 -0.5580
   42MOL   H11130533   3.388   5.745   3.321 -0.6443 -0.0111 -0.3742
   42MOL   H11230534   3.277   5.486   3.214  1.3570 -0.5251 -1.3326
   42MOL   C11330535   3.250   5.552   3.406  0.0994  0.2666  0.1214
   42MOL   O11430536   3.247   5.653   3.480  0.2432  0.9164  0.5207
   42MOL   C11530537   3.193   5.416   3.449 -0.0672 -0.5861 -0.5876
   42MOL   C11630538   3.271   5.348   3.559  0.1111  0.5170  0.1070
   42MOL   C11730539   3.384   5.258   3.507 -0.1202  0.3584 -0.4878
   42MOL   C11830540   3.439   5.155   3.618 -0.3039  0.0399  0.6098
   42MOL   C11930541   3.575   5.085   3.576  0.2250  0.3031  0.9641
   42MOL   C12030542   3.557   4.991   3.456 -0.5174  0.4712 -0.0495
   42MOL   C12130543   3.498   4.862   3.503 -0.1039 -0.1651 -0.3607
   42MOL   C12230544   3.414   4.799   3.388  0.1828  0.7546 -0.4328
   42MOL   C12330545   3.376   4.656   3.429 -0.1849  0.1277  0.0755
   42MOL   C12430546   3.306   4.571   3.323  0.5017  0.5492  0.4881
   42MOL   C12530547   3.158   4.535   3.365  0.7803 -0.3758  0.3805
   42MOL   N12630548   3.076   4.657   3.355 -0.3459  0.0275 -0.2679
   42MOL   H12730549   3.197   5.355   3.359 -0.7843  1.3565 -1.9725
   42MOL   H12830550   3.086   5.422   3.466 -0.0169  2.7676 -1.0613
   42MOL   H12930551   3.317   5.424   3.623  2.6993 -0.7937 -0.1579
   42MOL   H13030552   3.214   5.279   3.623 -0.1086  1.1844  0.6370
   42MOL   H13130553   3.460   5.321   3.460  1.2499 -0.1443  1.0162
   42MOL   H13230554   3.338   5.194   3.432  1.4343  0.3748 -1.4600
   42MOL   H13330555   3.465   5.216   3.704  2.5989  0.1957 -0.3416
   42MOL   H13430556   3.371   5.074   3.645 -0.5630 -0.4001 -1.2354
   42MOL   H13530557   3.613   5.029   3.662  1.7881  0.5269  0.4377
   42MOL   H13630558   3.651   5.159   3.552 -0.3752  0.2433 -1.1982
   42MOL   H13730559   3.661   4.975   3.428 -0.2541  1.9058  0.0763
   42MOL   H13830560   3.502   5.032   3.371 -3.6211 -0.6372  1.3515
   42MOL   H13930561   3.433   4.880   3.588  0.1300 -0.8547 -0.0334
   42MOL   H14030562   3.582   4.804   3.540  1.0047  1.8052  0.3174
   42MOL   H14130563   3.474   4.783   3.299 -1.9763 -2.0807 -1.4273
   42MOL   H14230564   3.324   4.855   3.362 -1.1943 -1.4625 -0.5587
   42MOL   H14330565   3.310   4.653   3.515  1.6082  1.2651  1.5283
   42MOL   H14430566   3.465   4.599   3.456 -0.5380 -0.3344  0.2679
   42MOL   H14530567   3.360   4.477   3.309 -2.0815 -0.9720  0.3812
   42MOL   H14630568   3.315   4.619   3.226 -0.3483  1.2562  0.7573
   42MOL   H14730569   3.151   4.479   3.458  1.3782 -2.0428 -0.5462
   42MOL   H14830570   3.122   4.464   3.291  0.3939 -0.2778  0.4760
   42MOL   H14930571   3.077   4.724   3.279 -2.3612  2.0352  1.3692
   42MOL   C15030572   2.980   4.677   3.442  0.4584  0.3427 -0.2524
   42MOL   O15130573   2.953   4.599   3.536  0.4665  0.1533 -0.1227
   42MOL   C15230574   2.878   4.787   3.422  0.5994  0.0364 -0.0789
   42MOL   C15330575   2.929   4.929   3.460 -0.7378 -0.5268  0.1483
   42MOL   C15430576   2.823   5.007   3.552 -0.2972  0.2626 -0.3168
   42MOL   C15530577   2.878   5.141   3.592  0.1623 -0.1560 -0.5631
   42MOL   C15630578   2.794   5.214   3.694 -0.0078  0.8504 -0.6109
   42MOL   C15730579   2.843   5.354   3.742  0.6264  0.1255  0.0260
   42MOL   C15830580   2.745   5.414   3.835 -0.0322 -0.4541 -0.4789
   42MOL   C15930581   2.757   5.558   3.880 -0.4626 -0.6307  0.2833
   42MOL   C16030582   2.860   5.586   3.990 -0.4797 -0.1268  0.2396
   42MOL   C16130583   2.891   5.734   3.999  0.4078  0.2719 -0.2316
   42MOL   C16230584   2.978   5.772   4.122  0.5848 -0.2713 -0.1836
   42MOL   N16330585   3.033   5.908   4.113 -0.1182 -0.1996 -0.3952
   42MOL   H16430586   2.795   4.751   3.481  0.7250 -0.9665 -0.4968
   42MOL   H16530587   2.840   4.776   3.320  0.0662 -1.2677  0.2475
   42MOL   H16630588   3.021   4.920   3.517 -0.8253  0.7106  0.4960
   42MOL   H16730589   2.949   5.001   3.381 -2.1081  1.2561  1.3802
   42MOL   H16830590   2.801   4.942   3.636  0.4225 -0.1947 -0.4785
   42MOL   H16930591   2.731   5.028   3.497 -2.3725  0.7774  3.2279
   42MOL   H17030592   2.969   5.124   3.650 -0.4067 -2.1245 -0.2202
   42MOL   H17130593   2.901   5.206   3.508 -2.0309  0.0983 -0.9906
   42MOL   H17230594   2.767   5.148   3.776  1.6734  0.2862 -0.4782
   42MOL   H17330595   2.704   5.237   3.638 -0.5884 -0.3907 -0.1893
   42MOL   H17430596   2.843   5.423   3.658 -0.4273  0.5132  0.3368
   42MOL   H17530597   2.933   5.360   3.804 -0.1280  1.0680  1.0512
   42MOL   H17630598   2.734   5.349   3.922 -1.0121 -1.9721 -1.7014
   42MOL   H17730599   2.649   5.410   3.783 -0.4420 -0.7262  0.2909
   42MOL   H17830600   2.661   5.597   3.914  0.3053  0.8211  0.8291
   42MOL   H17930601   2.784   5.621   3.795  2.5399  0.0291  1.6862
   42MOL   H18030602   2.958   5.548   3.962 -0.9593 -0.0515 -1.6130
   42MOL   H18130603   2.831   5.543   4.085  1.2650  0.8442  1.2480
   42MOL   H18230604   2.804   5.799   4.005 -0.5710 -0.7399 -2.7611
   42MOL   H18330605   2.944   5.756   3.906 -0.2419 -1.0877 -0.9403
   42MOL   H18430606   3.069   5.711   4.118  0.6514 -0.0599 -3.1371
   42MOL   H18530607   2.923   5.748   4.212  1.7021  0.0702  0.6045
   42MOL   H18630608   3.046   5.948   4.021 -0.5881  1.7175  0.3486
   42MOL   C18730609   3.083   5.976   4.218  0.1502  0.8980 -0.9956
   42MOL   O18830610   3.091   5.931   4.333  0.0316 -0.2577 -0.6148
   42MOL   C18930611   3.132   6.114   4.191 -0.4834  0.0090  0.4306
   42MOL   C19030612   3.231   6.161   4.306 -0.1856  0.1952  0.5572
   42MOL   C19130613   3.276   6.309   4.308  0.5508 -0.2090  0.1597
   42MOL   C19230614   3.391   6.355   4.392 -0.5250  0.1863 -0.3253
   42MOL   C19330615   3.376   6.341   4.545  0.7799 -0.2055  0.6720
   42MOL   C19430616   3.506   6.387   4.609  0.2786  0.1817  0.1259
   42MOL   C19530617   3.504   6.385   4.760 -0.2568 -0.1299 -0.6814
   42MOL   C19630618   3.628   6.436   4.820 -0.8120  0.5987  0.2886
   42MOL   C19730619   3.746   6.340   4.816 -0.8168 -0.4184  0.3973
   42MOL   C19830620   3.867   6.428   4.867 -0.5223 -0.3865 -0.0247
   42MOL   C19930621   3.866   6.444   5.021  0.2116 -0.1762 -0.7528
   42MOL   N20030622   3.988   6.507   5.059 -0.1561 -0.7805 -0.1024
   42MOL   H20130623   3.045   6.176   4.210 -0.0892 -0.0820  2.7132
   42MOL   H20230624   3.174   6.114   4.091  0.7629  1.4390  0.9379
   42MOL   H20330625   3.207   6.142   4.410  2.1964 -0.7998  0.9619
   42MOL   H20430626   3.323   6.102   4.301 -0.6973 -0.5497 -0.1841
   42MOL   H20530627   3.184   6.366   4.323 -0.1601 -1.7452  1.7961
   42MOL   H20630628   3.305   6.341   4.208  0.0869  0.1035  0.1224
   42MOL   H20730629   3.477   6.292   4.372 -1.6897 -1.0989 -1.4079
   42MOL   H20830630   3.414   6.459   4.370  2.2242 -0.7312 -2.0417
   42MOL   H20930631   3.346   6.238   4.564  1.7199 -0.7650 -0.7859
   42MOL   H21030632   3.294   6.399   4.585  0.7394 -0.4313  0.9155
   42MOL   H21130633   3.542   6.485   4.578  3.1562 -0.7520  0.3454
   42MOL   H21230634   3.586   6.315   4.587  2.1630  2.1135  0.4276
   42MOL   H21330635   3.488   6.288   4.807  0.3523  0.4388  0.7417
   42MOL   H21430636   3.424   6.453   4.790 -0.1298  0.5598 -1.8800
   42MOL   H21530637   3.608   6.456   4.925 -2.1143  2.3459 -0.2715
   42MOL   H21630638   3.664   6.529   4.776  2.2371  0.1560  1.7057
   42MOL   H21730639   3.775   6.305   4.717  2.3495  2.7563  0.0735
   42MOL   H21830640   3.729   6.252   4.879 -0.1428 -0.9885 -0.2048
   42MOL   H21930641   3.860   6.520   4.810  1.1282 -0.6931 -0.7567
   42MOL   H22030642   3.962   6.388   4.830 -0.9445  0.8951 -2.6195
   42MOL   H22130643   3.850   6.353   5.079  1.9264 -0.1488 -0.2096
   42MOL   H22230644   3.783   6.509   5.048 -0.6326 -0.5456 -2.3637
   42MOL   H22330645   4.015   6.583   4.998  2.3500 -0.9029  0.7947
   42MOL   C22430646   4.074   6.466   5.148 -0.1940  0.1982 -0.1711
   42MOL   O22530647   4.057   6.363   5.218 -0.3896  0.0154 -0.0069
   42MOL   C22630648   4.197   6.557   5.169 -0.2128  0.0925  0.5075
   42MOL   C22730649   4.272   6.541   5.304  0.9081  0.0082 -0.3584
   42MOL   C22830650   4.197   6.585   5.428  0.2797 -0.4552 -0.0939
   42MOL   C22930651   4.274   6.562   5.561 -0.3436 -0.1960  0.2673
   42MOL   C23030652   4.174   6.591   5.675 -0.2300  0.8927 -0.1896
   42MOL   C23130653   4.226   6.548   5.809 -0.1236  0.6349  0.7154
   42MOL   C23230654   4.141   6.599   5.922  0.3440 -0.4876 -0.4600
   42MOL   C23330655   4.144   6.516   6.055  0.3878 -0.3897  0.5579
   42MOL   C23430656   4.033   6.581   6.144 -0.2451 -0.0880  0.1015
   42MOL   C23530657   4.023   6.537   6.291  0.3014 -0.3730 -0.2041
   42MOL   C23630658   3.977   6.397   6.310 -0.2434  0.5460  0.0032
   42MOL   N23730659   3.982   6.345   6.442 -0.0471  0.9375 -0.0638
   42MOL   H23830660   4.171   6.659   5.142 -0.5846  0.0886  0.8595
   42MOL   H23930661   4.266   6.526   5.090  1.2822  2.5143  0.8279
   42MOL   H24030662   4.293   6.435   5.316 -2.7407 -0.4704  2.7279
   42MOL   H24130663   4.376   6.572   5.291  1.2310 -1.3655 -1.1099
   42MOL   H24230664   4.105   6.527   5.438 -0.1323  0.3023  0.5472
   42MOL   H24330665   4.170   6.691   5.424 -2.9698 -1.2344 -0.1506
   42MOL   H24430666   4.306   6.458   5.570  0.2793  0.0695  1.0497
   42MOL   H24530667   4.364   6.622   5.568 -0.1160 -0.2277 -2.0330
   42MOL   H24630668   4.079   6.541   5.657  0.2237  0.4678 -1.4560
   42MOL   H24730669   4.152   6.698   5.666 -1.7828  0.6845  0.8538
   42MOL   H24830670   4.325   6.591   5.824  0.8205 -0.6074 -1.5918
   42MOL   H24930671   4.230   6.439   5.814 -3.6343  0.3194 -1.0160
   42MOL   H25030672   4.039   6.604   5.886 -0.7119 -1.3500  2.2616
   42MOL   H25130673   4.156   6.704   5.949 -0.4330 -0.5266  0.1409
   42MOL   H25230674   4.244   6.508   6.098  1.0151 -1.3588 -1.0506
   42MOL   H25330675   4.113   6.413   6.035 -0.6020  0.5918 -3.2238
   42MOL   H25430676   3.937   6.568   6.094 -0.9859 -2.6167  2.0471
   42MOL   H25530677   4.044   6.689   6.153  0.5324 -0.0705 -1.0045
   42MOL   H25630678   3.949   6.602   6.340  1.9156  2.5492 -1.5001
   42MOL   H25730679   4.116   6.572   6.334 -1.0015  3.2628 -0.1538
   42MOL   H25830680   4.029   6.332   6.239 -0.2958  0.0523  0.4123
   42MOL   H25930681   3.874   6.384   6.278 -0.7997  0.9769  1.5594
   42MOL   H26030682   3.986   6.420   6.509  0.1816 -0.1826  1.1873
   42MOL   C26130683   3.972   6.218   6.483 -0.1736 -0.6267  0.0171
   42MOL   O26230684   3.955   6.116   6.412 -0.3218 -0.3421 -0.1015
   42MOL   C26330685   3.985   6.205   6.636  0.6773  0.1527  0.1627
   42MOL   C26430686   3.963   6.063   6.693  0.0568 -0.4138  0.7209
   42MOL   C26530687   3.823   6.012   6.667  0.0544  0.3661 -0.2421
   42MOL   C26630688   3.762   5.920   6.772  0.5791 -0.4504  0.0467
   42MOL   C26730689   3.614   5.895   6.737 -0.2022  0.5428  0.0285
   42MOL   C26830690   3.513   6.006   6.755  0.0264 -0.7599  0.5034
   42MOL   C26930691   3.364   5.966   6.738 -0.0559 -0.5801 -0.3695
   42MOL   C27030692   3.262   6.086   6.754 -0.1419 -0.0969  0.6156
   42MOL   C27130693   3.250   6.134   6.893  0.0732 -0.2972 -0.6927
   42MOL   C27230694   3.350   6.242   6.943 -0.6476  0.0108 -0.7228
   42MOL   C27330695   3.281   6.334   7.039 -0.1245  0.0277 -0.2390
   42MOL   N27430696   3.227   6.269   7.153  0.5720 -0.0149 -0.6062
   42MOL   H27530697   3.914   6.272   6.683 -1.0633 -0.1081 -2.0024
   42MOL   H27630698   4.086   6.242   6.656  0.9904 -1.1385  1.0321
   42MOL   H27730699   4.040   5.996   6.655 -1.9596 -0.9899 -2.6435
   42MOL   H27830700   3.987   6.076   6.798  0.3100 -0.1888  0.6347
   42MOL   H27930701   3.805   5.967   6.570 -1.8567 -0.5068  0.4979
   42MOL   H28030702   3.758   6.099   6.658  1.7731  2.1006  2.9935
   42MOL   H28130703   3.822   5.829   6.774  0.6749 -0.3928 -0.0964
   42MOL   H28230704   3.765   5.959   6.873  1.0221  0.2571 -0.2326
   42MOL   H28330705   3.584   5.811   6.799 -1.3090 -0.4392 -1.8022
   42MOL   H28430706   3.609   5.855   6.635  1.2472  1.5655 -0.4583
   42MOL   H28530707   3.530   6.097   6.698  0.8246  0.6254  2.8897
   42MOL   H28630708   3.531   6.048   6.853  0.0035 -2.3213  1.1944
   42MOL   H28730709   3.333   5.880   6.797  1.6091 -0.2001  1.1034
   42MOL   H28830710   3.343   5.915   6.644  0.6007  1.0221 -1.4044
   42MOL   H28930711   3.164   6.054   6.720 -0.4158  0.1677  1.1355
   42MOL   H29030712   3.291   6.167   6.686 -1.1652  0.4270  0.7960
   42MOL   H29130713   3.251   6.051   6.964 -1.7707  0.9842  0.8455
   42MOL   H29230714   3.155   6.187   6.891  0.2668  0.1854  1.4097
   42MOL   H29330715   3.388   6.306   6.864 -1.1448  0.3316 -0.7018
   42MOL   H29430716   3.437   6.197   6.992 -2.5146 -2.8423  0.1038
   42MOL   H29530717   3.210   6.394   6.982 -0.4730 -2.3744 -2.4071
   42MOL   H29630718   3.354   6.405   7.080 -0.1197  0.9378 -1.7889
   42MOL   H29730719   3.128   6.284   7.166  0.9951  2.6900 -0.2382
   42MOL   C29830720   3.297   6.201   7.249 -0.3183 -0.1503 -0.3224
   42MOL   O29930721   3.417   6.184   7.246 -0.1600  0.1351 -0.2104
   42MOL   C30030722   3.205   6.147   7.362  0.9704  0.3707  0.1847
   42MOL   C30130723   3.229   5.990   7.381  0.1999 -0.1372 -0.0664
   42MOL   C30230724   3.340   5.956   7.481 -0.2824 -0.7868  0.6692
   42MOL   C30330725   3.320   5.811   7.533 -0.2568  0.7500  0.0088
   42MOL   C30430726   3.429   5.759   7.620  0.3807  0.1282  0.7264
   42MOL   C30530727   3.417   5.616   7.671  0.3068 -0.1176  0.0010
   42MOL   C30630728   3.495   5.600   0.112  0.3913 -0.1133 -0.4771
   42MOL   C30730729   3.506   5.456   0.179 -0.3939 -0.5547 -0.4125
   42MOL   C30830730   3.594   5.362   0.105  0.0861 -0.1932 -0.0082
   42MOL   C30930731   3.589   5.221   0.172  0.4526 -0.2070 -0.3885
   42MOL   C31030732   3.679   5.125   0.107 -0.3231  0.3198 -0.0238
   42MOL   N31130733   3.672   4.993   0.155 -0.4063  0.1953  0.3301
   42MOL   H31230734   3.099   6.161   7.341  0.9658 -0.3127 -0.2459
   42MOL   H31330735   3.226   6.194   7.458 -2.1013  0.8891  0.6487
   42MOL   H31430736   3.135   5.946   7.416  0.3012 -1.3602 -1.2553
   42MOL   H31530737   3.251   5.941   7.286 -0.1995 -0.6062  0.0807
   42MOL   H31630738   3.324   6.032   7.557  0.5886  0.7790 -0.7001
   42MOL   H31730739   3.436   5.960   7.431 -0.5078 -0.3472  0.2709
   42MOL   H31830740   3.224   5.790   7.580 -0.9244 -2.7982 -2.7045
   42MOL   H31930741   3.320   5.751   7.442 -0.9534  2.3722 -1.0839
   42MOL   H32030742   3.427   5.821   0.016  0.0163  0.3616  0.5569
   42MOL   H32130743   3.527   5.773   7.572  0.6754  1.4208  1.6699
   42MOL   H32230744   3.463   5.556   7.592  1.7679  1.4874 -0.3927
   42MOL   H32330745   3.314   5.583   7.679  0.3922 -0.3211  0.2863
   42MOL   H32430746   3.454   5.664   0.189  0.1608 -0.1680 -0.5521
   42MOL   H32530747   3.600   5.631   0.109  0.8977 -1.3926  2.7168
   42MOL   H32630748   3.406   5.415   0.181 -1.2986  1.5083 -1.6708
   42MOL   H32730749   3.537   5.468   0.283 -2.2678  1.6110 -0.0698
   42MOL   H32830750   3.698   5.391   0.089  0.4710 -2.0303 -0.8988
   42MOL   H32930751   3.551   5.355   0.005  1.1964  1.4362 -0.6096
   42MOL   H33030752   3.490   5.175   0.171  0.7400 -0.8187 -1.1931
   42MOL   H33130753   3.608   5.221   0.280 -1.9665  2.2798  0.1045
   42MOL   H33230754   3.782   5.153   0.125  0.0226 -1.0220  0.1225
   42MOL   H33330755   3.677   5.136   7.692  1.3852 -0.7486 -0.1761
   42MOL   H33430756   3.747   4.950   0.207  1.6740  1.9830 -1.1592
   42MOL   C33530757   3.565   4.916   0.129  0.1516  0.4098  0.0248
   42MOL   O33630758   3.474   4.950   0.055  0.2317 -0.2042 -0.0908
   42MOL   C33730759   3.560   4.777   0.194 -0.0208  0.2379  0.8311
   42MOL   C33830760   3.536   4.669   0.089  0.4927  0.1213  0.1695
   42MOL   C33930761   3.665   4.617   0.010 -0.2547  0.5120  0.9959
   42MOL   C34030762   3.751   4.713   7.618  0.0538  0.1158  0.0464
   42MOL   C34130763   3.661   4.770   7.505 -0.3484 -0.1989 -0.1034
   42MOL   C34230764   3.740   4.868   7.407 -0.3342  0.3070 -0.2102
   42MOL   C34330765   3.873   4.806   7.353 -0.2520 -0.4119 -0.3606
   42MOL   C34430766   3.936   4.887   7.246 -0.1542  0.2069  0.2422
   42MOL   C34530767   3.892   4.835   7.107 -0.3010 -0.1813 -0.3575
   42MOL   C34630768   3.984   4.887   6.999 -0.1227 -0.8512 -0.0741
   42MOL   C34730769   3.975   4.818   6.864 -0.0870 -0.2518 -0.6515
   42MOL   N34830770   4.028   4.686   6.884 -0.4637 -0.2004 -0.3771
   42MOL   H34930771   3.478   4.789   0.265 -0.4560  3.3042 -0.1117
   42MOL   H35030772   3.654   4.744   0.240 -0.0953 -2.6560 -0.9599
   42MOL   H35130773   3.487   4.583   0.136  1.6574  0.1419  1.4587
   42MOL   H35230774   3.467   4.705   0.013 -0.6135 -1.6248  0.3107
   42MOL   H35330775   3.632   4.532   7.643 -0.6961  0.4193  1.3651
   42MOL   H35430776   3.729   4.562   0.079 -0.1739  1.8884  2.0182
   42MOL   H35530777   3.786   4.796   7.680  0.0504  0.3373 -0.2446
   42MOL   H35630778   3.837   4.657   7.580 -0.8881 -0.9655 -0.5217
   42MOL   H35730779   3.571   4.812   7.551 -0.9677 -1.6412  0.0096
   42MOL   H35830780   3.624   4.684   7.450 -2.8766  0.6164  0.2365
   42MOL   H35930781   3.774   4.963   7.448 -0.0325 -0.2805  0.9056
   42MOL   H36030782   3.679   4.900   7.322 -2.1846  0.0412  0.9965
   42MOL   H36130783   3.841   4.707   7.319 -0.0742 -0.6283  0.1117
   42MOL   H36230784   3.949   4.801   7.431  0.6717  0.1907 -1.2154
   42MOL   H36330785   4.045   4.878   7.254 -0.1895  0.5859  1.2473
   42MOL   H36430786   3.923   4.994   7.267  0.2226  0.0230  1.4234
   42MOL   H36530787   3.787   4.853   7.083 -0.4284 -0.8692 -0.3190
   42MOL   H36630788   3.906   4.727   7.106  0.7241 -0.0378 -1.1475
   42MOL   H36730789   4.090   4.884   7.025 -0.4070  3.5716  2.0237
   42MOL   H36830790   3.969   4.994   6.990  2.9733 -0.0350  3.3730
   42MOL   H36930791   4.027   4.876   6.787  1.3048 -1.7238 -0.8579
   42MOL   H37030792   3.870   4.820   6.835 -0.2281 -1.8027 -0.2761
   42MOL   H37130793   4.127   4.684   6.900 -0.3161 -0.2602 -1.2715
   42MOL   C37230794   3.961   4.571   6.866 -0.1353 -0.1076 -0.2068
   42MOL   O37330795   3.843   4.563   6.835  0.9971 -0.2828 -0.0537
   42MOL   C37430796   4.051   4.440   6.876 -0.1830  0.0792 -0.1780
   42MOL   C37530797   4.011   4.350   6.993 -0.4175  0.1672 -0.2135
   42MOL   C37630798   4.016   4.413   7.125  0.5781  0.4892 -0.1885
   42MOL   C37730799   3.980   4.332   7.249  0.7811 -0.3417 -1.5447
   42MOL   C37830800   3.987   4.413   7.375  0.5152 -0.8734 -0.4813
   42MOL   C37930801   3.949   4.345   7.505 -0.1466  0.0337 -0.1990
   42MOL   C38030802   4.064   4.243   7.549  0.3112 -0.3850  0.1323
   42MOL   C38130803   4.012   4.144   7.656 -0.3238 -0.7742 -0.4711
   42MOL   C38230804   4.116   4.042   0.014  0.8840  0.0654 -0.1647
   42MOL   C38330805   4.072   3.921   0.104  0.5561  0.8521  0.3976
   42MOL   C38430806   4.179   3.813   0.118  1.1853  0.5668 -1.2494
   42MOL   N38530807   4.136   3.701   0.196 -0.5506 -0.0644  0.3093
   42MOL   H38630808   4.151   4.478   6.895  0.0084 -0.2680 -0.4890
   42MOL   H38730809   4.054   4.382   6.784  1.0332 -0.9883  0.5253
   42MOL   H38830810   3.909   4.314   6.984 -1.4261  1.3872  4.7672
   42MOL   H38930811   4.077   4.264   6.988 -0.5951  0.0194  0.0275
   42MOL   H39030812   3.948   4.498   7.119  0.6242  0.5190 -0.2843
   42MOL   H39130813   4.116   4.454   7.141  0.8495 -0.5116  0.7795
   42MOL   H39230814   3.877   4.298   7.239 -0.2605  2.6001 -1.3891
   42MOL   H39330815   4.047   4.247   7.257 -0.6588 -1.5999 -2.5830
   42MOL   H39430816   3.918   4.497   7.359  1.1440 -0.5436 -1.4951
   42MOL   H39530817   4.084   4.462   7.383 -0.3767  0.9570 -0.5263
   42MOL   H39630818   3.855   4.290   7.504  1.2201 -2.3808  0.4051
   42MOL   H39730819   3.932   4.426   7.576  0.3774 -0.8220  0.9101
   42MOL   H39830820   4.163   4.282   7.569 -0.0878  1.2269 -0.9125
   42MOL   H39930821   4.093   4.173   7.471 -1.6215 -0.0814 -0.9056
   42MOL   H40030822   3.917   4.103   7.620 -1.2905  0.9840  0.0426
   42MOL   H40130823   3.974   4.207   0.043  2.7986 -0.3559  0.7278
   42MOL   H40230824   4.205   4.098   0.046  1.9271 -1.6337 -0.0278
   42MOL   H40330825   4.155   4.000   7.615  2.3535  0.9229  0.0383
   42MOL   H40430826   3.973   3.888   0.072 -0.0836  3.4097 -0.3695
   42MOL   H40530827   4.063   3.951   0.208  1.8676 -0.6322  0.9693
   42MOL   H40630828   4.270   3.847   0.168  1.4024  0.4929 -1.5944
   42MOL   H40730829   4.203   3.786   0.015  0.1052 -2.4719 -0.7469
   42MOL   H40830830   4.038   3.696   0.221 -0.7275 -0.2258 -0.4046
   42MOL   C40930831   4.219   3.604   0.240 -0.6506  0.2171 -0.6925
   42MOL   O41030832   4.336   3.586   0.209 -0.0473  0.1884 -0.6399
   42MOL   C41130833   4.163   3.515   0.348  0.2454  0.7966 -0.4314
   42MOL   C41230834   4.219   3.372   0.347  0.1137 -0.1886 -0.8376
   42MOL   C41330835   4.178   3.292   0.478 -0.0841 -0.0827  0.5707
   42MOL   C41430836   4.206   3.144   0.448  0.3237 -0.6642 -0.1302
   42MOL   C41530837   4.175   3.058   0.565 -0.6188 -0.0378  0.0634
   42MOL   C41630838   4.199   2.911   0.534  0.1959  0.0113  0.1121
   42MOL   C41730839   4.135   2.814   0.627  1.1561  0.6522  0.1720
   42MOL   C41830840   4.166   2.836   0.778  0.0820 -0.0144  0.0640
   42MOL   C41930841   4.089   2.741   0.868 -0.3592  0.2966 -0.7013
   42MOL   C42030842   4.107   2.760   1.022 -0.0982  0.2714  0.1086
   42MOL   C42130843   4.012   2.666   1.105  0.2469  0.0938 -0.1982
   42MOL   N42230844   4.036   2.669   1.246 -0.0309 -0.3348 -0.5536
   42MOL   H42330845   4.054   3.516   0.348  0.1650 -2.1574  1.4688
   42MOL   H42430846   4.188   3.563   0.443 -0.1284  0.8256 -0.3468
   42MOL   H42530847   4.176   3.326   0.258  1.0437 -1.0253 -0.8517
   42MOL   H42630848   4.327   3.368   0.332  0.3150 -0.5971  0.6145
   42MOL   H42730849   4.078   3.314   0.513 -0.6599 -0.5233 -0.7513
   42MOL   H42830850   4.246   3.326   0.556  0.5900  0.0071 -0.0413
   42MOL   H42930851   4.141   3.115   0.365 -2.0645 -2.4082  2.2630
   42MOL   H43030852   4.307   3.132   0.410  0.2465  0.9658 -0.8582
   42MOL   H43130853   4.069   3.078   0.575  0.2832  5.2156  0.1902
   42MOL   H43230854   4.222   3.087   0.659 -0.7315  1.4403 -0.3324
   42MOL   H43330855   4.306   2.896   0.521  0.1734 -0.6112  0.5972
   42MOL   H43430856   4.157   2.897   0.434  3.4997 -0.8306 -1.2314
   42MOL   H43530857   4.163   2.712   0.599 -1.8828  0.0204 -0.6748
   42MOL   H43630858   4.028   2.827   0.611  1.0098 -1.3184 -0.6291
   42MOL   H43730859   4.130   2.935   0.804  0.8212  0.6241 -1.3390
   42MOL   H43830860   4.271   2.819   0.799 -0.4822 -1.7074  1.7476
   42MOL   H43930861   4.103   2.638   0.837 -1.7595 -0.0469 -0.1962
   42MOL   H44030862   3.982   2.749   0.849 -0.5068 -1.7207 -0.8312
   42MOL   H44130863   4.084   2.861   1.056  1.3031 -0.0702  2.2017
   42MOL   H44230864   4.211   2.756   1.055 -0.5541  3.2953  2.1219
   42MOL   H44330865   4.015   2.563   1.071  1.1265 -0.5053  1.6263
   42MOL   H44430866   3.911   2.689   1.074 -0.2702 -1.5865  0.1773
   42MOL   H44530867   4.085   2.589   1.284 -1.7693 -0.6031  1.1503
   42MOL   C44630868   4.012   2.777   1.327  0.1076 -0.7642  0.1777
   42MOL   O44730869   3.990   2.889   1.294  0.0465  0.8179 -0.2127
   42MOL   C44830870   4.019   2.759   1.480  0.1991 -0.1044  0.5433
   42MOL   C44930871   4.107   2.857   1.562 -0.1426  0.4991 -0.0833
   42MOL   C45030872   4.253   2.844   1.524  0.0998  0.7387  0.2473
   42MOL   C45130873   4.320   2.977   1.533 -0.5694 -0.6013 -0.1371
   42MOL   C45230874   4.324   3.052   1.399  0.3991  0.5046 -0.6294
   42MOL   C45330875   4.377   3.194   1.395  0.3599 -0.5116 -0.3449
   42MOL   C45430876   4.285   3.298   1.467 -0.2078  0.9466  0.2489
   42MOL   C45530877   4.359   3.426   1.522 -0.7903 -0.3523 -0.8195
   42MOL   C45630878   4.271   3.535   1.573  0.1116  0.0231 -0.0413
   42MOL   C45730879   4.184   3.602   1.462 -0.5715 -0.3742 -1.0154
   42MOL   C45830880   4.262   3.688   1.360 -0.7577  1.1109 -0.6650
   42MOL   N45930881   4.171   3.771   1.285  1.0210 -0.6005  0.1647
   42MOL   H46030882   4.045   2.655   1.500 -0.6140 -0.2494  0.8432
   42MOL   H46130883   3.918   2.775   1.517  0.0904 -0.0997  0.2372
   42MOL   H46230884   4.070   2.958   1.545 -0.6349  1.0588  3.7764
   42MOL   H46330885   4.101   2.825   1.667  0.0474  2.1532  0.4453
   42MOL   H46430886   4.269   2.805   1.423 -3.4122  1.5546 -0.6895
   42MOL   H46530887   4.298   2.768   1.589  0.0476  1.2717  0.9071
   42MOL   H46630888   4.271   3.035   1.612 -3.3912 -1.6152 -1.0783
   42MOL   H46730889   4.421   2.958   1.569 -0.3850  0.0379 -0.3179
   42MOL   H46830890   4.224   3.055   1.356 -0.4119 -2.0046  0.9745
   42MOL   H46930891   4.385   2.992   1.331  1.9551  1.3242  0.0155
   42MOL   H47030892   4.400   3.225   1.293  1.2470 -3.0766 -0.9614
   42MOL   H47130893   4.478   3.196   1.436 -0.8127  1.8724  2.5335
   42MOL   H47230894   4.236   3.253   1.554  2.5832 -1.4360  0.6582
   42MOL   H47330895   4.207   3.332   1.399  0.9391  0.7082 -1.2155
   42MOL   H47430896   4.431   3.457   1.446  1.1841 -1.0594  0.7165
   42MOL   H47530897   4.416   3.384   1.605 -1.2251  1.9980  0.7394
   42MOL   H47630898   4.336   3.603   1.628 -1.6937  0.7774  1.2191
   42MOL   H47730899   4.191   3.505   1.640 -0.0703 -0.4514 -0.4670
   42MOL   H47830900   4.105   3.663   1.506 -0.5123  0.8347 -2.5503
   42MOL   H47930901   4.128   3.526   1.407 -1.8829 -0.2556  0.1168
   42MOL   H48030902   4.322   3.624   1.294  0.4714  3.4599 -1.8671
   42MOL   H48130903   4.334   3.744   1.419  1.2597 -2.2815  0.2792
   42MOL   H48230904   4.136   3.729   1.200 -0.1866  0.4926  0.1184
   42MOL   C48330905   4.130   3.889   1.327 -0.4379  0.1640 -0.0490
   42MOL   O48430906   4.167   3.940   1.436  0.3962  0.0340  0.1912
   42MOL   C48530907   4.051   3.969   1.232 -0.1638 -0.2463  0.9125
   42MOL   C48630908   4.004   4.098   1.280  0.1215  0.3615  0.3891
   42MOL   C48730909   3.904   4.172   1.187  0.0284 -0.1342  0.1581
   42MOL   C48830910   3.815   4.281   1.256 -0.3032  0.5369 -0.0228
   42MOL   C48930911   3.695   4.309   1.161 -0.9758  0.4216 -0.5609
   42MOL   C49030912   3.639   4.447   1.190 -0.1125  0.5610  0.0417
   42MOL   C49130913   3.529   4.492   1.091  0.1518  0.0047 -0.3634
   42MOL   C49230914   3.394   4.437   1.134 -0.4573  0.1776  0.2430
   42MOL   C49330915   3.275   4.495   1.055 -0.6219 -0.5212 -0.4486
   42MOL   C49430916   3.266   4.453   0.911  0.3095 -0.1889 -0.0081
   42MOL   C49530917   3.116   4.454   0.871 -0.0202 -0.7661 -0.0753
   42MOL   N49630918   3.054   4.334   0.930 -0.1440 -0.2187 -0.9103
   42MOL   H49730919   3.964   3.910   1.202  0.4988  0.8298 -3.3576
   42MOL   H49830920   4.105   3.982   1.138  0.5559 -0.7265  1.2560
   42MOL   H49930921   3.956   4.074   1.375 -0.2071  0.9329  0.3700
   42MOL   H50030922   4.076   4.174   1.308  2.4353 -2.1525  1.4719
   42MOL   H50130923   3.828   4.100   1.156  0.6783  1.3232 -5.3131
   42MOL   H50230924   3.952   4.213   1.098 -0.1325 -2.3816 -0.9992
   42MOL   H50330925   3.777   4.240   1.349 -0.1510  2.4933  0.9372
   42MOL   H50430926   3.875   4.370   1.277  3.2691 -1.7815 -0.0118
   42MOL   H50530927   3.618   4.233   1.177 -0.5935  0.2209  0.3467
   42MOL   H50630928   3.728   4.304   1.057  1.2359  1.4452  0.0615
   42MOL   H50730929   3.720   4.519   1.187  1.3444 -1.0203  0.7465
   42MOL   H50830930   3.614   4.452   1.296 -1.6370 -1.5659 -0.1697
   42MOL   H50930931   3.540   4.466   0.985 -2.5928 -0.1007 -0.6540
   42MOL   H51030932   3.526   4.600   1.078 -2.5144 -0.1370 -1.3022
   42MOL   H51130933   3.373   4.478   1.233 -1.1344 -0.4249  0.3594
   42MOL   H51230934   3.382   4.329   1.134  1.5394 -0.0595 -0.4218
   42MOL   H51330935   3.281   4.604   1.055  1.9207 -0.6325  1.4894
   42MOL   H51430936   3.181   4.469   1.104 -0.0933  0.8907  1.3424
   42MOL   H51530937   3.308   4.353   0.903  1.8385  0.3929  0.6633
   42MOL   H51630938   3.327   4.523   0.854  1.0920 -0.8310  0.0463
   42MOL   H51730939   3.096   4.454   0.764 -2.0957  1.7219  0.2407
   42MOL   H51830940   3.063   4.546   0.897  0.2774 -0.5437 -0.2457
   42MOL   H51930941   3.058   4.319   1.030  2.6985 -2.0107 -1.2379
   42MOL   C52030942   2.991   4.238   0.859  0.3456 -0.4811  0.7675
   42MOL   O52130943   2.967   4.242   0.739 -0.4916  0.0370  0.5916
   42MOL   C52230944   2.949   4.109   0.933 -0.1791  0.2124 -0.4960
   42MOL   C52330945   2.815   4.038   0.890  0.0006  1.0358 -0.1289
   42MOL   C52430946   2.809   3.971   0.753  0.6170  0.4713 -0.6915
   42MOL   C52530947   2.671   3.918   0.700 -0.0499  0.3078  0.3866
   42MOL   C52630948   2.695   3.863   0.561  0.1844  0.4698 -0.0574
   42MOL   C52730949   2.564   3.822   0.495 -0.6141  0.2016  0.4981
   42MOL   C52830950   2.463   3.933   0.483  0.0172 -0.7108  1.2671
   42MOL   C52930951   2.328   3.882   0.428 -0.4505 -0.1369 -0.4476
   42MOL   C53030952   2.211   3.977   0.448 -0.9566 -0.1307  0.0152
   42MOL   C53130953   2.240   4.118   0.391 -0.0628  0.6179  1.1303
   42MOL   C53230954   2.122   4.211   0.437 -0.0153 -0.4418 -0.4372
   42MOL   N53330955   2.162   4.351   0.397 -0.3244 -0.0497  0.7410
   42MOL   H53430956   2.920   4.140   1.033 -0.7412 -0.5726 -0.4071
   42MOL   H53530957   3.036   4.043   0.926 -0.0082  0.5449 -1.5948
   42MOL   H53630958   2.787   3.967   0.968  1.3179  1.8143  1.0749
   42MOL   H53730959   2.745   4.120   0.898  0.2365  1.2628 -0.3750
   42MOL   H53830960   2.873   3.883   0.758  1.8717  1.2484 -2.3469
   42MOL   H53930961   2.859   4.034   0.679  0.3892  1.2999 -0.1471
   42MOL   H54030962   2.632   3.847   0.774 -1.2062  1.3974  0.8434
   42MOL   H54130963   2.600   3.999   0.713 -0.9741 -0.7176  1.9517
   42MOL   H54230964   2.768   3.782   0.550 -0.9760 -0.4998 -0.6525
   42MOL   H54330965   2.744   3.939   0.500  0.7087 -1.6092 -2.3115
   42MOL   H54430966   2.525   3.733   0.544  0.8710 -0.8505 -0.1995
   42MOL   H54530967   2.593   3.793   0.395 -0.7942 -3.1492  1.3717
   42MOL   H54630968   2.503   4.007   0.415 -2.3501 -0.1012  0.4974
   42MOL   H54730969   2.445   3.980   0.580  0.6880  0.7040  0.7075
   42MOL   H54830970   2.315   3.792   0.488  0.5535  1.0163  1.5717
   42MOL   H54930971   2.344   3.855   0.324 -0.6933  0.5751 -0.6719
   42MOL   H55030972   2.192   3.980   0.555  1.9103 -0.4715  0.5670
   42MOL   H55130973   2.122   3.935   0.402  0.3752 -2.5874 -0.4356
   42MOL   H55230974   2.248   4.119   0.283  0.2312  0.7376  1.1540
   42MOL   H55330975   2.331   4.157   0.436  0.8258 -2.2319  1.9178
   42MOL   H55430976   2.111   4.216   0.545 -0.4770  1.0701 -0.5400
   42MOL   H55530977   2.033   4.189   0.377  0.3327 -0.6760 -0.8732
   42MOL   H55630978   2.226   4.361   0.320  1.8661  1.8556  2.7309
   42MOL   C55730979   2.108   4.469   0.436 -0.1374 -0.0647 -0.8346
   42MOL   O55830980   2.007   4.474   0.502 -0.0748 -0.2569 -0.1421
   42MOL   C55930981   2.181   4.593   0.381  0.1509 -0.1525 -0.6236
   42MOL   C56030982   2.155   4.729   0.447  0.3413  0.4855 -0.4870
   42MOL   C56130983   2.236   4.771   0.579  0.5617  0.2014  0.3030
   42MOL   C56230984   2.386   4.798   0.548 -0.3657  0.3572 -0.2451
   42MOL   C56330985   2.456   4.880   0.661  0.0800 -0.0655  0.8359
   42MOL   C56430986   2.424   5.036   0.657  0.0199 -0.2460 -0.0762
   42MOL   C56530987   2.494   5.099   0.773 -0.3785 -0.3550 -0.2280
   42MOL   C56630988   2.471   5.256   0.792  0.0795 -0.1840 -0.5534
   42MOL   C56730989   2.519   5.294   0.933 -0.0961 -0.6413  0.5060
   42MOL   C56830990   2.509   5.449   0.949 -0.0363  1.2861 -0.5830
   42MOL   C56930991   2.582   5.496   1.077 -0.2424  0.2169  0.2130
   42MOL   N57030992   2.728   5.476   1.058  0.7774 -0.3576  0.1224
   42MOL   H57130993   2.145   4.594   0.278  1.2519 -0.1289 -1.0142
   42MOL   H57230994   2.289   4.581   0.382  0.1029 -0.6752 -1.2995
   42MOL   H57330995   2.179   4.797   0.365  1.7506  1.1571  0.4582
   42MOL   H57430996   2.047   4.742   0.451 -0.0201 -2.1030 -1.3193
   42MOL   H57530997   2.237   4.698   0.660 -0.1274 -2.6159 -2.1043
   42MOL   H57630998   2.198   4.858   0.632 -0.6651  0.3716 -0.8090
   42MOL   H57730999   2.435   4.700   0.544 -0.5583  0.2196  0.6762
   42MOL   H57831000   2.403   4.842   0.450 -0.2773  0.0581 -0.3644
   42MOL   H57931001   2.562   4.868   0.639  0.4795  0.1398  2.5686
   42MOL   H58031002   2.446   4.835   0.760  1.1176  0.4157  1.1719
   42MOL   H58131003   2.318   5.060   0.667  0.0972  0.5901 -1.1348
   42MOL   H58231004   2.454   5.084   0.564  0.6026 -0.8667 -0.2137
   42MOL   H58331005   2.599   5.080   0.754  0.0746  1.3455  0.4791
   42MOL   H58431006   2.465   5.036   0.858  1.2581 -0.5612  0.1861
   42MOL   H58531007   2.364   5.278   0.788 -0.1701 -1.4290 -0.9020
   42MOL   H58631008   2.528   5.309   0.716  3.0302  0.9412  2.3357
   42MOL   H58731009   2.620   5.256   0.949 -0.4438 -1.0877  1.6460
   42MOL   H58831010   2.453   5.243   1.002 -1.4104 -0.1083 -0.3384
   42MOL   H58931011   2.409   5.493   0.950 -0.4584  0.3777 -1.2803
   42MOL   H59031012   2.566   5.487   0.864  1.8977  1.4944  0.7805
   42MOL   H59131013   2.537   5.446   1.163  3.0467 -1.3437  1.1089
   42MOL   H59231014   2.561   5.602   1.091 -0.4329  0.9038 -4.3698
   42MOL   H59331015   2.765   5.516   0.972 -2.7642  0.9956 -0.8348
   42MOL   C59431016   2.810   5.392   1.134 -0.2602  0.1325  0.3974
   42MOL   O59531017   2.782   5.334   1.238  0.1386  0.5660  0.3943
   42MOL   C59631018   2.950   5.381   1.090  0.5157 -0.4318 -0.2739
   42MOL   C59731019   3.059   5.393   1.198 -0.4537  0.1152 -0.1741
   42MOL   C59831020   3.198   5.387   1.141 -0.2555  0.0783  0.3145
   42MOL   C59931021   3.295   5.409   1.261 -0.0941  0.3819  0.5597
   42MOL   C60031022   3.437   5.361   1.238 -0.3934  0.0693  0.6005
   42MOL   C60131023   3.527   5.384   1.354  0.0536  0.2506  0.5185
   42MOL   C60231024   3.560   5.527   1.401 -0.0090 -0.3249  0.4464
   42MOL   C60331025   3.639   5.550   1.526 -0.9316 -0.4372 -0.2494
   42MOL   C60431026   3.696   5.689   1.539 -0.0092  0.0045  0.3969
   42MOL   C60531027   3.598   5.802   1.570  0.0703 -0.0535  0.8300
   42MOL   C60631028   3.662   5.949   1.591  0.7253 -0.2855  0.2068
   42MOL   N60731029   3.564   6.030   1.668  0.0074 -0.4261 -0.3735
   42MOL   H60831030   2.970   5.452   1.010  0.3371 -1.2233 -1.0315
   42MOL   H60931031   2.968   5.282   1.047 -2.8583 -1.5472  0.7738
   42MOL   H61031032   3.048   5.489   1.249 -4.6327 -0.0932 -0.5389
   42MOL   H61131033   3.047   5.329   1.285  0.1861  1.6901  1.1088
   42MOL   H61231034   3.191   5.469   1.069  1.2716 -0.7186 -0.7821
   42MOL   H61331035   3.219   5.307   1.070  0.3594  1.0378 -0.6103
   42MOL   H61431036   3.308   5.513   1.287  0.0419  0.0486  1.8358
   42MOL   H61531037   3.259   5.354   1.348 -0.4322 -1.9268 -0.9659
   42MOL   H61631038   3.489   5.390   1.146  0.8549 -0.8690  1.0093
   42MOL   H61731039   3.437   5.256   1.209 -0.5608  0.2031  0.0938
   42MOL   H61831040   3.623   5.337   1.332 -0.3811  1.0000 -3.2527
   42MOL   H61931041   3.482   5.341   1.443 -2.5596  1.8128 -0.0129
   42MOL   H62031042   3.461   5.569   1.420 -0.3080 -0.9929  0.4097
   42MOL   H62131043   3.608   5.577   1.317  2.2064  3.0803  3.6207
   42MOL   H62231044   3.730   5.490   1.519 -0.2116  0.6915 -0.7150
   42MOL   H62331045   3.575   5.515   1.607  0.1438 -0.1007  0.7565
   42MOL   H62431046   3.751   5.715   1.449 -1.0862 -2.6315 -1.0929
   42MOL   H62531047   3.778   5.682   1.611 -1.0099  0.5417  1.6076
   42MOL   H62631048   3.548   5.774   1.662 -0.0555 -0.8664  0.5208
   42MOL   H62731049   3.527   5.800   1.487  1.7218 -0.3667 -0.6134
   42MOL   H62831050   3.688   6.002   1.500 -0.1673  1.0510  0.7119
   42MOL   H62931051   3.750   5.951   1.655 -0.7973 -1.1568  2.4388
   42MOL   H63031052   3.480   5.980   1.694  0.0599 -0.0088  0.6497
   42MOL   C63131053   3.582   6.160   1.696 -0.2126 -0.0292  0.0429
   42MOL   O63231054   3.676   6.225   1.651  0.0394 -0.4271  0.4759
   42MOL   C63331055   3.475   6.220   1.785  0.0073 -0.0296  0.5189
   42MOL   C63431056   3.486   6.372   1.819 -0.0294 -0.9401  0.3244
   42MOL   C63531057   3.404   6.422   1.941  0.5452  0.1377  0.2324
   42MOL   C63631058   3.450   6.360   2.075  0.1279 -0.4128 -0.3700
   42MOL   C63731059   3.382   6.428   2.196 -0.2583  0.0342  0.4109
   42MOL   C63831060   3.436   6.376   2.327  0.9200 -0.1498 -0.0499
   42MOL   C63931061   3.366   6.442   2.450 -0.3108  0.2447 -0.2496
   42MOL   C64031062   3.431   6.371   2.577  0.3983  0.3703  0.3401
   42MOL   C64131063   3.372   6.413   2.713  0.3675 -0.4896  0.5941
   42MOL   C64231064   3.442   6.369   2.840 -0.0033 -0.1492 -0.1647
   42MOL   C64331065   3.447   6.214   2.863  0.0512  0.1686 -0.0752
   42MOL   N64431066   3.563   6.160   2.792 -0.2769  0.2649  0.2538
   42MOL   H64531067   3.464   6.164   1.877 -0.8755  1.0884  1.1074
   42MOL   H64631068   3.379   6.202   1.735 -0.0789  0.6972  0.4114
   42MOL   H64731069   3.591   6.388   1.843 -0.0821 -0.7134  0.4093
   42MOL   H64831070   3.463   6.434   1.732 -2.6078 -1.6859  0.4243
   42MOL   H64931071   3.296   6.411   1.926  0.3268  4.0524 -1.8189
   42MOL   H65031072   3.424   6.529   1.946 -3.5815  0.9701  1.0109
   42MOL   H65131073   3.413   6.257   2.074  0.8683 -0.6845  0.2330
   42MOL   H65231074   3.558   6.359   2.087  0.1479  3.5850  0.5173
   42MOL   H65331075   3.273   6.433   2.192 -0.2241  2.6724  1.4047
   42MOL   H65431076   3.421   6.530   2.193 -0.8146  0.3644  3.1797
   42MOL   H65531077   3.541   6.404   2.330  0.3864  1.8475  0.4658
   42MOL   H65631078   3.424   6.268   2.334 -1.0545  0.0411 -0.1447
   42MOL   H65731079   3.260   6.421   2.457 -0.8541  3.1113  0.6350
   42MOL   H65831080   3.377   6.550   2.449  1.4554  0.0990  0.2784
   42MOL   H65931081   3.538   6.386   2.578  0.4536  0.0199 -0.2583
   42MOL   H66031082   3.429   6.265   2.553 -1.1465  1.0390 -2.7462
   42MOL   H66131083   3.266   6.388   2.712  0.0517  0.8367 -1.2391
   42MOL   H66231084   3.375   6.521   2.704 -0.0360 -0.4384  1.0597
   42MOL   H66331085   3.392   6.423   2.921 -0.6493 -0.8125 -0.1190
   42MOL   H66431086   3.544   6.403   2.856  0.7083 -1.8854 -0.8785
   42MOL   H66531087   3.349   6.166   2.857  0.0118  0.0007  1.5412
   42MOL   H66631088   3.479   6.213   2.968 -0.8823  1.0401  0.2271
   42MOL   H66731089   3.639   6.226   2.782  1.5446 -1.8036  0.1250
   42MOL   C66831090   3.590   6.029   2.771 -0.0031  0.0281  0.1823
   42MOL   O66931091   3.518   5.933   2.806 -0.1046 -1.0536  0.0133
   42MOL   C67031092   3.724   5.993   2.706 -0.4544 -0.1741 -0.5493
   42MOL   C67131093   3.719   6.025   2.559 -0.3782 -0.2449  0.9853
   42MOL   C67231094   3.646   5.912   2.480  0.2459 -0.0752  0.7346
   42MOL   C67331095   3.651   5.942   2.325  0.6056 -0.1016  0.0977
   42MOL   C67431096   3.594   5.842   2.223 -0.1536  0.1131 -0.7056
   42MOL   C67531097   3.627   5.896   2.082  0.1843  0.5581  0.1412
   42MOL   C67631098   3.583   5.802   1.965  0.6789  0.1652 -0.2194
   42MOL   C67731099   3.687   5.692   1.929  0.9196  0.4947 -0.8299
   42MOL   C67831100   3.829   5.740   1.903 -0.7942  0.3009  0.6061
   42MOL   C67931101   3.934   5.629   1.866 -0.1145  0.5404 -0.0084
   42MOL   C68031102   3.972   5.541   1.989 -0.5588 -0.0364 -0.0801
   42MOL   N68131103   4.063   5.432   1.942  0.2199  0.2345 -0.0467
   42MOL   H68231104   3.753   5.891   2.729 -0.2067  0.0789  0.2667
   42MOL   H68331105   3.806   6.051   2.748 -0.7128  0.6849 -1.2218
   42MOL   H68431106   3.672   6.122   2.543  1.0088  0.0694 -1.5316
   42MOL   H68531107   3.823   6.025   2.525 -0.4894 -0.8333  0.6521
   42MOL   H68631108   3.540   5.914   2.506  0.1589 -1.0195  0.4758
   42MOL   H68731109   3.693   5.816   2.502 -2.0736 -1.1709  1.0659
   42MOL   H68831110   3.605   6.039   2.309  0.0074 -0.0637  1.9546
   42MOL   H68931111   3.757   5.953   2.299  0.6396 -0.1201  0.2305
   42MOL   H69031112   3.486   5.828   2.231 -0.0583 -0.4819 -0.4294
   42MOL   H69131113   3.638   5.744   2.237 -1.0812 -0.6864 -3.0305
   42MOL   H69231114   3.730   5.930   2.072  0.3136  0.1289 -0.0021
   42MOL   H69331115   3.556   5.978   2.079  0.6741  0.9998  0.5971
   42MOL   H69431116   3.569   5.869   1.880 -1.4374  0.1043  0.0562
   42MOL   H69531117   3.480   5.766   1.974  0.5184  0.6571 -0.0656
   42MOL   H69631118   3.654   5.635   1.842  0.1456  0.7712 -0.7254
   42MOL   H69731119   3.712   5.628   2.013  1.4312 -1.0456 -2.1268
   42MOL   H69831120   3.869   5.780   1.996 -4.5483  2.8237  1.2401
   42MOL   H69931121   3.820   5.830   1.841 -1.5792  1.1947  2.0018
   42MOL   H70031122   4.023   5.685   1.838  2.1393 -0.9731  3.7361
   42MOL   H70131123   3.893   5.567   1.786  0.9176 -0.2592  0.0725
   42MOL   H70231124   3.888   5.505   2.048 -1.2923  0.5875 -0.7412
   42MOL   H70331125   4.021   5.600   2.067  0.8572 -2.6442  1.0794
   42MOL   H70431126   4.130   5.457   1.871 -0.1513  0.8332 -0.1872
   42MOL   C70531127   4.065   5.308   1.989 -0.0971 -0.2428  0.0377
   42MOL   O70631128   3.994   5.284   2.095 -0.0614  0.6358 -0.1209
   42MOL   C70731129   4.136   5.193   1.916 -0.0592 -0.2402 -0.2268
   42MOL   C70831130   4.066   5.057   1.907  0.3421  0.3956 -0.2435
   42MOL   C70931131   4.104   4.968   2.030 -0.2686 -0.6108 -0.1450
   42MOL   C71031132   4.029   4.837   2.029  0.1505 -0.1901 -0.0218
   42MOL   C71131133   3.894   4.858   2.103 -0.7596 -0.0087 -0.1517
   42MOL   C71231134   3.782   4.763   2.046  0.2757  0.3741 -0.0862
   42MOL   C71331135   3.647   4.791   2.098  0.1452 -0.6296  0.7983
   42MOL   C71431136   3.529   4.712   2.038 -0.5057 -0.8594  1.4259
   42MOL   C71531137   3.539   4.563   2.072  0.2417  0.3950  0.7007
   42MOL   C71631138   3.419   4.484   2.029  0.2406  0.0830 -0.4818
   42MOL   C71731139   3.416   4.333   2.074  0.0644 -0.5095  0.0382
   42MOL   N71831140   3.282   4.290   2.047 -0.3320 -0.2396  0.4493
   42MOL   H71931141   4.236   5.186   1.958  0.0133 -1.0796 -0.5386
   42MOL   H72031142   4.144   5.232   1.815 -0.2680 -1.4511 -0.7219
   42MOL   H72131143   3.958   5.071   1.899  0.0488 -1.4832  0.2580
   42MOL   H72231144   4.095   5.000   1.819  2.4949 -2.1434  2.0108
   42MOL   H72331145   4.081   5.013   2.127 -0.5913 -0.3499 -0.3410
   42MOL   H72431146   4.206   4.930   2.021 -0.6851 -1.2966 -2.2799
   42MOL   H72531147   4.016   4.806   1.925  0.3203  0.5929 -0.2806
   42MOL   H72631148   4.083   4.751   2.069 -0.8064 -0.0180  1.6808
   42MOL   H72731149   3.855   4.959   2.091  0.0918  0.1849 -1.3060
   42MOL   H72831150   3.918   4.838   2.207 -0.2978 -0.7658 -0.3994
   42MOL   H72931151   3.801   4.657   2.063 -0.0476  0.0241 -1.8601
   42MOL   H73031152   3.782   4.769   1.937  0.7204  0.2454 -0.0953
   42MOL   H73131153   3.634   4.897   2.077 -3.1060 -1.2945 -0.8287
   42MOL   H73231154   3.661   4.771   2.205  1.8005  1.4971  1.0093
   42MOL   H73331155   3.516   4.741   1.934 -2.7656 -3.4198  0.9507
   42MOL   H73431156   3.433   4.742   2.079 -1.1408 -3.3092  1.8329
   42MOL   H73531157   3.558   4.548   2.179 -0.4624  0.8016  0.8829
   42MOL   H73631158   3.625   4.516   2.023 -0.3716  0.5239 -0.5134
   42MOL   H73731159   3.424   4.488   1.920  0.7685 -0.6206 -0.4921
   42MOL   H73831160   3.327   4.537   2.055  0.1529 -0.4468  0.3264
   42MOL   H73931161   3.430   4.332   2.182 -1.8607 -0.1024  0.2936
   42MOL   H74031162   3.497   4.277   2.026 -0.7015 -0.6922 -1.0478
   42MOL   H74131163   3.256   4.209   2.102 -2.5696 -0.1991 -0.5004
   42MOL   H74231164   3.221   4.368   2.066  2.1456  1.1146  3.3197
   43MOL     C131165   0.582   3.234   4.866  0.2212  0.3817  0.3864
   43MOL     O231166   0.522   3.332   4.915 -0.1311  0.1080 -0.1760
   43MOL     C331167   0.596   3.227   4.711  0.1490 -0.3539  0.0282
   43MOL     C431168   0.518   3.117   4.643 -0.3411 -0.1638 -1.0644
   43MOL     C531169   0.557   3.098   4.501 -0.3812 -0.1932 -0.6189
   43MOL     C631170   0.678   3.008   4.461 -0.4152  0.4952  0.3102
   43MOL     C731171   0.809   3.023   4.542  0.2211  0.2797  0.0087
   43MOL     C831172   0.911   2.926   4.489  0.6599 -0.6339 -0.0485
   43MOL     C931173   1.050   2.931   4.559 -0.2689 -0.5278  0.2113
   43MOL    C1031174   1.158   2.827   4.516  0.4429  0.0948 -0.2591
   43MOL    C1131175   1.304   2.867   4.537  0.7440 -0.1106  1.0475
   43MOL    C1231176   1.339   2.893   4.685  0.0313 -0.4805  0.0258
   43MOL    C1331177   1.316   3.032   4.738  0.2474 -0.1050  0.0881
   43MOL    N1431178   1.353   3.048   4.877 -0.2989 -0.3933 -0.2013
   43MOL    H1531179   0.698   3.223   4.673 -0.5096  0.8642 -1.9253
   43MOL    H1631180   0.573   3.325   4.671 -0.8959 -0.6205 -0.0487
   43MOL    H1731181   0.543   3.024   4.692  0.0540 -0.2362 -1.4047
   43MOL    H1831182   0.412   3.140   4.655 -0.2433 -0.5932  0.8137
   43MOL    H1931183   0.569   3.202   4.470  1.9785  0.3322  1.7902
   43MOL    H2031184   0.469   3.058   4.452 -0.3847 -1.1323  0.1412
   43MOL    H2131185   0.647   2.904   4.466 -2.5917  1.2504  3.7900
   43MOL    H2231186   0.713   3.035   4.361 -0.0439 -3.2629 -0.6366
   43MOL    H2331187   0.788   2.992   4.645  0.8859  1.3738  0.4796
   43MOL    H2431188   0.829   3.129   4.534 -1.9321  0.5906 -1.6489
   43MOL    H2531189   0.937   2.951   4.385  0.3750  1.2742  0.3180
   43MOL    H2631190   0.881   2.821   4.488 -1.7240  0.0195  0.6431
   43MOL    H2731191   1.036   2.924   4.667  2.3622 -1.6909  0.5287
   43MOL    H2831192   1.088   3.031   4.538  1.2318 -1.5416 -2.1009
   43MOL    H2931193   1.145   2.812   4.409  0.8041  2.2917 -0.6290
   43MOL    H3031194   1.144   2.731   4.565  2.0985 -0.7307 -1.3790
   43MOL    H3131195   1.331   2.952   4.474 -0.5227 -1.0103 -0.7586
   43MOL    H3231196   1.365   2.781   4.508 -0.1303 -0.2116 -0.5685
   43MOL    H3331197   1.442   2.874   4.712 -0.4932 -0.8056  1.8877
   43MOL    H3431198   1.283   2.814   4.737  0.6177  0.4627  2.1529
   43MOL    H3531199   1.218   3.076   4.720  0.1996 -0.0588  0.4505
   43MOL    H3631200   1.387   3.097   4.687 -2.0275  0.8231 -2.0111
   43MOL    H3731201   1.401   2.968   4.917  1.7692 -0.1277 -2.0226
   43MOL    H3831202   0.642   3.162   4.923 -1.2532 -1.4563 -0.3250
   43MOL    C3931203   1.323   3.157   4.953 -0.0402 -0.0647  0.5588
   43MOL    O4031204   1.243   3.243   4.916  0.5950  0.3897 -0.4814
   43MOL    C4131205   1.388   3.160   5.092  0.2324  0.1117 -0.3052
   43MOL    C4231206   1.462   3.286   5.124  0.3395  0.3019  0.8692
   43MOL    C4331207   1.601   3.306   5.059 -0.6849 -0.8966  0.3223
   43MOL    C4431208   1.672   3.428   5.123  0.2944 -0.5962 -0.1696
   43MOL    C4531209   1.806   3.476   5.052  0.2499 -0.2992 -0.6295
   43MOL    C4631210   1.915   3.362   5.042  0.1524  0.2376 -0.2635
   43MOL    C4731211   1.963   3.288   5.166 -0.5475  0.0920  0.0333
   43MOL    C4831212   2.063   3.179   5.133  0.1608  0.0007 -0.4226
   43MOL    C4931213   2.088   3.088   5.251  0.1669  0.1249 -0.9469
   43MOL    C5031214   2.191   2.976   5.222 -0.5209  0.7755  0.0886
   43MOL    C5131215   2.225   2.896   5.355 -0.2545 -0.1911 -0.1867
   43MOL    N5231216   2.305   2.982   5.442  0.5124  0.4185  0.6975
   43MOL    H5331217   1.463   3.081   5.100  0.9488  0.8751  0.7469
   43MOL    H5431218   1.315   3.142   5.171  0.3965 -1.3233 -0.4636
   43MOL    H5531219   1.410   3.375   5.091  0.2297 -0.4851 -1.1180
   43MOL    H5631220   1.471   3.292   5.233  2.1848  1.4642  0.6780
   43MOL    H5731221   1.596   3.309   4.950 -0.3735 -1.9135  0.2780
   43MOL    H5831222   1.657   3.214   5.072 -1.6048 -1.5473 -0.2179
   43MOL    H5931223   1.599   3.509   5.122 -0.5522 -1.2445  3.1656
   43MOL    H6031224   1.687   3.403   5.228 -2.6600 -2.5255 -0.1253
   43MOL    H6131225   1.856   3.566   5.089  0.7767 -1.4408  1.5440
   43MOL    H6231226   1.780   3.500   4.949  1.8227  1.0722 -0.7289
   43MOL    H6331227   1.998   3.419   5.000  1.1407 -0.9894 -0.0024
   43MOL    H6431228   1.887   3.287   4.967 -0.0965  0.9019 -0.8434
   43MOL    H6531229   1.877   3.242   5.215 -1.1954  3.3390  2.1647
   43MOL    H6631230   1.991   3.360   5.244  1.1998 -0.6860  0.1462
   43MOL    H6731231   2.155   3.233   5.112 -0.7267  1.2899 -1.0496
   43MOL    H6831232   2.032   3.133   5.039 -0.3723  0.5487 -0.5235
   43MOL    H6931233   1.997   3.044   5.293 -0.0937  1.7228  0.2100
   43MOL    H7031234   2.126   3.156   5.328 -0.0344  0.8259 -1.4650
   43MOL    H7131235   2.274   3.024   5.170  0.6836 -0.0672  1.2051
   43MOL    H7231236   2.154   2.900   5.153 -2.1735  0.7715  0.9559
   43MOL    H7331237   2.280   2.804   5.335  1.9542  1.3691 -1.4441
   43MOL    H7431238   2.132   2.856   5.397 -0.4824 -0.1732 -0.6634
   43MOL    H7531239   2.404   2.998   5.428  0.6396 -1.1400 -0.2149
   43MOL    C7631240   2.252   3.045   5.545  0.7383 -0.5960 -0.2325
   43MOL    O7731241   2.135   3.036   5.585  0.2105  0.0111  0.2951
   43MOL    C7831242   2.353   3.132   5.622 -0.4594  0.1590  0.4316
   43MOL    C7931243   2.367   3.273   5.581 -0.3666 -0.4376 -0.0497
   43MOL    C8031244   2.243   3.365   5.594 -0.2563 -0.0220 -0.5399
   43MOL    C8131245   2.273   3.513   5.560 -0.8840  0.1073  0.5107
   43MOL    C8231246   2.149   3.608   5.585 -0.5375 -0.0378 -0.9210
   43MOL    C8331247   2.036   3.582   5.480  0.1638  0.0443 -0.0462
   43MOL    C8431248   2.044   3.691   5.372 -0.8481 -0.4391  0.7635
   43MOL    C8531249   2.003   3.830   5.415 -0.1661 -0.6987 -0.2384
   43MOL    C8631250   1.965   3.922   5.298  0.0151  0.8548  0.3417
   43MOL    C8731251   1.915   4.053   5.351 -0.1581  0.0589  0.0929
   43MOL    C8831252   1.883   4.163   5.242  0.0919 -0.1933  0.1156
   43MOL    N8931253   2.004   4.202   5.169  0.5831  0.4425  0.0173
   43MOL    H9031254   2.449   3.080   5.623 -1.3306 -1.5122 -1.3867
   43MOL    H9131255   2.328   3.142   5.728 -3.3940  0.9155 -0.2922
   43MOL    H9231256   2.456   3.314   5.630  0.7867 -0.3613 -2.1621
   43MOL    H9331257   2.393   3.263   5.476 -1.3845  3.8494 -0.7910
   43MOL    H9431258   2.204   3.350   5.695  2.2351  0.3687  0.5052
   43MOL    H9531259   2.177   3.320   5.520 -2.1188  1.8608 -0.0914
   43MOL    H9631260   2.354   3.545   5.625 -1.9963  0.8422  1.5427
   43MOL    H9731261   2.316   3.519   5.460  0.5535  2.0777  1.2263
   43MOL    H9831262   2.184   3.710   5.567  1.3303  0.0268  2.5209
   43MOL    H9931263   2.099   3.604   5.682 -0.5228 -3.3045 -1.0107
   43MOL   H10031264   1.937   3.586   5.526  1.5429 -0.6457  3.0887
   43MOL   H10131265   2.040   3.483   5.434 -1.0414 -0.1129  0.1700
   43MOL   H10231266   1.972   3.673   5.293 -1.9697 -0.4498  1.7740
   43MOL   H10331267   2.145   3.688   5.330 -0.8836 -0.4552  0.6808
   43MOL   H10431268   2.081   3.876   5.476  0.0455  1.0712 -1.8027
   43MOL   H10531269   1.919   3.821   5.484  1.4521  3.1097  2.4134
   43MOL   H10631270   1.890   3.880   5.230 -0.7021  1.6292  0.6446
   43MOL   H10731271   2.054   3.937   5.236 -1.0625  0.1739 -1.4209
   43MOL   H10831272   1.976   4.105   5.425  2.1397 -1.7971 -0.4182
   43MOL   H10931273   1.823   4.030   5.405 -0.6407  1.8555  0.0535
   43MOL   H11031274   1.832   4.249   5.285  1.2000  0.9747 -0.8817
   43MOL   H11131275   1.814   4.124   5.167 -1.6803  0.5647  1.2945
   43MOL   H11231276   2.046   4.133   5.109 -1.5624 -1.2512  0.3820
   43MOL   C11331277   2.044   4.329   5.165 -0.5264  0.2266  0.4259
   43MOL   O11431278   2.002   4.418   5.238 -0.2763  0.0891 -0.1585
   43MOL   C11531279   2.148   4.356   5.058  0.2217  0.2772  0.1556
   43MOL   C11631280   2.231   4.485   5.086  0.0871  0.5238  0.9244
   43MOL   C11731281   2.327   4.521   4.969 -0.5560 -0.5959 -0.2077
   43MOL   C11831282   2.382   4.666   4.973  0.2845 -0.4441  0.3016
   43MOL   C11931283   2.501   4.691   4.883  0.2189 -0.1732  0.2087
   43MOL   C12031284   2.472   4.654   4.738  0.3097  0.7113  0.2531
   43MOL   C12131285   2.575   4.692   4.633  0.1230  0.0475  0.2514
   43MOL   C12231286   2.507   4.703   4.492  0.0077  0.2601  0.2291
   43MOL   C12331287   2.483   4.574   4.429  0.2896  0.7934  0.1717
   43MOL   C12431288   2.426   4.586   4.287 -0.0110 -0.7876 -0.5401
   43MOL   C12531289   2.417   4.451   4.212 -0.1615  0.2240  0.1619
   43MOL   N12631290   2.386   4.486   4.069  0.0534  0.7454  0.0521
   43MOL   H12731291   2.101   4.376   4.961  1.1414  2.3560  0.1194
   43MOL   H12831292   2.205   4.263   5.054 -0.6960 -0.2803 -0.3884
   43MOL   H12931293   2.153   4.560   5.100 -0.3194 -0.0867  1.9863
   43MOL   H13031294   2.282   4.485   5.182 -2.2784 -2.6010  2.2807
   43MOL   H13131295   2.261   4.524   4.882 -2.2601  2.5166  1.1253
   43MOL   H13231296   2.397   4.438   4.959 -0.4483 -0.3485 -1.5613
   43MOL   H13331297   2.299   4.736   4.966  0.6734  0.0498  0.5461
   43MOL   H13431298   2.421   4.662   5.074  0.4533 -3.7880  0.1598
   43MOL   H13531299   2.594   4.640   4.906  0.6846 -0.0240 -1.2857
   43MOL   H13631300   2.529   4.793   4.906 -0.9545 -0.2600  2.1459
   43MOL   H13731301   2.389   4.718   4.709  0.0757  0.2302 -0.1692
   43MOL   H13831302   2.451   4.548   4.725  1.5491  0.4204  0.5731
   43MOL   H13931303   2.655   4.619   4.635 -0.9436 -1.1186  0.9976
   43MOL   H14031304   2.634   4.782   4.651  0.0010  0.9656 -3.6126
   43MOL   H14131305   2.575   4.751   4.423  1.7447 -4.7346 -1.8066
   43MOL   H14231306   2.422   4.771   4.496  0.6196  1.1261 -1.2743
   43MOL   H14331307   2.404   4.518   4.478 -2.0029  1.7007 -2.3474
   43MOL   H14431308   2.572   4.512   4.438 -0.5913 -0.5761 -0.3964
   43MOL   H14531309   2.489   4.661   4.240  0.6264 -0.4288  0.8542
   43MOL   H14631310   2.324   4.624   4.292  0.2076 -0.3363  0.7620
   43MOL   H14731311   2.340   4.386   4.253  1.2068 -1.1811  0.5111
   43MOL   H14831312   2.506   4.390   4.218  0.5043  1.1485 -0.1470
   43MOL   H14931313   2.302   4.536   4.046 -0.5221 -0.0391  0.4024
   43MOL   C15031314   2.460   4.456   3.961  0.2228 -1.0525  0.3936
   43MOL   O15131315   2.564   4.398   3.975  0.0131  0.3850  0.1102
   43MOL   C15231316   2.414   4.510   3.823  0.2335  0.5882 -0.6816
   43MOL   C15331317   2.423   4.408   3.708  0.0990 -0.6635  0.1786
   43MOL   C15431318   2.328   4.294   3.705 -1.2124 -0.8435  0.3591
   43MOL   C15531319   2.337   4.201   3.584  0.1878 -0.1847 -0.1779
   43MOL   C15631320   2.263   4.061   3.604  0.5390 -0.1218  0.3360
   43MOL   C15731321   2.115   4.073   3.625 -0.1230  0.0634 -0.3325
   43MOL   C15831322   2.047   3.936   3.650  0.1491  0.5896 -0.9966
   43MOL   C15931323   1.899   3.945   3.691 -0.0789  0.1145 -0.2215
   43MOL   C16031324   1.835   3.819   3.749 -0.1431  0.0192 -0.2953
   43MOL   C16131325   1.684   3.825   3.763  0.1595 -0.4988  0.5792
   43MOL   C16231326   1.641   3.915   3.880 -0.0442 -0.1391 -0.1488
   43MOL   N16331327   1.499   3.924   3.904 -0.2779 -0.7391  0.1284
   43MOL   H16431328   2.470   4.600   3.799  1.2072  0.3087  0.5211
   43MOL   H16531329   2.313   4.546   3.846  0.6048  0.2584  1.5686
   43MOL   H16631330   2.408   4.462   3.615  0.2346 -0.5465  0.2232
   43MOL   H16731331   2.527   4.375   3.714  0.2957  0.2371  2.3338
   43MOL   H16831332   2.225   4.328   3.717 -0.9310  1.3829 -2.7618
   43MOL   H16931333   2.354   4.236   3.793 -1.0560 -0.0241  0.8634
   43MOL   H17031334   2.284   4.259   3.508  0.6411  0.2943 -0.1331
   43MOL   H17131335   2.438   4.190   3.543 -0.3593  0.1497 -1.6435
   43MOL   H17231336   2.317   4.015   3.687  2.0690  0.1282 -0.4977
   43MOL   H17331337   2.294   3.998   3.521 -0.5102 -3.0882  2.1279
   43MOL   H17431338   2.061   4.132   3.551 -1.1550  0.0728  0.4256
   43MOL   H17531339   2.101   4.123   3.721  0.2901 -2.1702  0.9197
   43MOL   H17631340   2.087   3.886   3.738 -0.9825 -1.1952 -1.4803
   43MOL   H17731341   2.051   3.868   3.565 -3.4801 -0.5290 -0.3609
   43MOL   H17831342   1.835   3.989   3.615 -2.2235  0.0077  1.4675
   43MOL   H17931343   1.900   4.022   3.769  1.8945  2.2718 -2.3113
   43MOL   H18031344   1.887   3.777   3.835 -1.6321  1.8562  1.5757
   43MOL   H18131345   1.849   3.736   3.680 -1.6851  0.9489 -1.7760
   43MOL   H18231346   1.649   3.722   3.773 -0.7502 -0.3206 -0.6307
   43MOL   H18331347   1.642   3.851   3.666 -1.2551 -2.8332  0.5186
   43MOL   H18431348   1.673   4.015   3.850 -1.1485 -0.2668 -1.8287
   43MOL   H18531349   1.695   3.886   3.970  1.2981  2.4927 -0.0481
   43MOL   H18631350   1.451   3.836   3.906 -1.7762  0.0169 -1.6037
   43MOL   C18731351   1.428   4.037   3.939  0.3892 -0.0106  0.2892
   43MOL   O18831352   1.482   4.152   3.949  0.3442  0.0147 -0.6768
   43MOL   C18931353   1.278   4.024   3.972 -0.4073  0.0612  0.7362
   43MOL   C19031354   1.236   4.108   4.094  0.2179  0.3320  0.2180
   43MOL   C19131355   1.216   4.254   4.064  0.0306 -0.0165 -0.8993
   43MOL   C19231356   1.176   4.334   4.193  0.0415 -0.3069  0.1747
   43MOL   C19331357   1.281   4.432   4.248  0.1157  0.4907 -0.7974
   43MOL   C19431358   1.251   4.478   4.391  0.5305 -0.2040 -0.1371
   43MOL   C19531359   1.356   4.574   4.444 -0.3475 -0.0762 -0.4807
   43MOL   C19631360   1.337   4.623   4.591 -0.1587 -0.3174  0.1922
   43MOL   C19731361   1.467   4.675   4.662 -0.1562  0.0454 -0.8267
   43MOL   C19831362   1.556   4.781   4.588  0.3122  0.2489 -0.4317
   43MOL   C19931363   1.680   4.834   4.671 -0.2657  0.0560 -0.2470
   43MOL   N20031364   1.632   4.874   4.801 -0.7314  0.0942  0.7379
   43MOL   H20131365   1.264   3.918   3.997  0.2868 -0.5585 -1.4487
   43MOL   H20231366   1.211   4.036   3.887 -0.5970  1.4226  1.0656
   43MOL   H20331367   1.145   4.070   4.141  1.1429  0.9062  2.5239
   43MOL   H20431368   1.307   4.092   4.175  0.9526 -1.5341 -0.7408
   43MOL   H20531369   1.134   4.266   3.992 -0.4195  2.3873 -0.0305
   43MOL   H20631370   1.304   4.303   4.022  1.4013 -0.4689  1.3594
   43MOL   H20731371   1.083   4.386   4.169 -0.1328 -0.5390  0.3438
   43MOL   H20831372   1.151   4.263   4.272 -0.8108 -0.4787 -0.2478
   43MOL   H20931373   1.288   4.519   4.182 -2.5472  1.4247  0.1063
   43MOL   H21031374   1.375   4.377   4.250  0.0540  0.3527 -1.4608
   43MOL   H21131375   1.239   4.393   4.458  0.3171  0.5217  0.7570
   43MOL   H21231376   1.154   4.527   4.395 -0.7295 -2.6988  0.1855
   43MOL   H21331377   1.395   4.649   4.375  1.0578 -0.4661 -0.1177
   43MOL   H21431378   1.443   4.512   4.465  0.9711  2.1527  0.8871
   43MOL   H21531379   1.298   4.536   4.643  2.0261 -0.4616  1.6702
   43MOL   H21631380   1.255   4.695   4.587  0.5213  0.5081  0.9271
   43MOL   H21731381   1.531   4.587   4.673 -1.2436 -0.5934  0.5853
   43MOL   H21831382   1.429   4.708   4.758 -0.3559  0.4996 -1.0638
   43MOL   H21931383   1.497   4.868   4.558 -0.1094 -0.0105 -0.3725
   43MOL   H22031384   1.593   4.729   4.499  2.4735 -0.9091  1.1144
   43MOL   H22131385   1.724   4.919   4.620 -2.0760  0.4843 -1.1621
   43MOL   H22231386   1.756   4.757   4.686 -1.8415 -1.4306  0.3356
   43MOL   H22331387   1.582   4.805   4.856 -2.3588 -0.5538 -1.4779
   43MOL   C22431388   1.660   4.988   4.864  0.1520  0.3267 -0.2013
   43MOL   O22531389   1.727   5.081   4.815 -0.0938 -0.0952  0.0515
   43MOL   C22631390   1.598   5.002   4.998  0.3567 -0.4367  0.5208
   43MOL   C22731391   1.445   5.018   4.989  0.0887  0.1983  0.3075
   43MOL   C22831392   1.400   5.144   4.910 -0.2071  0.3139 -0.1555
   43MOL   C22931393   1.331   5.100   4.776 -0.0409 -0.0679 -0.4586
   43MOL   C23031394   1.281   5.219   4.693  0.3065  0.3426  0.2578
   43MOL   C23131395   1.248   5.177   4.554 -0.0915  0.1007  0.1725
   43MOL   C23231396   1.164   5.044   4.547 -0.5908 -0.3091  0.2465
   43MOL   C23331397   1.118   5.012   4.402  0.4021 -0.9975 -0.0106
   43MOL   C23431398   1.040   4.877   4.394  0.4382 -0.5092 -0.2459
   43MOL   C23531399   0.997   4.850   4.248 -0.0943  0.4584  0.0331
   43MOL   C23631400   0.928   4.712   4.242  0.1104  0.4161 -0.2186
   43MOL   N23731401   0.876   4.677   4.104  0.0740  0.2152 -0.2442
   43MOL   H23831402   1.627   5.099   5.038  0.6230 -1.3532  2.6132
   43MOL   H23931403   1.635   4.920   5.060  0.4247 -2.3205 -1.9304
   43MOL   H24031404   1.394   4.932   4.944 -2.9895  0.8111  2.4722
   43MOL   H24131405   1.407   5.018   5.091 -0.0865  3.6285  0.2700
   43MOL   H24231406   1.483   5.212   4.890  1.6494 -1.5044  1.2039
   43MOL   H24331407   1.324   5.193   4.971 -0.1706 -0.3079  0.3963
   43MOL   H24431408   1.394   5.033   4.718  1.3057 -0.8383  1.8202
   43MOL   H24531409   1.248   5.035   4.804  1.3586 -0.6984  2.4962
   43MOL   H24631410   1.367   5.286   4.684  0.9548 -0.6148 -0.9365
   43MOL   H24731411   1.217   5.285   4.750  0.7847  1.9435 -1.0248
   43MOL   H24831412   1.341   5.162   4.499 -1.6749 -0.7238 -2.3874
   43MOL   H24931413   1.195   5.257   4.502  1.7993  1.2592 -0.0366
   43MOL   H25031414   1.074   5.049   4.608 -0.9198  1.9247 -0.3930
   43MOL   H25131415   1.214   4.955   4.586 -0.4302  0.0580  0.9010
   43MOL   H25231416   1.203   5.002   4.334  1.4301 -0.3164  1.1439
   43MOL   H25331417   1.050   5.087   4.363 -0.6150 -1.2027  1.3290
   43MOL   H25431418   0.953   4.873   4.459  1.8065 -1.3163  1.5874
   43MOL   H25531419   1.109   4.799   4.426 -1.2858 -1.1674  2.0785
   43MOL   H25631420   1.086   4.847   4.185  0.9868  0.7431  1.5105
   43MOL   H25731421   0.932   4.924   4.203 -3.4407 -1.3286  1.7726
   43MOL   H25831422   0.848   4.709   4.316  0.9700 -1.7724  0.6838
   43MOL   H25931423   0.994   4.628   4.267  0.0951 -0.3242 -2.5606
   43MOL   H26031424   0.948   4.658   4.035 -0.7276 -1.0746 -0.7384
   43MOL   C26131425   0.751   4.659   4.071  0.3780  0.3005  0.0125
   43MOL   O26231426   0.663   4.666   4.152  0.1035 -0.1162 -0.0639
   43MOL   C26331427   0.712   4.638   3.925 -0.4143 -0.5193 -0.3149
   43MOL   C26431428   0.593   4.546   3.900 -0.7046  0.3927 -0.2964
   43MOL   C26531429   0.451   4.605   3.911 -0.2157  0.0919 -0.3275
   43MOL   C26631430   0.409   4.695   3.801 -0.5711  0.0263 -0.1692
   43MOL   C26731431   0.262   4.737   3.816  0.4014 -0.2717 -0.0244
   43MOL   C26831432   0.201   4.823   3.705  0.5611  0.5774  0.1100
   43MOL   C26931433   0.073   4.886   3.759 -0.3554  0.3143  0.2002
   43MOL   C27031434   7.648   4.783   3.774  0.1311  0.7774  0.9394
   43MOL   C27131435   7.530   4.853   3.835 -0.2642  1.1735 -0.5686
   43MOL   C27231436   7.432   4.756   3.903 -0.6041  0.6126  0.6071
   43MOL   C27331437   7.312   4.818   3.959  0.8973 -0.9036 -0.0290
   43MOL   N27431438   7.341   4.921   4.056 -0.5255  0.4947  0.8134
   43MOL   H27531439   0.797   4.611   3.864  0.1179  0.1566  0.1164
   43MOL   H27631440   0.681   4.736   3.887  0.7602  0.3828  0.9890
   43MOL   H27731441   0.595   4.514   3.796 -0.7519 -2.0405  0.4272
   43MOL   H27831442   0.579   4.460   3.965  1.0046  1.3016  1.3397
   43MOL   H27931443   0.437   4.658   4.005  1.3517 -0.8330  0.4479
   43MOL   H28031444   0.384   4.519   3.918 -0.9371  0.7740  1.5335
   43MOL   H28131445   0.472   4.781   3.781 -0.1544  0.3305  2.3003
   43MOL   H28231446   0.416   4.647   3.704 -1.5229 -0.8764  0.1889
   43MOL   H28331447   0.254   4.789   3.911 -1.8663 -1.0431  0.2385
   43MOL   H28431448   0.206   4.644   3.826  1.5332 -0.9297  0.2526
   43MOL   H28531449   0.169   4.771   3.615  2.2746  0.6621 -0.5541
   43MOL   H28631450   0.277   4.899   3.689  1.2381 -0.4885 -1.8342
   43MOL   H28731451   0.045   4.968   3.693  1.5935 -0.5449 -1.7376
   43MOL   H28831452   0.096   4.932   3.855  2.4029  0.2026 -0.3811
   43MOL   H28931453   7.677   4.700   3.838 -1.2084  0.0603  0.6377
   43MOL   H29031454   7.617   4.739   3.679 -0.0856  0.4794  1.1453
   43MOL   H29131455   7.472   4.896   3.753  0.2586  1.2070 -0.9240
   43MOL   H29231456   7.558   4.934   3.904 -0.3994  1.4878 -0.8856
   43MOL   H29331457   7.483   4.710   3.988  0.0671  0.3386  0.0588
   43MOL   H29431458   7.411   4.679   3.829  0.7344  1.5064 -0.7024
   43MOL   H29531459   7.252   4.731   3.986  0.6567  0.3542  3.6326
   43MOL   H29631460   7.246   4.857   3.882 -0.1171  0.8293  1.6819
   43MOL   H29731461   7.433   4.914   4.097  0.1282 -0.9350 -0.8481
   43MOL   C29831462   7.262   5.018   4.106  0.1540 -0.3148 -0.0998
   43MOL   O29931463   7.142   5.040   4.079 -0.6554  0.1211  0.3601
   43MOL   C30031464   7.316   5.107   4.218 -0.1675  0.1633  0.2973
   43MOL   C30131465   7.306   5.259   4.185 -0.8757  0.3011 -0.7822
   43MOL   C30231466   7.330   5.348   4.316  0.8214  0.0070  0.4379
   43MOL   C30331467   7.262   5.483   4.292  0.0231 -0.0195 -0.3519
   43MOL   C30431468   7.311   5.565   4.174  0.0648  0.1898 -0.3815
   43MOL   C30531469   7.262   5.707   4.184 -0.0024  0.2614 -0.5309
   43MOL   C30631470   7.316   5.800   4.084 -0.0560 -0.4923  0.3583
   43MOL   C30731471   7.258   5.774   3.941  0.1863  0.4377 -0.6773
   43MOL   C30831472   7.304   5.892   3.845  0.7169 -0.0483 -0.1629
   43MOL   C30931473   7.226   5.883   3.710  1.4501 -0.0158 -0.2447
   43MOL   C31031474   7.234   6.012   3.623  0.5719  0.0229 -0.4225
   43MOL   N31131475   7.375   6.057   3.597 -0.4468 -0.2450  0.1158
   43MOL   H31231476   7.421   5.086   4.240 -0.4303 -4.6654 -2.1743
   43MOL   H31331477   7.268   5.079   4.312  1.3030 -0.9942  0.7196
   43MOL   H31431478   7.376   5.281   4.104  0.2916 -0.1917  0.0675
   43MOL   H31531479   7.215   5.289   4.135  0.2183  0.7912 -2.5325
   43MOL   H31631480   7.434   5.360   4.348 -0.0508  1.3801  2.8631
   43MOL   H31731481   7.286   5.304   4.405  1.6731  0.0785  0.9081
   43MOL   H31831482   7.154   5.472   4.282 -0.4116  0.1828  3.3916
   43MOL   H31931483   7.274   5.537   4.385  1.2135 -0.7378 -0.0809
   43MOL   H32031484   7.270   5.525   4.081  0.2274  1.3305 -0.9653
   43MOL   H32131485   7.420   5.558   4.172  0.1024 -1.6092  3.2342
   43MOL   H32231486   7.312   5.733   4.278 -0.4278  0.1468 -0.2745
   43MOL   H32331487   7.156   5.717   4.208  0.0632 -0.3408  0.0253
   43MOL   H32431488   7.425   5.787   4.082  0.0108  0.1839 -0.9924
   43MOL   H32531489   7.304   5.905   4.107 -0.5919 -0.4132 -0.2726
   43MOL   H32631490   7.149   5.770   3.936  0.2153  0.8166 -1.7360
   43MOL   H32731491   7.288   5.681   3.893  0.0650 -0.8589  1.6809
   43MOL   H32831492   7.413   5.892   3.840  0.7167 -0.4588 -0.1830
   43MOL   H32931493   7.292   5.990   3.891 -0.5632 -0.8294  1.1918
   43MOL   H33031494   7.125   5.843   3.716  0.9255  1.1184 -1.5564
   43MOL   H33131495   7.280   5.806   3.653 -0.7335 -2.5898  1.0353
   43MOL   H33231496   7.171   6.084   3.675 -1.2945  0.6065 -3.3683
   43MOL   H33331497   7.186   5.996   3.527  0.4397 -3.5204  0.1599
   43MOL   H33431498   7.433   5.993   3.546 -1.7806 -2.2569  1.0501
   43MOL   C33531499   7.415   6.177   3.630 -0.1610  0.0628 -0.2335
   43MOL   O33631500   7.343   6.261   3.687  0.6461 -0.1647  0.3145
   43MOL   C33731501   7.560   6.210   3.602 -0.2006 -0.2486 -0.1680
   43MOL   C33831502   7.590   6.359   3.606 -0.4581 -0.4213  0.1570
   43MOL   C33931503   0.033   6.400   3.541 -0.2891 -0.2647 -0.1471
   43MOL   C34031504   0.067   6.551   3.557 -0.1603 -0.3596 -0.6432
   43MOL   C34131505   0.109   6.584   3.701  0.3593  0.6460  0.0480
   43MOL   C34231506   0.139   6.726   3.725 -0.1383  0.3159 -0.3829
   43MOL   C34331507   0.025   6.821   3.733  0.0466  0.9932 -0.3831
   43MOL   C34431508   0.063   6.947   3.826 -0.1619  0.2437 -0.1333
   43MOL   C34531509   7.645   7.059   3.814  0.0384  0.8672 -0.3929
   43MOL   C34631510   7.659   7.168   3.904 -0.2189 -0.0359  0.5197
   43MOL   C34731511   7.537   7.272   3.909 -0.1393 -0.1129  0.7730
   43MOL   N34831512   7.563   7.368   4.016 -0.1823 -0.3241  0.1472
   43MOL   H34931513   7.582   6.172   3.502  0.8105  1.3392 -0.5690
   43MOL   H35031514   7.639   6.165   3.664  2.7145  0.6525 -3.0716
   43MOL   H35131515   7.515   6.416   3.550  0.8576  0.1964 -0.9827
   43MOL   H35231516   7.591   6.405   3.706 -0.3903  0.0329 -0.0504
   43MOL   H35331517   0.030   6.389   3.433 -1.8007  0.4572 -0.1888
   43MOL   H35431518   0.114   6.338   3.581 -0.7891 -1.1255 -0.4510
   43MOL   H35531519   0.145   6.567   3.483 -2.0969  2.2363 -2.1893
   43MOL   H35631520   7.675   6.615   3.538  1.4324  1.3838 -2.2209
   43MOL   H35731521   0.191   6.522   3.737 -0.7372 -0.0420  1.3832
   43MOL   H35831522   0.024   6.560   3.764  0.1182  1.2802 -0.0387
   43MOL   H35931523   0.213   6.763   3.653  1.5048  0.0967  1.1639
   43MOL   H36031524   0.186   6.729   3.823 -0.7094  0.0568 -0.1007
   43MOL   H36131525   7.639   6.765   3.781  1.2247 -1.1833 -0.9074
   43MOL   H36231526   7.686   6.836   3.630  0.5057 -1.0399 -0.8512
   43MOL   H36331527   0.153   6.984   3.778 -0.1677 -1.8925 -1.8769
   43MOL   H36431528   0.093   6.914   3.926 -1.4930  0.1662  0.2543
   43MOL   H36531529   7.554   7.005   3.839  0.4281  0.7747  0.8428
   43MOL   H36631530   7.648   7.104   3.714  3.2222  0.3276 -0.5933
   43MOL   H36731531   0.052   7.230   3.880  1.2640 -1.5663  1.7645
   43MOL   H36831532   7.668   7.130   4.006  0.6296  0.3468  0.5950
   43MOL   H36931533   7.453   7.213   3.946 -1.1631 -0.0248 -1.3257
   43MOL   H37031534   7.509   7.328   3.820  0.0878 -1.7322 -0.3512
   43MOL   H37131535   7.647   7.349   4.068  0.4822 -1.9307 -1.4902
   43MOL   C37231536   7.497   7.477   4.031  0.2534 -0.2089  0.0773
   43MOL   O37331537   7.396   7.501   3.966  0.1234 -0.2017 -0.6415
   43MOL   C37431538   7.553   7.573   4.134  0.8542  0.0559  0.3605
   43MOL   C37531539   7.579   0.013   4.076  0.2516  0.0114  0.3921
   43MOL   C37631540   7.690   0.021   3.972 -0.4272 -0.2183  0.1631
   43MOL   C37731541   0.046   0.163   3.953  0.7262 -0.0311 -0.3904
   43MOL   C37831542   0.149   0.199   3.840 -1.1861  0.2016 -0.8060
   43MOL   C37931543   0.117   0.316   3.747  0.7193 -0.1506 -0.3658
   43MOL   C38031544   0.210   0.339   3.634  0.0001 -0.7013  0.8379
   43MOL   C38131545   0.194   0.237   3.521 -0.4467 -0.5330 -0.0867
   43MOL   C38231546   0.054   0.239   3.456  0.1380 -0.2422 -0.6980
   43MOL   C38331547   7.691   0.110   3.409 -0.4910  0.3201 -0.3798
   43MOL   C38431548   7.620   0.025   3.513 -0.0291 -0.1989  1.0515
   43MOL   N38531549   7.625   7.577   3.478 -0.5374  0.1741 -0.4687
   43MOL   H38631550   7.635   7.533   4.193  1.2037  1.8736  1.1426
   43MOL   H38731551   7.474   7.583   4.208  1.9002  3.5708  1.0822
   43MOL   H38831552   7.489   0.052   4.028  1.5037 -0.1846 -2.2085
   43MOL   H38931553   7.613   0.071   4.161  0.3243 -0.2592  0.5473
   43MOL   H39031554   7.647   7.667   3.884 -0.0825 -2.2111  1.0597
   43MOL   H39131555   0.079   7.652   4.004  1.5255  1.8659 -0.6814
   43MOL   H39231556   7.653   0.229   3.948  1.5282  1.0601 -0.1032
   43MOL   H39331557   0.102   0.199   4.040  1.2891 -1.1338 -0.2955
   43MOL   H39431558   0.148   0.105   3.785 -2.7247  0.1972 -0.7904
   43MOL   H39531559   0.243   0.211   3.893 -1.7894  2.3411 -0.1542
   43MOL   H39631560   0.121   0.397   3.821  0.4354 -1.5323  1.1980
   43MOL   H39731561   0.011   0.318   3.723  1.1569 -0.5779 -2.3979
   43MOL   H39831562   0.312   0.327   3.670  0.0980 -0.2658  0.7104
   43MOL   H39931563   0.193   0.428   3.573 -1.2380 -1.2087  0.4366
   43MOL   H40031564   0.213   0.136   3.558  0.7290 -0.9285 -1.6907
   43MOL   H40131565   0.260   0.270   3.440 -0.9832  0.2758 -0.1971
   43MOL   H40231566   0.059   0.308   3.371  2.2313 -0.2096 -0.5675
   43MOL   H40331567   7.680   0.288   3.526  0.5837 -1.5016  0.6485
   43MOL   H40431568   0.084   0.057   3.370  0.2573  2.2474 -1.3953
   43MOL   H40531569   7.622   0.124   3.326  1.1713 -1.2933 -2.0945
   43MOL   H40631570   7.514   0.049   3.525 -0.1532  0.2772 -0.8806
   43MOL   H40731571   7.671   0.040   3.609  0.6712 -0.6009  0.7454
   43MOL   H40831572   7.566   7.538   3.407 -0.2872 -0.2348 -0.4557
   43MOL   C40931573   0.008   7.487   3.542  0.5783 -0.5139  0.2389
   43MOL   O41031574   0.085   7.512   3.628 -0.4034  0.5910 -0.3478
   43MOL   C41131575   7.683   7.334   3.509 -0.3478 -0.7463  0.9184
   43MOL   C41231576   0.113   7.267   3.448 -0.0891 -0.4827 -0.2878
   43MOL   C41331577   0.220   7.223   3.555 -0.1149  0.2859 -0.6216
   43MOL   C41431578   0.348   7.178   3.486 -0.2666  0.3067  0.3809
   43MOL   C41531579   0.469   7.147   3.576 -0.0732  0.2132  0.4618
   43MOL   C41631580   0.582   7.077   3.498 -0.5783 -0.5933 -0.4609
   43MOL   C41731581   0.660   7.181   3.423  0.0889  0.5682 -0.1684
   43MOL   C41831582   0.775   7.134   3.341 -0.6262 -0.2922  0.4156
   43MOL   C41931583   0.846   7.254   3.271  0.5083  0.0820  0.3722
   43MOL   C42031584   0.929   7.206   3.151  0.0116 -0.1003 -0.1042
   43MOL   C42131585   0.854   7.133   3.041 -0.6790  0.3575  0.4377
   43MOL   N42231586   0.931   7.086   2.925 -0.1566  0.5981  0.2896
   43MOL   H42331587   7.611   7.333   3.427  1.1796  1.0235 -0.4781
   43MOL   H42431588   7.624   7.283   3.585 -3.3701  0.4390 -0.5301
   43MOL   H42531589   0.080   7.173   3.403 -1.1180 -0.2765  0.0141
   43MOL   H42631590   0.156   7.333   3.373  0.6149 -0.7243 -0.0994
   43MOL   H42731591   0.183   7.134   3.606 -0.0356  0.8261  0.3866
   43MOL   H42831592   0.226   7.285   3.644  0.4250 -0.9533  0.2254
   43MOL   H42931593   0.330   7.099   3.413  0.4740  1.7272 -1.3726
   43MOL   H43031594   0.375   7.263   3.423 -1.1410 -0.2705 -0.8219
   43MOL   H43131595   0.428   7.083   3.655  0.6315  2.0200  2.3435
   43MOL   H43231596   0.496   7.239   3.628  1.3087 -0.0820  0.2845
   43MOL   H43331597   0.546   6.999   3.430 -0.4940  0.2222 -1.4664
   43MOL   H43431598   0.643   7.032   3.576 -1.1131  1.5754  1.2310
   43MOL   H43531599   0.697   7.243   3.505 -0.9094 -2.3340  2.5624
   43MOL   H43631600   0.595   7.239   3.357 -0.4635  0.3424  0.1714
   43MOL   H43731601   0.735   7.057   3.275  1.9160 -1.7608  0.5319
   43MOL   H43831602   0.852   7.081   3.397  0.0068  0.0686 -0.1112
   43MOL   H43931603   0.917   7.311   3.331  2.5193 -2.1177  0.1336
   43MOL   H44031604   0.768   7.324   3.240 -1.5304 -1.8173  1.1254
   43MOL   H44131605   1.006   7.141   3.193  0.4240  0.2835 -0.2610
   43MOL   H44231606   0.980   7.293   3.110  0.1456  0.9092  2.1576
   43MOL   H44331607   0.763   7.173   2.997  1.1965  1.0832 -2.8953
   43MOL   H44431608   0.808   7.043   3.084  0.4438 -0.6807 -0.4825
   43MOL   H44531609   0.947   7.141   2.841  2.0687 -0.9884 -0.3843
   43MOL   C44631610   0.958   6.959   2.901 -0.1456  0.0579  0.6248
   43MOL   O44731611   0.937   6.868   2.977 -0.3664  0.4755 -0.8188
   43MOL   C44831612   1.026   6.933   2.771 -0.3300 -0.3652 -0.1890
   43MOL   C44931613   1.027   6.792   2.732 -0.8022 -0.4767  0.3378
   43MOL   C45031614   1.063   6.761   2.585 -0.9390  0.7128 -0.4445
   43MOL   C45131615   1.096   6.605   2.582 -0.2280 -0.1780  0.4560
   43MOL   C45231616   1.128   6.547   2.444  0.0527  0.2112  0.5746
   43MOL   C45331617   1.187   6.410   2.446 -0.1148 -0.8627 -0.3145
   43MOL   C45431618   1.248   6.349   2.323  0.1449 -0.6949 -0.1609
   43MOL   C45531619   1.352   6.236   2.353 -0.0107 -0.4566 -0.5385
   43MOL   C45631620   1.422   6.190   2.227  0.6426 -0.1757 -0.1924
   43MOL   C45731621   1.526   6.290   2.168 -0.5012 -0.6653 -0.7612
   43MOL   C45831622   1.598   6.235   2.043  0.0741  0.2704 -0.1531
   43MOL   N45931623   1.663   6.339   1.969 -0.1131 -0.3854 -0.0926
   43MOL   H46031624   1.130   6.956   2.796 -0.4762 -0.5840  0.6331
   43MOL   H46131625   0.996   7.004   2.694 -0.8872  0.4504  0.7720
   43MOL   H46231626   1.090   6.741   2.805  1.0382  1.8063  0.4296
   43MOL   H46331627   0.928   6.753   2.757 -1.2010 -0.3889 -1.1021
   43MOL   H46431628   1.131   6.837   2.546 -1.8785  1.0265 -1.5002
   43MOL   H46531629   0.983   6.774   2.512 -0.8343 -1.9138 -1.0757
   43MOL   H46631630   1.173   6.586   2.657  1.1599  1.2149 -0.5953
   43MOL   H46731631   1.009   6.545   2.609 -0.0201 -1.8068 -2.3010
   43MOL   H46831632   1.203   6.605   2.391 -0.5006 -0.2754 -0.7694
   43MOL   H46931633   1.036   6.555   2.385  0.9240 -0.1419 -0.8605
   43MOL   H47031634   1.109   6.352   2.495  1.5077 -3.0421 -0.2698
   43MOL   H47131635   1.275   6.419   2.511  0.4350  1.0355 -1.2788
   43MOL   H47231636   1.304   6.429   2.276  0.6388 -0.2242  1.2246
   43MOL   H47331637   1.169   6.312   2.256 -1.6606 -1.0444  2.0975
   43MOL   H47431638   1.297   6.150   2.391 -1.5243  0.2429 -1.0615
   43MOL   H47531639   1.423   6.263   2.431 -1.6214  1.3978  0.3492
   43MOL   H47631640   1.358   6.161   2.144  0.8760  0.8402 -0.7470
   43MOL   H47731641   1.472   6.098   2.255  1.0821  0.6499  1.8018
   43MOL   H47831642   1.594   6.319   2.249 -0.8828 -0.9075 -0.3492
   43MOL   H47931643   1.475   6.385   2.151 -0.2480 -0.1719  1.1421
   43MOL   H48031644   1.526   6.205   1.967  0.0814  3.3548 -1.4453
   43MOL   H48131645   1.670   6.157   2.068 -0.8966 -1.2709 -2.0726
   43MOL   H48231646   1.612   6.426   1.960  0.6780 -0.1239 -2.3353
   43MOL   C48331647   1.796   6.355   1.951  0.9346 -0.2029 -0.0085
   43MOL   O48431648   1.885   6.276   1.984  0.4309 -0.5574  0.1990
   43MOL   C48531649   1.842   6.485   1.887  0.6184 -0.9166 -0.5526
   43MOL   C48631650   1.950   6.562   1.968 -0.1369 -1.5326 -0.1916
   43MOL   C48731651   1.894   6.606   2.110  0.7378  0.3058  0.2202
   43MOL   C48831652   2.010   6.663   2.193  0.1358 -0.3865  0.3421
   43MOL   C48931653   1.973   6.704   2.341  0.4133 -0.0463  0.2148
   43MOL   C49031654   2.084   6.709   2.447 -0.1089  0.2155  0.7730
   43MOL   C49131655   2.046   6.754   2.592  0.5118 -0.5351  0.4495
   43MOL   C49231656   1.946   6.671   2.666  0.1647  0.0174  0.1447
   43MOL   C49331657   1.916   6.735   2.800 -0.0220  0.7283 -0.1006
   43MOL   C49431658   1.811   6.663   2.886 -0.1250 -0.2136  0.7504
   43MOL   C49531659   1.789   6.743   3.014  0.3646  0.3807  0.0926
   43MOL   N49631660   1.695   6.685   3.112 -0.6907 -0.1117  0.1779
   43MOL   H49731661   1.758   6.551   1.866  0.3808 -0.5791  1.3478
   43MOL   H49831662   1.886   6.447   1.795  0.5739 -1.7576 -0.2266
   43MOL   H49931663   2.036   6.499   1.989  2.2347  1.3608 -0.9730
   43MOL   H50031664   1.989   6.650   1.918 -0.5814 -1.8924 -1.1894
   43MOL   H50131665   1.846   6.521   2.160  0.2132  1.0691  1.0461
   43MOL   H50231666   1.821   6.686   2.102  1.0080  0.4887 -0.4200
   43MOL   H50331667   2.098   6.599   2.190 -0.0568 -0.6486  0.3137
   43MOL   H50431668   2.024   6.760   2.144  0.4953 -1.5634 -1.9767
   43MOL   H50531669   1.902   6.629   2.375 -0.4352 -0.4938 -2.3969
   43MOL   H50631670   1.912   6.795   2.334  0.1386 -0.2827 -0.5961
   43MOL   H50731671   2.157   6.785   2.417 -1.1959  0.3196 -1.6796
   43MOL   H50831672   2.144   6.618   2.457  2.0756  1.5133 -0.1372
   43MOL   H50931673   2.003   6.853   2.576  0.2991 -0.9947 -2.1426
   43MOL   H51031674   2.135   6.759   2.654 -0.0849 -1.5941  1.4029
   43MOL   H51131675   1.969   6.565   2.678  1.4295  0.2721  0.1318
   43MOL   H51231676   1.856   6.671   2.605 -0.4970  0.5228  1.1091
   43MOL   H51331677   1.877   6.833   2.773  0.4356  0.8395 -0.3788
   43MOL   H51431678   2.009   6.736   2.857 -1.4225 -0.8242  2.2906
   43MOL   H51531679   1.839   6.560   2.904 -2.4682 -0.4221  3.6529
   43MOL   H51631680   1.717   6.659   2.831 -0.2006  0.5881  0.8129
   43MOL   H51731681   1.756   6.843   2.987  1.1968  0.6254 -0.0289
   43MOL   H51831682   1.882   6.758   3.070  0.2892 -1.9146  0.8978
   43MOL   H51931683   1.710   6.595   3.156  0.7542  0.5937  1.1374
   43MOL   C52031684   1.574   6.738   3.147 -0.4724  0.1011 -0.1071
   43MOL   O52131685   1.533   6.842   3.106 -0.1446 -0.5208  0.4325
   43MOL   C52231686   1.483   6.649   3.232 -0.1545  0.2627  0.4093
   43MOL   C52331687   1.431   6.713   3.359  0.2571  0.4195  0.4973
   43MOL   C52431688   1.426   6.619   3.480 -0.0354 -0.2018 -0.2054
   43MOL   C52531689   1.402   6.685   3.613  0.0240 -0.1169 -0.5264
   43MOL   C52631690   1.374   6.581   3.724  0.0134 -0.2117 -0.1999
   43MOL   C52731691   1.500   6.507   3.769 -0.4389  0.1485 -0.2290
   43MOL   C52831692   1.466   6.420   3.886  0.0786  0.1728  0.4412
   43MOL   C52931693   1.381   6.294   3.862  0.0533 -0.7241 -0.1499
   43MOL   C53031694   1.458   6.181   3.782 -0.2397  0.6406 -0.3311
   43MOL   C53131695   1.581   6.116   3.835  0.1978  0.3661  0.3010
   43MOL   C53231696   1.648   6.035   3.726  0.9173 -0.3272 -1.0718
   43MOL   N53331697   1.722   6.108   3.624  0.2172 -0.4907  0.3189
   43MOL   H53431698   1.516   6.548   3.260 -1.9505 -1.3081 -2.8350
   43MOL   H53531699   1.405   6.618   3.161 -0.8340  1.7442  0.5022
   43MOL   H53631700   1.499   6.793   3.386 -0.6034  1.0224  0.8944
   43MOL   H53731701   1.329   6.751   3.351 -0.1895 -0.8126  0.1354
   43MOL   H53831702   1.522   6.568   3.484 -0.8603 -1.7221  0.8741
   43MOL   H53931703   1.366   6.529   3.466 -0.1803  0.0899 -1.5224
   43MOL   H54031704   1.484   6.745   3.651 -0.7891 -0.4864  1.9121
   43MOL   H54131705   1.313   6.748   3.607 -0.1838 -0.6019 -2.6212
   43MOL   H54231706   1.303   6.503   3.695  1.0333 -0.4931 -2.0210
   43MOL   H54331707   1.331   6.634   3.809 -0.9990 -1.5292  0.1201
   43MOL   H54431708   1.572   6.584   3.798  1.0872 -0.9745 -0.9374
   43MOL   H54531709   1.549   6.456   3.686 -1.3394  0.3369 -0.8806
   43MOL   H54631710   1.411   6.480   3.958  0.0732  2.9025 -1.7401
   43MOL   H54731711   1.555   6.391   3.943  0.2581 -0.0041  0.0745
   43MOL   H54831712   1.292   6.314   3.803  0.7704  0.2553 -0.9354
   43MOL   H54931713   1.343   6.260   3.958  0.8269 -1.0481  0.0467
   43MOL   H55031714   1.487   6.218   3.684 -0.4831  0.9779 -0.2759
   43MOL   H55131715   1.386   6.104   3.757 -0.0537  1.0504 -2.2025
   43MOL   H55231716   1.553   6.051   3.918 -0.7842  0.2116 -0.1419
   43MOL   H55331717   1.642   6.199   3.869 -1.1994  1.6516 -0.2859
   43MOL   H55431718   1.572   5.968   3.686  0.4924 -1.2737  1.2058
   43MOL   H55531719   1.725   5.975   3.775 -2.7546 -1.6555  3.5022
   43MOL   H55631720   1.823   6.111   3.624  0.2173  0.0919 -1.7525
   43MOL   C55731721   1.675   6.127   3.501 -0.3519  0.4088 -0.1096
   43MOL   O55831722   1.558   6.098   3.473 -0.4324 -0.0030  0.1261
   43MOL   C55931723   1.760   6.199   3.401 -0.0487 -0.3722  0.0823
   43MOL   C56031724   1.796   6.114   3.278 -0.8559  0.5555 -0.0508
   43MOL   C56131725   1.885   6.188   3.179  0.1728 -0.2435 -0.1680
   43MOL   C56231726   1.878   6.104   3.050 -0.5894 -0.2824  0.2989
   43MOL   C56331727   1.968   5.977   3.047 -0.3428  0.1022  0.1098
   43MOL   C56431728   2.008   5.921   2.906  0.6037  0.2314 -0.0613
   43MOL   C56531729   2.120   6.010   2.840 -0.1110  0.1587  0.2253
   43MOL   C56631730   2.172   5.942   2.706  0.2926 -0.1730  0.0856
   43MOL   C56731731   2.278   6.020   2.631  0.0940  0.1764  0.0037
   43MOL   C56831732   2.311   5.950   2.495  0.2890  0.6161  0.2390
   43MOL   C56931733   2.418   6.022   2.411  0.4641 -0.1733 -0.7133
   43MOL   N57031734   2.433   5.958   2.278  0.1469  0.8635  0.2608
   43MOL   H57131735   1.847   6.232   3.457 -1.6162  3.7691  0.2270
   43MOL   H57231736   1.710   6.292   3.376  0.3344 -0.6013 -1.5676
   43MOL   H57331737   1.832   6.020   3.321 -3.5824 -0.0778  0.9505
   43MOL   H57431738   1.701   6.083   3.236 -0.8323  0.8193 -0.2966
   43MOL   H57531739   1.986   6.192   3.219  0.6850 -0.0734 -1.4616
   43MOL   H57631740   1.846   6.289   3.165 -1.1030 -0.5089  1.2361
   43MOL   H57731741   1.772   6.095   3.027 -0.6593 -1.0919  0.9231
   43MOL   H57831742   1.916   6.167   2.969  2.0985 -1.9807  0.1861
   43MOL   H57931743   1.925   5.898   3.109 -2.1219  1.0262  0.0828
   43MOL   H58031744   2.066   5.994   3.090  0.1848 -2.0290 -0.1866
   43MOL   H58131745   1.928   5.903   2.834  0.3049  0.6344  0.1734
   43MOL   H58231746   2.048   5.824   2.935 -0.6387 -0.2794 -0.0206
   43MOL   H58331747   2.199   6.029   2.914 -1.4404  0.1098  1.6851
   43MOL   H58431748   2.083   6.109   2.813  2.0801  0.7240 -0.8254
   43MOL   H58531749   2.094   5.924   2.632 -0.9940  3.2936  0.5164
   43MOL   H58631750   2.195   5.837   2.726  0.1705 -0.1452  0.3803
   43MOL   H58731751   2.367   6.041   2.690 -0.6458 -0.1250  1.2350
   43MOL   H58831752   2.228   6.114   2.608  0.8492  0.6462  0.2822
   43MOL   H58931753   2.222   5.935   2.434  0.1562  3.1434 -0.2224
   43MOL   H59031754   2.354   5.851   2.509  1.0946  0.6675 -1.7584
   43MOL   H59131755   2.512   6.016   2.466  0.3531  1.0544 -0.3894
   43MOL   H59231756   2.384   6.124   2.397 -1.0605 -0.5722  0.0069
   43MOL   H59331757   2.360   5.972   2.211 -0.3414 -1.6141  0.2026
   43MOL   C59431758   2.530   5.871   2.243  0.3933  0.3723 -0.1091
   43MOL   O59531759   2.621   5.843   2.320 -0.4102  0.3362  0.6151
   43MOL   C59631760   2.531   5.802   2.103  1.1357  0.1979 -0.1960
   43MOL   C59731761   2.503   5.648   2.112  0.4911 -0.1067 -0.1022
   43MOL   C59831762   2.360   5.599   2.131 -0.0202 -0.4634 -0.7521
   43MOL   C59931763   2.274   5.626   2.002  0.6518  0.1828 -0.2070
   43MOL   C60031764   2.142   5.541   2.011  0.7992  0.1521 -0.3807
   43MOL   C60131765   2.041   5.592   2.105  0.0561  0.2939 -0.3155
   43MOL   C60231766   1.913   5.502   2.116 -0.4635  0.8675 -0.9118
   43MOL   C60331767   1.951   5.362   2.171 -0.6428  0.3466  0.0100
   43MOL   C60431768   1.834   5.298   2.246  0.5874 -0.3129 -0.6819
   43MOL   C60531769   1.871   5.172   2.321 -0.1721  0.0958  0.2609
   43MOL   C60631770   1.743   5.108   2.379 -0.4116  0.7379 -0.5509
   43MOL   N60731771   1.777   5.027   2.495  0.3588 -0.0857  0.0325
   43MOL   H60831772   2.634   5.812   2.070  1.1648 -0.0570 -0.1841
   43MOL   H60931773   2.472   5.850   2.026  1.0908 -1.3846 -1.1722
   43MOL   H61031774   2.556   5.599   2.029  0.5626  0.8726 -0.6385
   43MOL   H61131775   2.565   5.615   2.196  1.6724 -0.5033 -1.1102
   43MOL   H61231776   2.321   5.656   2.216 -0.5798 -1.3669 -0.4028
   43MOL   H61331777   2.370   5.491   2.143 -0.1673 -0.2262  1.6788
   43MOL   H61431778   2.237   5.727   1.983 -4.7180 -1.6763 -0.3769
   43MOL   H61531779   2.330   5.602   1.911  1.0305  1.6269 -0.3698
   43MOL   H61631780   2.162   5.436   2.033  0.5055  0.2501  0.3942
   43MOL   H61731781   2.089   5.554   1.916 -0.4150 -0.4401  0.1932
   43MOL   H61831782   1.999   5.690   2.080 -0.7619  0.4227  1.4822
   43MOL   H61931783   2.071   5.587   2.210 -2.1448 -2.1928  0.2362
   43MOL   H62031784   1.867   5.496   2.017  0.4599  0.3713 -1.3076
   43MOL   H62131785   1.854   5.561   2.187 -0.6860  0.9146 -1.1354
   43MOL   H62231786   2.024   5.385   2.248 -1.9211  1.4987  0.9050
   43MOL   H62331787   1.990   5.292   2.097  1.3960  0.6342  0.7903
   43MOL   H62431788   1.751   5.265   2.184 -0.3112  0.7609 -0.0624
   43MOL   H62531789   1.799   5.376   2.314 -0.0733  0.5216 -1.9562
   43MOL   H62631790   1.954   5.187   2.391 -1.2350 -3.0032  2.3350
   43MOL   H62731791   1.900   5.098   2.246 -1.2995 -0.7860  0.6824
   43MOL   H62831792   1.682   5.059   2.303 -0.0219  0.8475 -0.9379
   43MOL   H62931793   1.683   5.192   2.412 -1.9658 -0.4524 -0.2529
   43MOL   H63031794   1.863   5.040   2.546  1.3130 -0.5499 -1.4201
   43MOL   C63131795   1.698   4.935   2.555 -0.2470 -0.1903  0.6997
   43MOL   O63231796   1.589   4.904   2.513  0.1876  0.0871  0.6499
   43MOL   C63331797   1.756   4.872   2.676 -0.7844  0.6460 -0.7439
   43MOL   C63431798   1.694   4.734   2.710 -0.4346  0.4647  0.4041
   43MOL   C63531799   1.771   4.666   2.822 -0.2760  0.1907 -0.3333
   43MOL   C63631800   1.694   4.546   2.870 -0.0870  0.2743 -0.0655
   43MOL   C63731801   1.754   4.484   2.999  0.0093  0.4866  0.1528
   43MOL   C63831802   1.703   4.339   3.019  0.0047  0.1088 -0.1116
   43MOL   C63931803   1.718   4.275   3.157  0.0213  0.1167  0.2263
   43MOL   C64031804   1.649   4.338   3.276 -0.2643 -0.1243  0.4518
   43MOL   C64131805   1.662   4.266   3.406  0.2188  0.0140 -0.3697
   43MOL   C64231806   1.608   4.348   3.523 -0.4596 -1.0217 -0.1898
   43MOL   C64331807   1.633   4.279   3.663 -0.3656  0.4646 -0.0116
   43MOL   N64431808   1.581   4.353   3.776 -0.2501 -0.3631 -0.0123
   43MOL   H64531809   1.767   4.942   2.758  1.3430 -1.9683  1.2578
   43MOL   H64631810   1.862   4.857   2.655  0.1958  0.8227  3.6019
   43MOL   H64731811   1.600   4.764   2.757  0.1180 -0.8655  2.4033
   43MOL   H64831812   1.684   4.678   2.618 -3.1279 -0.4574  1.2020
   43MOL   H64931813   1.764   4.742   2.900  0.7379  0.3853 -0.4312
   43MOL   H65031814   1.876   4.645   2.806  0.0654  2.8526 -1.9702
   43MOL   H65131815   1.590   4.569   2.896 -0.2320 -0.7799  0.3301
   43MOL   H65231816   1.683   4.475   2.788 -0.1626  1.0823 -0.7584
   43MOL   H65331817   1.728   4.552   3.080 -0.2088 -0.7543  1.1411
   43MOL   H65431818   1.863   4.490   3.001 -0.0087  1.0380 -0.5662
   43MOL   H65531819   1.771   4.277   2.961 -0.4916  1.4094 -2.1543
   43MOL   H65631820   1.599   4.339   2.985 -0.0602  1.0203  0.0760
   43MOL   H65731821   1.825   4.274   3.176  0.4369  0.3642 -2.0304
   43MOL   H65831822   1.677   4.174   3.159  0.1129  0.0573 -0.8462
   43MOL   H65931823   1.542   4.342   3.254 -0.0893 -2.3270 -0.9773
   43MOL   H66031824   1.682   4.441   3.289 -4.0202  1.3756 -1.0203
   43MOL   H66131825   1.767   4.244   3.423  0.2579  0.9921  0.7404
   43MOL   H66231826   1.627   4.163   3.408  2.7724 -0.8750  1.8744
   43MOL   H66331827   1.506   4.382   3.508 -0.6681 -0.0912  2.8665
   43MOL   H66431828   1.679   4.431   3.523  1.3719 -2.5523 -2.1024
   43MOL   H66531829   1.738   4.259   3.687 -0.8627 -0.5933  1.3693
   43MOL   H66631830   1.584   4.182   3.658 -1.3017  1.0178 -2.1997
   43MOL   H66731831   1.519   4.304   3.838  3.1556 -2.2087  2.1136
   43MOL   C66831832   1.629   4.471   3.807 -0.1763  0.2293 -0.0193
   43MOL   O66931833   1.725   4.523   3.748 -0.2306 -0.5035  0.3097
   43MOL   C67031834   1.562   4.531   3.925  0.2266  0.0124  0.6217
   43MOL   C67131835   1.607   4.679   3.951 -0.4615  0.4522 -0.5603
   43MOL   C67231836   1.521   4.731   4.064  0.2777  0.5586 -0.4723
   43MOL   C67331837   1.574   4.871   4.106 -0.1644 -0.3391 -0.3369
   43MOL   C67431838   1.477   4.942   4.204  0.1107  0.0143  0.0853
   43MOL   C67531839   1.502   5.094   4.240  0.4127 -0.0083  0.4104
   43MOL   C67631840   1.423   5.186   4.147  0.3167 -0.1230  0.1512
   43MOL   C67731841   1.430   5.339   4.186  0.2289  0.3656 -0.4150
   43MOL   C67831842   1.371   5.443   4.089 -0.4106  0.1211 -0.4936
   43MOL   C67931843   1.381   5.590   4.150  0.9174 -0.0438  0.1985
   43MOL   C68031844   1.345   5.698   4.060  0.8728 -0.2920  0.1492
   43MOL   N68131845   1.384   5.828   4.109  0.1277  0.0804 -0.3071
   43MOL   H68231846   1.580   4.472   4.015 -0.6495  0.3473  1.0245
   43MOL   H68331847   1.455   4.520   3.909  0.3460 -0.2702  0.0261
   43MOL   H68431848   1.711   4.689   3.979 -1.0316  1.3586  1.3022
   43MOL   H68531849   1.586   4.742   3.864  0.0164  2.5839  0.8505
   43MOL   H68631850   1.513   4.667   4.152 -0.6774  1.5093  0.1476
   43MOL   H68731851   1.415   4.729   4.037  0.8462 -0.6702 -2.7105
   43MOL   H68831852   1.661   4.853   4.169 -0.8520  0.4746  0.8840
   43MOL   H68931853   1.591   4.931   4.016 -0.7505  0.7314  0.2467
   43MOL   H69031854   1.482   4.883   4.296 -0.4280 -1.2878 -0.6969
   43MOL   H69131855   1.374   4.936   4.168  0.0370  0.0874  0.2819
   43MOL   H69231856   1.607   5.123   4.248  0.1419  0.3961  2.8759
   43MOL   H69331857   1.460   5.107   4.340 -0.9939  0.3022 -0.2081
   43MOL   H69431858   1.320   5.149   4.150 -0.2973  1.5363 -0.2366
   43MOL   H69531859   1.467   5.166   4.049  3.0957  3.6535  0.5336
   43MOL   H69631860   1.529   5.370   4.219  0.6049 -0.4394 -0.7632
   43MOL   H69731861   1.368   5.348   4.275 -0.1263 -1.9405 -0.3763
   43MOL   H69831862   1.269   5.421   4.059  0.0149 -1.5157 -0.7666
   43MOL   H69931863   1.440   5.449   4.005  0.1040  3.2069  0.0551
   43MOL   H70031864   1.482   5.604   4.189  1.0471  0.7617 -0.4234
   43MOL   H70131865   1.314   5.590   4.236  0.5726  1.9679 -0.0527
   43MOL   H70231866   1.238   5.688   4.041  1.0210 -1.9060  0.1289
   43MOL   H70331867   1.396   5.696   3.963 -0.6930 -0.5503 -0.6864
   43MOL   H70431868   1.483   5.848   4.112 -0.0826  2.1157 -3.7821
   43MOL   C70531869   1.310   5.920   4.162  0.4790 -0.4968 -0.1381
   43MOL   O70631870   1.357   6.024   4.205  0.3503  0.5544  0.3065
   43MOL   C70731871   1.159   5.901   4.174  0.4620 -0.4399  0.5664
   43MOL   C70831872   1.069   5.938   4.055 -0.2066 -0.1840 -0.6602
   43MOL   C70931873   1.027   6.088   4.062  0.2578 -0.2006  0.8632
   43MOL   C71031874   0.938   6.113   3.938 -0.1730 -0.3528  0.5097
   43MOL   C71131875   1.012   6.120   3.798 -0.0203  0.2824 -0.0447
   43MOL   C71231876   0.938   6.199   3.683  0.4011  0.1095 -0.3708
   43MOL   C71331877   1.030   6.216   3.561  0.4098  0.3848  0.1235
   43MOL   C71431878   0.965   6.306   3.462  0.0919 -1.0220 -0.4347
   43MOL   C71531879   0.857   6.241   3.382  0.6851  0.2062  0.4615
   43MOL   C71631880   0.900   6.113   3.317 -0.0364  0.3776  0.2268
   43MOL   C71731881   0.798   6.068   3.206 -0.6553 -0.1402 -0.4518
   43MOL   N71831882   0.861   5.961   3.126  0.0516 -0.1924  0.3624
   43MOL   H71931883   1.120   5.944   4.266 -1.4618 -1.5532  0.2993
   43MOL   H72031884   1.147   5.793   4.190 -3.8847  0.1687  2.0961
   43MOL   H72131885   1.130   5.929   3.966 -1.4816 -0.7185 -1.4910
   43MOL   H72231886   0.982   5.872   4.062 -0.1980 -0.1712 -0.4058
   43MOL   H72331887   1.113   6.156   4.063 -0.4466  0.7355 -0.4783
   43MOL   H72431888   0.967   6.099   4.153 -0.6749 -1.0627  0.3634
   43MOL   H72531889   0.866   6.032   3.929 -1.0664  0.5140 -0.3558
   43MOL   H72631890   0.894   6.210   3.963  0.6459 -0.2604  1.6329
   43MOL   H72731891   1.019   6.018   3.759 -0.1697  1.5283 -3.5574
   43MOL   H72831892   1.108   6.167   3.819 -0.3567 -0.3859  3.1563
   43MOL   H72931893   0.902   6.293   3.725 -2.3303 -0.6616 -0.8811
   43MOL   H73031894   0.859   6.131   3.651  0.6183 -0.4785  0.3196
   43MOL   H73131895   1.057   6.120   3.518  1.7642  0.8514 -0.0856
   43MOL   H73231896   1.127   6.252   3.595 -0.7709  0.6262  3.3872
   43MOL   H73331897   1.039   6.335   3.388  0.6504  1.2555  0.9797
   43MOL   H73431898   0.942   6.404   3.503 -0.3101 -0.9144 -0.9017
   43MOL   H73531899   0.836   6.319   3.309 -0.4585 -1.1834 -0.7334
   43MOL   H73631900   0.763   6.232   3.435  0.2132  1.1704 -0.1898
   43MOL   H73731901   0.901   6.040   3.397  1.3881  1.6758  1.4215
   43MOL   H73831902   0.997   6.128   3.268  0.4666 -2.4201  0.2777
   43MOL   H73931903   0.787   6.154   3.139  2.2044 -1.5205 -2.8030
   43MOL   H74031904   0.706   6.027   3.248  0.9727 -2.0889  1.2914
   43MOL   H74131905   0.953   5.997   3.105 -0.5974  1.5159  0.4012
   43MOL   H74231906   0.874   5.890   3.197  1.2647 -0.9181 -0.5797
   44MOL     C131907   1.885   1.079   2.337 -0.2895  0.5777  0.0326
   44MOL     O231908   1.780   1.019   2.327 -0.4297 -0.0035 -0.3036
   44MOL     C331909   1.886   1.234   2.358 -0.3552 -0.9447  0.1645
   44MOL     C431910   1.752   1.300   2.377 -0.7849 -1.0096 -0.0504
   44MOL     C531911   1.660   1.302   2.253  0.1497  0.0488 -0.2556
   44MOL     C631912   1.527   1.362   2.291 -0.0496 -0.0084  0.1035
   44MOL     C731913   1.429   1.353   2.174 -0.5618 -0.5223  0.5728
   44MOL     C831914   1.289   1.412   2.220 -0.5929 -0.0078  0.6754
   44MOL     C931915   1.276   1.562   2.232  0.7069 -0.1808  0.1389
   44MOL    C1031916   1.291   1.639   2.095 -0.2761 -0.1045 -0.3006
   44MOL    C1131917   1.273   1.789   2.108 -0.6295 -0.2090 -0.2630
   44MOL    C1231918   1.303   1.876   1.987 -0.3205 -0.4342  0.3480
   44MOL    C1331919   1.323   2.024   2.028  0.6851  0.1624 -0.7088
   44MOL    N1431920   1.348   2.109   1.910  0.0602 -0.5047 -0.7105
   44MOL    H1531921   1.936   1.273   2.269  1.0697 -1.4688  0.7159
   44MOL    H1631922   1.947   1.263   2.443 -0.6820  3.6947 -1.0462
   44MOL    H1731923   1.704   1.257   2.464 -0.8541 -0.9881 -0.0775
   44MOL    H1831924   1.768   1.407   2.391 -0.0530 -0.8284 -2.1568
   44MOL    H1931925   1.646   1.201   2.215 -1.7290  0.6128 -1.1368
   44MOL    H2031926   1.707   1.370   2.182  2.1639 -1.2864 -0.2721
   44MOL    H2131927   1.481   1.299   2.367 -1.9584  0.0892 -0.9162
   44MOL    H2231928   1.542   1.467   2.315 -1.0909 -0.1742  1.5246
   44MOL    H2331929   1.427   1.247   2.147  2.7593 -0.2694 -0.9103
   44MOL    H2431930   1.463   1.404   2.084  0.1319  0.2019  1.2359
   44MOL    H2531931   1.263   1.371   2.318 -1.8709 -1.9164 -0.4286
   44MOL    H2631932   1.212   1.376   2.152  1.1935 -2.2665 -0.2115
   44MOL    H2731933   1.355   1.597   2.298  0.0410 -1.6647  1.7483
   44MOL    H2831934   1.191   1.599   2.289  1.7222  1.6192  0.5131
   44MOL    H2931935   1.217   1.604   2.024 -0.6261 -1.7562  0.8305
   44MOL    H3031936   1.387   1.617   2.047 -0.6411 -0.2118 -0.9770
   44MOL    H3131937   1.334   1.815   2.195  1.2388  2.2001 -2.2138
   44MOL    H3231938   1.168   1.815   2.125  0.0503  1.6480  1.2740
   44MOL    H3331939   1.220   1.866   1.918 -1.1396 -2.0206  1.5197
   44MOL    H3431940   1.393   1.844   1.934 -1.3408 -1.5096 -0.7462
   44MOL    H3531941   1.406   2.039   2.097  2.3649  0.9064 -2.8252
   44MOL    H3631942   1.234   2.053   2.084  1.5194 -0.4788  0.9838
   44MOL    H3731943   1.389   2.074   1.825  0.8593 -0.3026 -0.4125
   44MOL    H3831944   1.986   1.038   2.334  0.4593  2.4389 -1.3802
   44MOL    C3931945   1.322   2.237   1.909  0.3905 -0.1099 -0.5097
   44MOL    O4031946   1.267   2.302   2.002  0.4832 -0.0248  0.0498
   44MOL    C4131947   1.346   2.305   1.773 -0.2953 -0.2696  0.0819
   44MOL    C4231948   1.221   2.301   1.678  0.5815 -0.1099 -0.4560
   44MOL    C4331949   1.199   2.165   1.622  0.7421 -0.1967 -0.1232
   44MOL    C4431950   1.078   2.170   1.524 -0.3646  0.3188 -1.4092
   44MOL    C4531951   1.115   2.236   1.394 -0.5021 -0.4351  0.0509
   44MOL    C4631952   1.017   2.220   1.283  0.4028  0.0659 -0.2349
   44MOL    C4731953   0.966   2.081   1.252 -0.1369  0.9457  0.0492
   44MOL    C4831954   0.876   2.081   1.125  0.0591  0.1300 -0.2367
   44MOL    C4931955   0.871   1.937   1.068  0.9462 -0.1028  0.3955
   44MOL    C5031956   0.760   1.918   0.957 -0.4075  0.0602 -0.1024
   44MOL    C5131957   0.751   1.773   0.910 -0.0006  0.8781  0.2278
   44MOL    N5231958   0.878   1.735   0.845  0.5738  0.3938 -0.0528
   44MOL    H5331959   1.425   2.248   1.725  1.5645  1.7446  0.6650
   44MOL    H5431960   1.396   2.401   1.786  3.2794 -2.2226  1.3938
   44MOL    H5531961   1.133   2.349   1.721 -0.3091 -0.4621 -1.8727
   44MOL    H5631962   1.240   2.355   1.585 -1.1562  2.4520  0.6083
   44MOL    H5731963   1.179   2.096   1.704  1.1710 -1.0767 -0.7492
   44MOL    H5831964   1.291   2.124   1.579  2.3905  0.6544  2.5109
   44MOL    H5931965   1.050   2.067   1.504 -2.1273  0.4149  0.3396
   44MOL    H6031966   0.991   2.212   1.576  0.6130  1.6559 -0.8299
   44MOL    H6131967   1.208   2.192   1.356 -0.0028  0.8246 -0.2227
   44MOL    H6231968   1.126   2.344   1.407 -2.0524 -0.6463  3.5745
   44MOL    H6331969   1.058   2.277   1.199  0.0660 -0.8731 -1.0511
   44MOL    H6431970   0.931   2.286   1.298  0.7584  0.6450 -0.7064
   44MOL    H6531971   0.917   2.046   1.343 -0.7599 -0.4970 -0.8353
   44MOL    H6631972   1.052   2.015   1.242 -2.2494 -1.7302 -1.0777
   44MOL    H6731973   0.907   2.144   1.041 -0.8239 -0.8425 -1.3084
   44MOL    H6831974   0.776   2.118   1.145 -0.5173 -1.4190 -0.2239
   44MOL    H6931975   0.843   1.867   1.146  2.0865 -0.5996  0.3652
   44MOL    H7031976   0.974   1.917   1.039  0.9713  0.3619  0.1677
   44MOL    H7131977   0.782   1.980   0.870  0.1374  0.3953  0.2741
   44MOL    H7231978   0.674   1.964   1.006  0.5453  1.3730  0.3749
   44MOL    H7331979   0.675   1.753   0.834  1.8428 -0.4248 -1.3414
   44MOL    H7431980   0.724   1.717   0.999  0.9197 -0.3724 -0.2591
   44MOL    H7531981   0.958   1.717   0.904 -0.3512  0.1654  1.1253
   44MOL    C7631982   0.892   1.714   0.714 -0.0077 -0.6688 -0.3300
   44MOL    O7731983   0.794   1.717   0.636  0.4227  0.0145 -0.7035
   44MOL    C7831984   1.023   1.656   0.661 -0.5738  0.1331 -0.1791
   44MOL    C7931985   1.117   1.763   0.610 -0.1370  0.2212 -0.0216
   44MOL    C8031986   1.187   1.837   0.720  0.3198  0.6276  0.1029
   44MOL    C8131987   1.214   1.988   0.704 -0.6367  0.7459 -0.1638
   44MOL    C8231988   1.233   2.081   0.827 -0.0511  0.6554 -0.1861
   44MOL    C8331989   1.339   2.028   0.926  0.1483  0.0294 -0.0299
   44MOL    C8431990   1.373   2.140   1.010 -0.3428  0.0277 -0.3623
   44MOL    C8531991   1.499   2.099   1.097  0.5905  0.0972  0.0700
   44MOL    C8631992   1.536   2.219   1.188 -0.3759  0.1846 -0.4980
   44MOL    C8731993   1.639   2.177   1.305  0.0687  0.1776  0.2319
   44MOL    C8831994   1.562   2.099   1.410  0.3115 -0.4787 -0.3700
   44MOL    N8931995   1.650   2.056   1.521 -0.1773  0.8306  0.4556
   44MOL    H9031996   0.997   1.584   0.583  0.3298 -0.4151  0.0175
   44MOL    H9131997   1.076   1.593   0.733  3.2006  2.4693 -0.7775
   44MOL    H9231998   1.197   1.725   0.546  0.1852  0.1771  0.4026
   44MOL    H9331999   1.067   1.833   0.543 -0.1218  1.3326  1.1186
   44MOL    H9432000   1.284   1.791   0.738  0.3075  0.2434 -0.7776
   44MOL    H9532001   1.146   1.831   0.821  1.3518 -0.6281  0.4662
   44MOL    H9632002   1.296   2.018   0.638 -0.8254 -0.8049 -1.1229
   44MOL    H9732003   1.132   2.029   0.646 -1.9750 -0.0253  1.1544
   44MOL    H9832004   1.130   2.103   0.856 -0.0972  0.2115 -0.0134
   44MOL    H9932005   1.273   2.174   0.787 -0.3543  0.7160 -0.3496
   44MOL   H10032006   1.428   1.993   0.874  0.8918  2.0985 -0.1672
   44MOL   H10132007   1.293   1.948   0.985  2.3535 -0.8165  0.5795
   44MOL   H10232008   1.285   2.163   1.070 -0.2243 -0.5922  0.0602
   44MOL   H10332009   1.404   2.228   0.953 -2.8010  2.0941  1.3785
   44MOL   H10432010   1.584   2.069   1.036 -1.7076 -4.0623 -1.2500
   44MOL   H10532011   1.477   2.009   1.153 -1.8579  0.8637  0.3961
   44MOL   H10632012   1.455   2.272   1.238 -1.1718 -1.2339 -0.2475
   44MOL   H10732013   1.594   2.296   1.137  1.7838 -0.9938  0.1175
   44MOL   H10832014   1.680   2.263   1.359  2.3057 -0.0953 -0.9717
   44MOL   H10932015   1.722   2.114   1.274 -1.4077 -3.0038  2.5079
   44MOL   H11032016   1.519   2.011   1.362 -0.8770 -0.1863  0.1223
   44MOL   H11132017   1.471   2.148   1.445 -0.6620 -2.4907 -0.0066
   44MOL   H11232018   1.748   2.047   1.497 -0.0722  1.8621  0.4991
   44MOL   C11332019   1.604   2.012   1.639  1.0497  0.5123 -0.2652
   44MOL   O11432020   1.481   2.018   1.659  0.0843  0.3260 -0.0465
   44MOL   C11532021   1.700   1.951   1.741 -0.9044 -0.1443  0.3718
   44MOL   C11632022   1.681   1.998   1.885  0.1600  0.1585  0.1586
   44MOL   C11732023   1.724   2.146   1.899  0.3747  0.3639  0.1487
   44MOL   C11832024   1.712   2.196   2.042  0.0039 -0.3186 -0.2737
   44MOL   C11932025   1.723   2.349   2.049 -0.4411 -0.8625  0.9874
   44MOL   C12032026   1.863   2.409   2.012  0.7182 -0.1071 -0.6433
   44MOL   C12132027   1.966   2.395   2.126 -0.5256  0.2952 -0.7291
   44MOL   C12232028   2.104   2.442   2.090 -0.7157  0.5109 -0.9661
   44MOL   C12332029   2.187   2.325   2.037  0.3059  0.5370 -0.8299
   44MOL   C12432030   2.329   2.368   1.975 -0.4937  0.5992 -0.3130
   44MOL   C12532031   2.424   2.258   1.929 -0.5737  0.0729  0.5010
   44MOL   N12632032   2.512   2.307   1.829  0.4200  0.2353 -0.1383
   44MOL   H12732033   1.802   1.966   1.706 -1.2777 -0.4533 -0.8615
   44MOL   H12832034   1.694   1.842   1.745 -1.2203 -0.1123  0.7106
   44MOL   H12932035   1.578   1.984   1.919 -0.8368  1.9951 -2.0347
   44MOL   H13032036   1.744   1.934   1.947  0.9985 -0.3103 -1.1475
   44MOL   H13132037   1.655   2.203   1.837  1.6178  1.5751 -0.1487
   44MOL   H13232038   1.827   2.147   1.861  0.1593  0.6001 -0.4268
   44MOL   H13332039   1.621   2.160   2.090  0.0229  2.3498  1.8277
   44MOL   H13432040   1.786   2.154   2.111 -1.0546 -0.7330  0.6188
   44MOL   H13532041   1.685   2.372   2.149 -0.8521  0.5822  0.5187
   44MOL   H13632042   1.651   2.391   1.979  1.4460 -1.1302 -1.1655
   44MOL   H13732043   1.860   2.514   1.982  0.1596 -0.7110 -2.7414
   44MOL   H13832044   1.889   2.362   1.917  0.7493 -0.9059 -0.2452
   44MOL   H13932045   1.967   2.291   2.159  0.9360  0.3890 -0.4320
   44MOL   H14032046   1.939   2.455   2.212 -1.1220 -1.1753  0.1312
   44MOL   H14132047   2.151   2.473   2.184 -0.5117 -3.2165  0.2362
   44MOL   H14232048   2.103   2.526   2.021 -0.1702  0.9949 -0.3924
   44MOL   H14332049   2.145   2.261   1.960  0.7080  2.7599 -2.9682
   44MOL   H14432050   2.212   2.254   2.116  1.1556 -0.1221 -1.6758
   44MOL   H14532051   2.389   2.432   2.039 -1.3718 -1.0686  2.2932
   44MOL   H14632052   2.303   2.432   1.891 -3.0597  0.1001  0.0548
   44MOL   H14732053   2.362   2.172   1.903  1.6290 -1.6159  0.6337
   44MOL   H14832054   2.475   2.205   2.010  3.0612  0.7040 -1.2475
   44MOL   H14932055   2.493   2.277   1.734  2.8918 -1.1738 -0.2278
   44MOL   C15032056   2.631   2.358   1.860  0.1373  0.6816 -0.1344
   44MOL   O15132057   2.653   2.386   1.975  0.1585 -0.3556  0.3244
   44MOL   C15232058   2.736   2.362   1.747 -0.1714 -0.1329 -0.4734
   44MOL   C15332059   2.879   2.405   1.786 -0.1021 -0.4933  0.1461
   44MOL   C15432060   2.945   2.305   1.877 -0.2146 -0.1705 -0.0968
   44MOL   C15532061   3.081   2.352   1.906  0.3390  0.1787  0.0794
   44MOL   C15632062   3.145   2.293   2.038 -0.0968 -0.1131 -0.4810
   44MOL   C15732063   3.190   2.150   2.017  0.2924  0.3671 -0.5602
   44MOL   C15832064   3.308   2.139   1.926  0.3988 -0.9946  0.2047
   44MOL   C15932065   3.356   1.987   1.911 -0.7624 -0.7112  0.3135
   44MOL   C16032066   3.459   1.971   1.803  0.4674 -0.3012  0.3317
   44MOL   C16132067   3.520   1.831   1.798 -0.6387 -0.0902 -1.0728
   44MOL   C16232068   3.627   1.817   1.685 -0.1599 -0.0260 -0.3195
   44MOL   N16332069   3.738   1.910   1.699 -0.4177  0.4656  0.3155
   44MOL   H16432070   2.693   2.432   1.676  0.2984  2.1831  1.4550
   44MOL   H16532071   2.733   2.261   1.708 -2.5358 -0.5834  0.7722
   44MOL   H16632072   2.942   2.409   1.697  0.2164 -0.5400  0.3686
   44MOL   H16732073   2.876   2.507   1.826 -0.3413 -1.0110  1.4631
   44MOL   H16832074   2.960   2.209   1.829  1.6445 -0.8812  1.8593
   44MOL   H16932075   2.890   2.286   1.969 -0.1312  0.3850  0.0727
   44MOL   H17032076   3.135   2.338   1.813  0.9693  0.3222  0.4239
   44MOL   H17132077   3.079   2.460   1.922  0.1284  0.5618 -2.3334
   44MOL   H17232078   3.079   2.305   2.124  1.3934 -0.4343  0.7234
   44MOL   H17332079   3.231   2.355   2.062 -2.5964  3.3749 -0.2567
   44MOL   H17432080   3.105   2.096   1.975 -0.9790  0.1594  2.1964
   44MOL   H17532081   3.210   2.103   2.113 -1.9592 -0.1597 -0.3026
   44MOL   H17632082   3.393   2.185   1.976 -0.4746  2.1762 -1.1118
   44MOL   H17732083   3.294   2.182   1.827  0.2546 -0.7331  0.3388
   44MOL   H17832084   3.274   1.916   1.898 -0.6025 -0.8463  0.0284
   44MOL   H17932085   3.392   1.955   2.009  0.3448 -0.3925  0.0272
   44MOL   H18032086   3.540   2.043   1.817  0.3259 -0.0452 -0.1260
   44MOL   H18132087   3.433   2.007   1.703 -0.3243 -1.3181  0.1587
   44MOL   H18232088   3.452   1.746   1.788 -0.0730 -0.4027 -2.3191
   44MOL   H18332089   3.573   1.817   1.893 -0.0592  2.3042 -1.0163
   44MOL   H18432090   3.573   1.813   1.591 -2.1052  1.2491  0.7006
   44MOL   H18532091   3.668   1.716   1.681  0.7706  0.4049 -2.0334
   44MOL   H18632092   3.804   1.892   1.773 -1.5110  1.2893  1.5199
   44MOL   C18732093   3.766   1.996   1.595  0.1993  0.0103  0.3962
   44MOL   O18832094   3.685   2.027   1.505  0.0115  0.6265  0.4034
   44MOL   C18932095   3.907   2.062   1.601 -0.1677  0.3343  0.4446
   44MOL   C19032096   3.999   2.029   1.486  0.4444 -0.1551 -0.2632
   44MOL   C19132097   4.095   1.921   1.520  0.3647 -0.4320 -0.1612
   44MOL   C19232098   4.195   1.875   1.415  0.5696 -0.5029  0.6489
   44MOL   C19332099   4.295   1.991   1.394 -0.6881  0.0159  1.0673
   44MOL   C19432100   4.402   1.963   1.286  0.7215  0.3387 -0.0033
   44MOL   C19532101   4.509   2.074   1.282  0.2809  0.2474  0.0925
   44MOL   C19632102   4.611   2.059   1.165 -0.5933 -0.1287  0.7289
   44MOL   C19732103   4.649   1.914   1.135  0.1168  0.4109  0.3002
   44MOL   C19832104   4.779   1.912   1.043 -0.5378  0.4238  0.2197
   44MOL   C19932105   4.797   1.765   0.998  0.4655  0.1107  0.4287
   44MOL   N20032106   4.899   1.747   0.897  0.1626 -0.1702 -0.1532
   44MOL   H20132107   3.949   2.029   1.696  0.1861 -0.6767 -0.0595
   44MOL   H20232108   3.892   2.170   1.611  0.9862  0.5842 -0.4184
   44MOL   H20332109   3.939   2.004   1.399  0.2524  0.3218 -0.2724
   44MOL   H20432110   4.059   2.119   1.471  0.9981 -0.6426 -1.0407
   44MOL   H20532111   4.036   1.835   1.551 -2.9991  0.3207 -4.0359
   44MOL   H20632112   4.151   1.962   1.604  0.4246  1.9520 -1.3107
   44MOL   H20732113   4.245   1.786   1.454  2.4131  0.1330 -0.2226
   44MOL   H20832114   4.141   1.836   1.329  1.7867 -1.1038  0.1446
   44MOL   H20932115   4.344   2.022   1.486 -2.1959 -0.5260  2.0810
   44MOL   H21032116   4.231   2.070   1.355 -1.1508 -0.5209  0.7172
   44MOL   H21132117   4.351   1.951   1.190 -0.6560 -0.8420  0.8515
   44MOL   H21232118   4.448   1.867   1.307 -0.2519  0.0394  0.8018
   44MOL   H21332119   4.561   2.062   1.377 -0.9927 -0.8292  0.6802
   44MOL   H21432120   4.464   2.173   1.282  1.7669  0.9339 -0.4949
   44MOL   H21532121   4.692   2.125   1.196 -0.5504  0.3979 -0.5102
   44MOL   H21632122   4.557   2.109   1.086 -0.5166  0.7822  1.2491
   44MOL   H21732123   4.566   1.850   1.108 -0.4419  1.8895 -1.6219
   44MOL   H21832124   4.679   1.866   1.228 -1.3299 -0.7585  0.1693
   44MOL   H21932125   4.863   1.943   1.105 -0.6538 -1.8987  1.5902
   44MOL   H22032126   4.763   1.964   0.948 -2.4484  0.4034  0.5124
   44MOL   H22132127   4.701   1.743   0.950  1.6671  0.3325 -2.1722
   44MOL   H22232128   4.803   1.689   1.076 -0.6748  0.8386  1.2358
   44MOL   H22332129   4.863   1.761   0.803 -0.2236 -0.2396 -0.0176
   44MOL   C22432130   5.005   1.669   0.913  0.3185  0.1206  0.1225
   44MOL   O22532131   5.040   1.610   1.017 -0.0217  0.1522  0.1218
   44MOL   C22632132   5.083   1.647   0.784  0.6881 -0.4762 -0.2936
   44MOL   C22732133   5.224   1.594   0.787 -0.3604  0.1663 -0.1987
   44MOL   C22832134   5.340   1.700   0.794 -0.2163  0.1472  1.0628
   44MOL   C22932135   5.324   1.813   0.901  0.6208  0.4190  0.2009
   44MOL   C23032136   5.349   1.765   1.046 -0.2698 -0.3127  0.0755
   44MOL   C23132137   5.347   1.872   1.157  0.4074  0.6671 -0.5599
   44MOL   C23232138   5.199   1.913   1.190  0.6037  0.0426  0.2060
   44MOL   C23332139   5.200   2.021   1.309 -0.7730 -0.2194  0.0738
   44MOL   C23432140   5.066   2.083   1.326  0.2765  0.0780 -0.5794
   44MOL   C23532141   5.036   2.147   1.469  0.0074  0.6230 -0.0494
   44MOL   C23632142   4.903   2.211   1.479 -0.4921  0.3304 -0.2780
   44MOL   N23732143   4.878   2.231   1.619 -0.9778 -0.2143  0.3078
   44MOL   H23832144   5.082   1.718   0.702  0.1347  0.6252  0.6529
   44MOL   H23932145   5.026   1.566   0.739 -1.5319  0.3752  0.9391
   44MOL   H24032146   5.232   1.525   0.871 -3.2737  0.0815  0.0420
   44MOL   H24132147   5.251   1.529   0.704  3.4322  0.2309  0.8737
   44MOL   H24232148   5.359   1.752   0.700  2.0613 -0.4082  1.1913
   44MOL   H24332149   5.431   1.645   0.815 -0.1157  0.0100  0.2717
   44MOL   H24432150   5.395   1.895   0.901  2.8258 -1.4054  2.5811
   44MOL   H24532151   5.226   1.862   0.902 -0.2783 -1.3085 -0.3726
   44MOL   H24632152   5.450   1.724   1.049  0.0081  0.1546 -1.8704
   44MOL   H24732153   5.285   1.680   1.067 -0.4657  0.0611  1.0047
   44MOL   H24832154   5.404   1.960   1.129 -0.1606  1.4241  0.6040
   44MOL   H24932155   5.402   1.829   1.240 -0.3817 -0.8548 -0.7949
   44MOL   H25032156   5.153   1.818   1.220 -1.8147  1.0849 -0.1037
   44MOL   H25132157   5.145   1.959   1.108 -3.2058 -0.4648  2.2885
   44MOL   H25232158   5.272   2.099   1.286 -0.8163 -0.0398  0.5599
   44MOL   H25332159   5.236   1.967   1.396 -2.8709  1.6447  2.1291
   44MOL   H25432160   4.992   2.012   1.288  2.3767 -1.4655 -1.9041
   44MOL   H25532161   5.061   2.155   1.244  1.9164  0.4013 -0.4247
   44MOL   H25632162   5.115   2.221   1.483  1.4993 -0.8870 -0.3261
   44MOL   H25732163   5.048   2.070   1.546 -0.3742 -0.2475 -0.8594
   44MOL   H25832164   4.830   2.142   1.437  0.7686  0.2318 -2.3501
   44MOL   H25932165   4.892   2.304   1.423 -2.1803 -0.9248 -2.0794
   44MOL   H26032166   4.959   2.207   1.676  0.9094  1.4930 -1.5593
   44MOL   C26132167   4.758   2.214   1.670 -0.7679 -0.4631 -0.2595
   44MOL   O26232168   4.654   2.207   1.594 -0.4488  0.0940  0.0883
   44MOL   C26332169   4.745   2.221   1.824  0.2564  0.2728 -0.4670
   44MOL   C26432170   4.777   2.085   1.894  0.5853 -0.2691  0.7457
   44MOL   C26532171   4.798   2.112   2.045 -0.6563  0.2609  0.2468
   44MOL   C26632172   4.817   1.971   2.104 -0.4523 -0.6203 -0.0020
   44MOL   C26732173   4.805   1.960   2.259  0.8246 -0.3118  0.2227
   44MOL   C26832174   4.906   2.047   2.342  0.2890 -0.5735 -0.4608
   44MOL   C26932175   4.893   2.022   2.493 -0.5879  0.3737 -0.0665
   44MOL   C27032176   5.006   2.089   2.574 -0.2191  0.9925 -0.3502
   44MOL   C27132177   4.979   2.092   2.723 -0.1056 -0.0381 -1.0483
   44MOL   C27232178   5.082   2.154   2.804 -0.2251  0.3188  0.2960
   44MOL   C27332179   5.041   2.174   2.958 -0.3546 -0.7137  0.0787
   44MOL   N27432180   4.940   2.285   2.965  0.1712  0.5822 -0.6312
   44MOL   H27532181   4.646   2.260   1.850  1.1578  2.2777  0.0509
   44MOL   H27632182   4.818   2.294   1.858  0.6289  0.5131 -1.7882
   44MOL   H27732183   4.695   2.019   1.865 -0.3487  1.1037  0.2311
   44MOL   H27832184   4.861   2.033   1.848 -1.3151 -3.4761  0.7597
   44MOL   H27932185   4.710   2.164   2.082 -0.8771  1.9017 -2.4988
   44MOL   H28032186   4.882   2.174   2.077 -0.0507 -0.7260  0.5695
   44MOL   H28132187   4.756   1.897   2.053 -1.3579  0.1316 -0.0267
   44MOL   H28232188   4.918   1.938   2.077 -0.6084 -1.0412 -0.0757
   44MOL   H28332189   4.819   1.853   2.274  1.4047 -0.0379  1.6396
   44MOL   H28432190   4.704   1.992   2.284  0.5368 -1.8979  1.1288
   44MOL   H28532191   4.875   2.151   2.333  2.3791  0.2599  1.5166
   44MOL   H28632192   5.010   2.039   2.313  0.0179 -0.4111 -1.4865
   44MOL   H28732193   4.901   1.914   2.504  0.0060  0.1576 -2.3858
   44MOL   H28832194   4.793   2.059   2.514  0.4389  3.0568  0.2111
   44MOL   H28932195   5.015   2.194   2.546 -1.6335  0.7652 -1.7375
   44MOL   H29032196   5.094   2.027   2.559 -1.8004 -1.0960 -1.1842
   44MOL   H29132197   4.970   1.988   2.757  1.5627  0.2104  0.2040
   44MOL   H29232198   4.882   2.136   2.746 -1.1457 -1.9605 -1.6205
   44MOL   H29332199   5.105   2.246   2.751 -1.1174 -0.0553 -0.7882
   44MOL   H29432200   5.170   2.092   2.789 -0.2225  0.7120 -1.4065
   44MOL   H29532201   5.123   2.224   3.009 -0.7168 -0.6735  0.6302
   44MOL   H29632202   5.017   2.079   3.004  2.9300 -1.0160  1.2845
   44MOL   H29732203   4.970   2.376   2.933 -0.6906  0.8602 -0.6585
   44MOL   C29832204   4.808   2.272   2.964  1.1471  0.9064  0.0592
   44MOL   O29932205   4.744   2.184   3.014 -0.0667  0.0291 -0.0208
   44MOL   C30032206   4.733   2.385   2.891 -0.1925 -0.1682 -0.0595
   44MOL   C30132207   4.715   2.366   2.739 -0.2793  0.5403  0.0245
   44MOL   C30232208   4.822   2.420   2.650  0.1521  0.2216 -0.1362
   44MOL   C30332209   4.783   2.408   2.500 -0.1758 -0.2924 -0.9599
   44MOL   C30432210   4.867   2.502   2.405 -0.3900  0.3121 -0.2467
   44MOL   C30532211   4.827   2.502   2.257 -0.5918 -0.0813  0.3178
   44MOL   C30632212   4.682   2.534   2.225  0.5652  0.5079 -0.8486
   44MOL   C30732213   4.663   2.527   2.076 -0.4983  0.5090 -0.3178
   44MOL   C30832214   4.520   2.523   2.022 -0.0784 -0.9097  0.0007
   44MOL   C30932215   4.466   2.667   2.015 -0.6004 -0.0337  0.2894
   44MOL   C31032216   4.343   2.694   1.924 -0.3274 -0.3312 -0.2188
   44MOL   N31132217   4.316   2.841   1.914  0.3328  0.3346  0.2786
   44MOL   H31232218   4.778   2.482   2.913 -1.1873  0.6724 -1.5903
   44MOL   H31332219   4.633   2.394   2.932  0.8190 -2.6866  3.1547
   44MOL   H31432220   4.697   2.259   2.727  0.3053  0.4911 -0.4282
   44MOL   H31532221   4.622   2.412   2.707 -1.3421 -2.1851 -0.9826
   44MOL   H31632222   4.922   2.383   2.672  0.1027  1.2795  2.0405
   44MOL   H31732223   4.826   2.529   2.663  2.7498 -0.0303  1.6563
   44MOL   H31832224   4.767   2.306   2.465 -3.3372  0.0573 -0.6903
   44MOL   H31932225   4.681   2.442   2.482 -0.1770  0.6683  0.7806
   44MOL   H32032226   4.970   2.467   2.405 -0.3878  0.1940 -2.7171
   44MOL   H32132227   4.861   2.604   2.443 -1.3216  0.8800 -1.8615
   44MOL   H32232228   4.856   2.409   2.208  2.6068  0.9353  0.1484
   44MOL   H32332229   4.887   2.573   2.200 -1.3701  1.3710  1.2728
   44MOL   H32432230   4.656   2.628   2.272  2.7946  0.4289  0.6365
   44MOL   H32532231   4.616   2.459   2.269  0.6288  1.0061  0.1093
   44MOL   H32632232   4.708   2.436   2.037  0.7655  1.3253 -0.7727
   44MOL   H32732233   4.721   2.606   2.028 -0.8869 -0.7518 -2.8945
   44MOL   H32832234   4.457   2.447   2.068 -0.3433 -1.5836 -1.4386
   44MOL   H32932235   4.530   2.491   1.918  1.8610  0.3828 -0.2490
   44MOL   H33032236   4.537   2.745   1.989 -0.8474  0.1632  0.2014
   44MOL   H33132237   4.436   2.686   2.118 -0.7967 -2.2516  0.6650
   44MOL   H33232238   4.257   2.637   1.960 -0.2151  0.9277  2.1616
   44MOL   H33332239   4.374   2.677   1.821 -1.2617 -0.2590 -0.5158
   44MOL   H33432240   4.371   2.892   1.847 -0.7634  0.9110 -0.1971
   44MOL   C33532241   4.218   2.903   1.980 -0.1664  0.5840  0.3016
   44MOL   O33632242   4.151   2.843   2.063  0.1088  0.1236 -0.0325
   44MOL   C33732243   4.196   3.051   1.954 -0.0570 -0.7751 -0.0029
   44MOL   C33832244   4.128   3.125   2.069  0.2441 -0.0107 -0.0984
   44MOL   C33932245   4.109   3.270   2.045  0.5250 -0.1075  0.0871
   44MOL   C34032246   4.003   3.321   2.147 -0.9156  0.6155 -0.2240
   44MOL   C34132247   3.973   3.467   2.147 -0.0317 -0.3313  0.1408
   44MOL   C34232248   3.865   3.497   2.253 -0.1174  0.9560  0.2121
   44MOL   C34332249   3.810   3.642   2.252  0.5109  0.1385  0.2805
   44MOL   C34432250   3.674   3.662   2.310  0.6505  0.1794  0.2939
   44MOL   C34532251   3.602   3.792   2.265  0.0057 -0.1325 -0.5081
   44MOL   C34632252   3.454   3.790   2.299  0.1136  0.0663  0.0959
   44MOL   C34732253   3.375   3.909   2.242 -0.6309  0.2621 -0.3427
   44MOL   N34832254   3.237   3.886   2.274  0.1476 -0.1601  0.3102
   44MOL   H34932255   4.151   3.056   1.854 -0.0409 -2.7449 -0.1273
   44MOL   H35032256   4.294   3.093   1.934 -0.9091  0.2983 -2.1643
   44MOL   H35132257   4.031   3.079   2.087  0.6211 -0.7555  0.0755
   44MOL   H35232258   4.182   3.113   2.163 -0.2695 -0.6792  0.1190
   44MOL   H35332259   4.054   3.274   1.951 -1.3391  3.1385  1.1932
   44MOL   H35432260   4.201   3.328   2.042 -0.1592  0.9743 -0.5684
   44MOL   H35532261   3.912   3.263   2.130  0.7548 -2.5033  0.8779
   44MOL   H35632262   4.041   3.294   2.246 -1.6100 -0.4896 -0.2521
   44MOL   H35732263   3.921   3.503   2.058  0.0084 -2.2969 -0.6983
   44MOL   H35832264   4.064   3.526   2.155 -0.9837  1.2247 -0.3695
   44MOL   H35932265   3.903   3.472   2.352  1.9292 -0.9016 -1.0223
   44MOL   H36032266   3.772   3.442   2.236  0.0014  1.3803 -2.0231
   44MOL   H36132267   3.788   3.662   2.147 -1.3412 -0.7256  0.4896
   44MOL   H36232268   3.883   3.714   2.291 -1.1882  1.2930  1.3927
   44MOL   H36332269   3.670   3.647   2.418 -1.3218  0.5120  0.2871
   44MOL   H36432270   3.619   3.574   2.277 -0.1440  1.2133 -1.1841
   44MOL   H36532271   3.612   3.793   2.156 -1.6075 -1.4860 -0.6733
   44MOL   H36632272   3.650   3.885   2.297  0.0474  0.1852 -1.4589
   44MOL   H36732273   3.447   3.793   2.408 -0.2581  0.2273  0.0654
   44MOL   H36832274   3.408   3.701   2.256  1.8603  0.0073 -1.7297
   44MOL   H36932275   3.392   3.917   2.135 -2.5311 -1.2361 -0.7596
   44MOL   H37032276   3.403   4.006   2.284  1.7589  0.0127 -1.2559
   44MOL   H37132277   3.213   3.804   2.328 -1.8298 -1.7525 -2.8252
   44MOL   C37232278   3.151   3.985   2.261  0.3618  0.3976 -0.8576
   44MOL   O37332279   3.187   4.098   2.231 -0.0185 -0.1385 -0.4736
   44MOL   C37432280   3.003   3.957   2.283  0.2748  0.1732 -0.0997
   44MOL   C37532281   2.913   3.969   2.159 -0.6577  0.4410 -0.8196
   44MOL   C37632282   2.764   3.986   2.184 -0.1671 -0.2842  0.2846
   44MOL   C37732283   2.695   4.021   2.053 -0.1251  0.3564 -0.4012
   44MOL   C37832284   2.554   4.086   2.083 -0.1141 -0.5198 -0.0451
   44MOL   C37932285   2.495   4.153   1.952  0.6077  0.3707  0.3895
   44MOL   C38032286   2.451   4.044   1.852  0.2739 -0.0034  0.0730
   44MOL   C38132287   2.363   4.101   1.735 -0.7037  0.8243  0.5301
   44MOL   C38232288   2.320   3.995   1.633  0.0182 -0.5540 -0.0452
   44MOL   C38332289   2.229   4.046   1.522 -0.7086 -0.3154  0.5699
   44MOL   C38432290   2.183   3.942   1.424  0.1608 -0.4936 -0.4144
   44MOL   N38532291   2.298   3.891   1.345 -0.2879  0.1431  0.0095
   44MOL   H38632292   2.963   4.017   2.365 -0.1848 -2.1547  1.4565
   44MOL   H38732293   2.991   3.854   2.318 -2.3653  0.0235 -1.3540
   44MOL   H38832294   2.955   4.059   2.114  0.2764  0.7343  0.5771
   44MOL   H38932295   2.936   3.891   2.087  1.6885 -0.1543  0.5303
   44MOL   H39032296   2.758   4.072   2.250  1.8444 -0.1006  0.2870
   44MOL   H39132297   2.716   3.908   2.242 -1.3310  0.8959  0.9390
   44MOL   H39232298   2.765   4.080   1.995 -0.3227  1.9611  0.9696
   44MOL   H39332299   2.683   3.932   1.990 -0.1870 -1.0193  1.4905
   44MOL   H39432300   2.567   4.163   2.158  0.2986  0.3680 -1.0077
   44MOL   H39532301   2.483   4.012   2.119  0.5222 -2.7866 -3.1879
   44MOL   H39632302   2.568   4.216   1.901  0.3239  0.3563 -0.0456
   44MOL   H39732303   2.418   4.226   1.979  1.8367  2.1313 -0.7262
   44MOL   H39832304   2.380   3.979   1.905 -1.0322  1.0955 -0.3013
   44MOL   H39932305   2.524   3.973   1.811 -0.0466  0.4248 -1.2643
   44MOL   H40032306   2.419   4.179   1.684  1.8342 -1.3194 -0.0889
   44MOL   H40132307   2.280   4.147   1.788 -0.5824 -0.0421  1.5005
   44MOL   H40232308   2.277   3.911   1.689 -0.4131 -0.3452 -0.0618
   44MOL   H40332309   2.413   3.954   1.592 -0.1965  1.1783 -2.3538
   44MOL   H40432310   2.286   4.119   1.464 -0.9669 -0.0528  0.6452
   44MOL   H40532311   2.144   4.095   1.569 -0.5601  0.1811  0.3315
   44MOL   H40632312   2.116   3.984   1.349 -0.3443 -2.4184 -1.0685
   44MOL   H40732313   2.128   3.861   1.472 -0.6079 -0.3634 -1.0740
   44MOL   H40832314   2.341   3.806   1.379  0.8701  1.3916  1.7561
   44MOL   C40932315   2.342   3.944   1.229  0.6435 -0.8802 -0.3324
   44MOL   O41032316   2.300   4.051   1.186 -0.2247  0.2842  0.5048
   44MOL   C41132317   2.455   3.862   1.168 -0.3411  0.3134  0.3752
   44MOL   C41232318   2.472   3.891   1.016  0.4659 -0.3775  0.8037
   44MOL   C41332319   2.358   3.853   0.919  0.1621  0.1155  0.9826
   44MOL   C41432320   2.361   3.706   0.884  0.4751 -0.3133 -0.3158
   44MOL   C41532321   2.245   3.684   0.791 -0.2893 -0.1470 -0.3913
   44MOL   C41632322   2.218   3.537   0.760  0.2799  0.4930  0.6621
   44MOL   C41732323   2.176   3.456   0.884  0.6451 -0.3791 -0.8555
   44MOL   C41832324   2.100   3.326   0.854  0.2417 -0.1278  0.4778
   44MOL   C41932325   2.080   3.247   0.991 -0.3193 -0.3321  0.7863
   44MOL   C42032326   2.006   3.117   0.972 -0.4607 -0.0841  0.3584
   44MOL   C42132327   2.082   3.026   0.869 -0.0549  0.3955  0.1213
   44MOL   N42232328   2.025   2.889   0.853  0.2085 -0.2494 -0.3522
   44MOL   H42332329   2.434   3.756   1.181 -1.0100  0.6398  2.0181
   44MOL   H42432330   2.544   3.881   1.229  0.7809 -3.9408  0.2209
   44MOL   H42532331   2.500   3.996   1.002  0.0602 -0.0505  2.3679
   44MOL   H42632332   2.562   3.837   0.987 -1.2645 -3.2990  0.7500
   44MOL   H42732333   2.371   3.907   0.825 -3.2039 -1.1930 -0.3117
   44MOL   H42832334   2.258   3.883   0.952 -1.2061 -2.2300 -0.9001
   44MOL   H42932335   2.458   3.673   0.846  0.7303  1.1265 -0.9347
   44MOL   H43032336   2.355   3.648   0.976 -0.9718 -2.4132 -1.6960
   44MOL   H43132337   2.250   3.732   0.693  0.4805  1.9906  0.6605
   44MOL   H43232338   2.156   3.725   0.838 -1.1226 -0.6213 -1.5383
   44MOL   H43332339   2.311   3.494   0.721 -0.4334  0.8702 -1.5437
   44MOL   H43432340   2.140   3.535   0.684  1.8057 -2.6759 -0.9296
   44MOL   H43532341   2.111   3.522   0.942 -0.8685 -0.5412 -2.3447
   44MOL   H43632342   2.260   3.444   0.953 -0.0866 -0.9623 -0.0538
   44MOL   H43732343   2.158   3.277   0.776  0.3751  0.7515  0.0253
   44MOL   H43832344   2.001   3.345   0.814  0.0810  0.9539  1.3835
   44MOL   H43932345   2.028   3.312   1.061 -2.6124 -0.0003 -1.1540
   44MOL   H44032346   2.169   3.213   1.044 -1.6233 -2.4574  1.6833
   44MOL   H44132347   1.899   3.123   0.950 -0.2583  0.6767 -0.4657
   44MOL   H44232348   2.017   3.054   1.060 -1.1406 -2.2086 -1.0321
   44MOL   H44332349   2.186   3.014   0.897  0.1517 -1.3128 -1.2781
   44MOL   H44432350   2.068   3.067   0.769 -1.1286  0.6621  0.3709
   44MOL   H44532351   1.936   2.864   0.894 -0.7547  3.2245 -0.1602
   44MOL   C44632352   2.093   2.790   0.786 -1.4727  0.2222  0.4117
   44MOL   O44732353   2.208   2.810   0.740  0.1297  0.5892  0.5257
   44MOL   C44832354   2.025   2.651   0.766 -0.4609  0.0539 -0.3768
   44MOL   C44932355   2.056   2.538   0.874 -0.3266 -0.1019 -0.3112
   44MOL   C45032356   2.002   2.566   1.020 -0.0904 -0.2806  0.9989
   44MOL   C45132357   1.847   2.545   1.032  0.7082 -0.1861  0.4776
   44MOL   C45232358   1.794   2.567   1.172 -0.4335 -0.1542 -0.1391
   44MOL   C45332359   1.780   2.714   1.219 -0.5624 -0.6767 -0.6429
   44MOL   C45432360   1.710   2.812   1.125 -0.0763 -0.2057  0.5140
   44MOL   C45532361   1.699   2.959   1.171 -0.1866  0.1417  0.2557
   44MOL   C45632362   1.624   3.056   1.088  0.3042  0.6184 -0.4497
   44MOL   C45732363   1.667   3.198   1.122  0.1697  0.6134 -0.1663
   44MOL   C45832364   1.614   3.305   1.018 -0.0110  0.1459 -0.2772
   44MOL   N45932365   1.610   3.438   1.075  0.1868 -0.6085  0.0895
   44MOL   H46032366   2.077   2.613   0.678  1.1280  0.9741  0.1389
   44MOL   H46132367   1.921   2.667   0.739 -0.9642 -0.5720  1.1568
   44MOL   H46232368   2.021   2.440   0.839  0.6037 -1.3598  2.1370
   44MOL   H46332369   2.164   2.520   0.869 -0.2052 -0.5597  3.1638
   44MOL   H46432370   2.039   2.664   1.052  1.9405 -0.0962 -1.7692
   44MOL   H46532371   2.045   2.487   1.082  0.1638 -2.5624 -1.9678
   44MOL   H46632372   1.794   2.599   0.952  0.1916 -1.5108 -0.0864
   44MOL   H46732373   1.835   2.442   0.998 -1.7977  0.2057  0.1052
   44MOL   H46832374   1.858   2.519   1.246  0.7566 -0.0946 -1.1112
   44MOL   H46932375   1.694   2.524   1.176  0.1038 -1.3220  1.5468
   44MOL   H47032376   1.873   2.766   1.244  0.2951 -2.9241  0.9604
   44MOL   H47132377   1.724   2.705   1.313  0.8378  2.1871  0.5359
   44MOL   H47232378   1.608   2.775   1.120  0.2798 -0.9422 -1.7936
   44MOL   H47332379   1.743   2.808   1.021  0.3262  1.2094  0.5805
   44MOL   H47432380   1.802   2.993   1.178 -0.3302  0.9381 -1.4507
   44MOL   H47532381   1.660   2.961   1.273  0.4919  2.3068  0.4956
   44MOL   H47632382   1.520   3.052   1.119  0.9736  3.9185  2.6888
   44MOL   H47732383   1.643   3.052   0.981 -0.8496  1.0152 -0.6720
   44MOL   H47832384   1.776   3.203   1.125  0.1308  1.0768  0.6264
   44MOL   H47932385   1.640   3.214   1.226  2.2392  1.5484  0.2499
   44MOL   H48032386   1.516   3.271   0.982 -0.3666  0.1529  0.6617
   44MOL   H48132387   1.687   3.299   0.937  0.7840  0.6968  0.4015
   44MOL   H48232388   1.665   3.454   1.158 -1.9217  1.0445  1.2115
   44MOL   C48332389   1.538   3.536   1.017 -0.3308  0.3224 -0.7313
   44MOL   O48432390   1.454   3.522   0.925 -0.3801 -0.1790  0.9656
   44MOL   C48532391   1.553   3.680   1.071 -0.1629  0.0908 -0.2943
   44MOL   C48632392   1.528   3.790   0.968  0.7787  0.1802  0.9523
   44MOL   C48732393   1.375   3.824   0.944 -0.7565  0.3657 -0.2871
   44MOL   C48832394   1.365   3.946   0.859 -0.0908 -0.4641  0.4277
   44MOL   C48932395   1.384   4.072   0.949  0.0857 -0.4097  0.4395
   44MOL   C49032396   1.325   4.198   0.881  1.0559  0.5097 -0.0867
   44MOL   C49132397   1.344   4.318   0.974 -0.4272 -0.2432  0.0945
   44MOL   C49232398   1.266   4.452   0.934  0.2836 -0.5189  0.1216
   44MOL   C49332399   1.256   4.472   0.782  0.1733  0.1866 -0.1267
   44MOL   C49432400   1.184   4.606   0.752  0.3213 -0.8525  0.3394
   44MOL   C49532401   1.121   4.619   0.614  0.4628  0.0259 -0.1252
   44MOL   N49632402   1.219   4.623   0.512 -0.5529  0.4756  0.5250
   44MOL   H49732403   1.655   3.678   1.109  0.0189 -4.0779 -0.7108
   44MOL   H49832404   1.499   3.702   1.163  2.6847  1.0092  1.2296
   44MOL   H49932405   1.585   3.876   1.002 -1.3230  2.5369 -1.3252
   44MOL   H50032406   1.560   3.749   0.872 -0.6094  1.2121  0.0407
   44MOL   H50132407   1.319   3.840   1.036  0.3124 -1.4793  0.7339
   44MOL   H50232408   1.312   3.750   0.894 -1.5997  0.5841  0.4324
   44MOL   H50332409   1.433   3.941   0.774 -0.4264 -2.7811  0.2438
   44MOL   H50432410   1.267   3.951   0.810  0.3198  2.0952 -0.1796
   44MOL   H50532411   1.491   4.087   0.964  0.0974  0.3323 -0.3531
   44MOL   H50632412   1.336   4.050   1.044  0.4066  0.6770  0.8634
   44MOL   H50732413   1.218   4.178   0.880  1.1749 -0.1979  0.3663
   44MOL   H50832414   1.376   4.213   0.786 -0.4504 -1.2909 -1.2156
   44MOL   H50932415   1.450   4.343   0.965 -0.7591  1.7454  1.4117
   44MOL   H51032416   1.322   4.280   1.073 -1.8033  1.1592  0.3440
   44MOL   H51132417   1.328   4.538   0.962  2.1942 -1.5730 -0.7558
   44MOL   H51232418   1.164   4.459   0.970 -0.3329  0.0511 -1.6769
   44MOL   H51332419   1.187   4.397   0.746 -1.6320  3.0372 -2.8550
   44MOL   H51432420   1.349   4.460   0.726  0.1803  0.3333 -0.1468
   44MOL   H51532421   1.249   4.693   0.763  0.7878 -0.8503 -2.2081
   44MOL   H51632422   1.095   4.618   0.814  0.5922 -2.4117  1.0531
   44MOL   H51732423   1.064   4.712   0.614 -0.7220 -0.6696  1.2704
   44MOL   H51832424   1.050   4.538   0.599 -2.3192  2.2709  0.5425
   44MOL   H51932425   1.315   4.625   0.544  0.2929 -0.5949 -1.8395
   44MOL   C52032426   1.189   4.610   0.387  0.6442  0.2106  0.6267
   44MOL   O52132427   1.073   4.591   0.344  0.2035  0.1914 -0.0727
   44MOL   C52232428   1.304   4.619   0.290  0.0074 -0.4814 -0.2882
   44MOL   C52332429   1.350   4.481   0.233 -0.8971  0.1030  0.1920
   44MOL   C52432430   1.455   4.407   0.312  0.3651 -0.3732  0.2259
   44MOL   C52532431   1.519   4.284   0.236  0.2796 -0.6995  0.2869
   44MOL   C52632432   1.639   4.210   0.294 -0.2061  0.6270  0.6550
   44MOL   C52732433   1.729   4.146   0.186 -0.8400  0.0774 -0.3201
   44MOL   C52832434   1.835   4.248   0.135  0.7328 -0.4269 -1.0048
   44MOL   C52932435   1.875   4.207   7.691  0.4238 -0.3660  0.2838
   44MOL   C53032436   1.983   4.309   7.644  0.0767 -0.6017  0.5214
   44MOL   C53132437   2.126   4.263   7.670 -0.4265 -0.1280  0.8368
   44MOL   C53232438   2.219   4.385   7.651  1.2274 -0.1709  0.2088
   44MOL   N53332439   2.354   4.346   7.651  0.0400 -0.6810  0.3981
   44MOL   H53432440   1.392   4.667   0.334  0.4889 -1.4494 -0.1671
   44MOL   H53532441   1.262   4.682   0.212  0.3900  1.1696  0.7968
   44MOL   H53632442   1.262   4.417   0.226 -1.3888  0.8660 -0.7252
   44MOL   H53732443   1.389   4.506   0.135 -0.6433  2.1087  0.7720
   44MOL   H53832444   1.416   4.376   0.409 -0.9938  1.3103  0.2337
   44MOL   H53932445   1.529   4.487   0.322 -0.4637  0.5551 -0.9327
   44MOL   H54032446   1.432   4.218   0.233 -0.3529  0.1774 -1.1666
   44MOL   H54132447   1.543   4.322   0.137  2.2071 -1.8996  0.2737
   44MOL   H54232448   1.594   4.131   0.355 -1.3615  0.3610 -0.4988
   44MOL   H54332449   1.695   4.285   0.350  0.0406  1.2814 -0.4618
   44MOL   H54432450   1.666   4.104   0.107 -2.3707 -0.7580  1.3045
   44MOL   H54532451   1.788   4.065   0.230  0.7355  1.0142 -0.6326
   44MOL   H54632452   1.921   4.232   0.200 -0.5293  2.8336  1.6186
   44MOL   H54732453   1.788   4.346   0.141  1.6775 -0.0701  0.7821
   44MOL   H54832454   1.787   4.208   7.625 -0.7833 -2.2684  1.8126
   44MOL   H54932455   1.921   4.108   7.689  0.6373 -0.3104  2.1958
   44MOL   H55032456   1.971   4.410   7.682 -1.3584 -0.8353  0.7198
   44MOL   H55132457   1.971   4.321   7.536 -0.7403  0.8236  0.7598
   44MOL   H55232458   2.158   4.181   7.605 -0.2443  0.7160 -0.1570
   44MOL   H55332459   2.129   4.228   0.079 -2.7138 -3.6010 -0.2097
   44MOL   H55432460   2.202   4.468   0.026  1.0114  0.8826 -1.0938
   44MOL   H55532461   2.187   4.425   7.554  1.0786  0.2046  0.4132
   44MOL   H55632462   2.400   4.337   7.562  1.2131  2.3383  0.6249
   44MOL   C55732463   2.424   4.347   0.068  0.5770 -0.0396 -0.7904
   44MOL   O55832464   2.373   4.366   0.181 -0.7705 -0.1805  0.4018
   44MOL   C55932465   2.574   4.315   0.045  0.2644 -0.2570 -0.2706
   44MOL   C56032466   2.647   4.287   0.174 -0.1315 -0.2813 -0.5235
   44MOL   C56132467   2.797   4.290   0.146  0.7018  0.5491  0.2801
   44MOL   C56232468   2.873   4.285   0.277  0.2057  0.3113  0.3383
   44MOL   C56332469   3.020   4.266   0.254 -0.4091 -0.5469 -0.2866
   44MOL   C56432470   3.089   4.258   0.393  0.0693  0.1617  0.0210
   44MOL   C56532471   3.243   4.240   0.392 -0.5336  0.5591 -1.0900
   44MOL   C56632472   3.311   4.280   0.518  0.8242  0.6116  0.4165
   44MOL   C56732473   3.461   4.274   0.504 -0.2574 -0.5017 -0.4749
   44MOL   C56832474   3.538   4.336   0.629  0.3551 -0.5495  0.4026
   44MOL   C56932475   3.689   4.338   0.614  0.8585 -0.1774  0.0134
   44MOL   N57032476   3.738   4.421   0.507  0.2126  0.1901 -0.8252
   44MOL   H57132477   2.618   4.407   0.008  0.8219 -0.2904  0.2982
   44MOL   H57232478   2.587   4.248   7.653 -0.1134 -1.1116  0.3293
   44MOL   H57332479   2.628   4.366   0.246 -0.0569 -1.1927  0.5070
   44MOL   H57432480   2.630   4.186   0.213 -0.1759  0.0632  0.3564
   44MOL   H57532481   2.825   4.374   0.082  3.1848 -1.7473 -1.7592
   44MOL   H57632482   2.827   4.206   0.084 -1.7084  0.4841 -0.8751
   44MOL   H57732483   2.853   4.374   0.337 -0.5185  0.1162  0.3870
   44MOL   H57832484   2.830   4.208   0.341  1.2434  0.3996  1.1536
   44MOL   H57932485   3.057   4.357   0.207 -0.8305 -0.4012 -0.3316
   44MOL   H58032486   3.041   4.178   0.195 -1.5855  0.2492 -1.9152
   44MOL   H58132487   3.051   4.191   0.470  0.6076 -0.1865 -0.0182
   44MOL   H58232488   3.062   4.354   0.437 -0.8834  0.3109 -0.8711
   44MOL   H58332489   3.273   4.305   0.309 -0.2265  0.6783 -0.8857
   44MOL   H58432490   3.276   4.137   0.376  2.6584  1.6056 -1.6733
   44MOL   H58532491   3.280   4.212   0.597  4.4221  1.2078  2.4372
   44MOL   H58632492   3.278   4.379   0.552  0.6444  0.7032 -0.0165
   44MOL   H58732493   3.499   4.317   0.412 -0.6714  0.9722  0.0349
   44MOL   H58832494   3.485   4.168   0.492  1.6981 -0.0205 -0.9214
   44MOL   H58932495   3.505   4.293   0.724  2.2770 -1.9366  0.4549
   44MOL   H59032496   3.506   4.440   0.637 -0.9467 -0.8601 -0.5010
   44MOL   H59132497   3.731   4.240   0.596  0.7196 -0.4307  1.0333
   44MOL   H59232498   3.732   4.383   0.704  1.6869  0.6817 -0.8041
   44MOL   H59332499   3.670   4.476   0.457  1.4191  1.8251 -0.7507
   44MOL   C59432500   3.861   4.429   0.458  0.2828 -0.0970  0.2685
   44MOL   O59532501   3.959   4.378   0.509  0.6117 -0.0954  0.2208
   44MOL   C59632502   3.883   4.505   0.327  0.4659  0.1682 -0.1522
   44MOL   C59732503   4.025   4.563   0.314  0.3571 -0.3956 -0.2649
   44MOL   C59832504   4.054   4.679   0.216  0.1815 -0.8009 -0.1601
   44MOL   C59932505   4.181   4.765   0.248 -0.2326  0.1146 -0.2635
   44MOL   C60032506   4.216   4.852   0.127  0.1306 -0.1244  0.2004
   44MOL   C60132507   4.100   4.937   0.083  0.2819 -0.6150  0.7105
   44MOL   C60232508   4.156   5.043   7.676  0.5160  0.7335 -0.5970
   44MOL   C60332509   4.037   5.129   7.628  0.3903  0.5782  0.8713
   44MOL   C60432510   4.076   5.252   7.543  0.1220  0.0766  0.2556
   44MOL   C60532511   3.966   5.353   7.531  0.3886 -0.0938 -0.2239
   44MOL   C60632512   4.006   5.479   7.461  0.7259  0.0564 -0.0007
   44MOL   N60732513   3.894   5.570   7.451 -0.0839 -0.2806 -0.2132
   44MOL   H60832514   3.813   4.588   0.332  0.5151  0.1179  1.9194
   44MOL   H60932515   3.864   4.446   0.238 -1.5069  0.7378 -0.1260
   44MOL   H61032516   4.051   4.605   0.411  0.3373 -0.8077 -0.0769
   44MOL   H61132517   4.094   4.480   0.297  1.6015  0.9366 -1.9547
   44MOL   H61232518   3.967   4.743   0.204  0.6828  0.0714  0.7031
   44MOL   H61332519   4.052   4.633   0.118 -0.9199 -2.1702  0.4946
   44MOL   H61432520   4.163   4.826   0.337  0.6956  0.1184 -0.0777
   44MOL   H61532521   4.269   4.711   0.281  0.7638  0.9337 -1.5419
   44MOL   H61632522   4.242   4.780   0.049 -0.5796  0.5012 -0.6222
   44MOL   H61732523   4.301   4.919   0.143  2.0289 -0.8267 -5.5870
   44MOL   H61832524   4.059   4.993   0.168  0.2916  0.6673 -0.1151
   44MOL   H61932525   4.014   4.882   0.044 -0.5053  0.3981  0.9920
   44MOL   H62032526   4.194   4.993   7.587 -3.1183 -0.1192 -1.7551
   44MOL   H62132527   4.231   5.103   0.032 -0.0400  0.1862  0.9205
   44MOL   H62232528   3.974   5.158   0.018 -2.5787 -1.1583 -0.6422
   44MOL   H62332529   3.976   5.069   7.560  0.9715 -0.1188  0.9641
   44MOL   H62432530   4.126   5.217   7.452  0.4360  1.5039 -0.1395
   44MOL   H62532531   4.147   5.307   7.605 -1.1581  1.5532  0.4494
   44MOL   H62632532   3.935   5.382   7.632  0.6844 -1.3298  0.2276
   44MOL   H62732533   3.881   5.314   7.475  1.8375 -2.3244 -0.9297
   44MOL   H62832534   4.045   5.449   7.363  0.3954  0.7703 -0.3498
   44MOL   H62932535   4.089   5.523   7.516 -0.8274  0.6788  1.8731
   44MOL   H63032536   3.831   5.550   7.527  0.1678 -0.3838 -0.0285
   44MOL   C63132537   3.866   5.660   7.355 -0.5106 -0.1226  0.1042
   44MOL   O63232538   3.936   5.672   7.254  0.2386  0.5382  0.0127
   44MOL   C63332539   3.746   5.757   7.381  0.2308  1.2554  0.0307
   44MOL   C63432540   3.688   5.842   7.269  0.4891 -0.3960 -0.4631
   44MOL   C63532541   3.642   5.757   7.147  0.8464  1.0035  0.4095
   44MOL   C63632542   3.485   5.741   7.144  0.4292 -0.1922  0.8763
   44MOL   C63732543   3.426   5.602   7.190  0.1834  0.9900  0.3697
   44MOL   C63832544   3.272   5.587   7.185  0.3941  0.3758 -0.0704
   44MOL   C63932545   3.240   5.442   7.231  0.5146  0.3806  0.6077
   44MOL   C64032546   3.283   5.415   7.376 -0.0166 -0.2205  0.0095
   44MOL   C64132547   3.211   5.294   7.442 -0.4738 -0.2935 -0.2653
   44MOL   C64232548   3.263   5.254   7.585 -0.4080  0.0865  0.3301
   44MOL   C64332549   3.169   5.174   7.659  0.2307  0.1935  0.1876
   44MOL   N64432550   3.222   5.129   0.088 -0.4105  0.2825 -0.1598
   44MOL   H64532551   3.779   5.817   7.466  2.5676 -0.9184  0.6963
   44MOL   H64632552   3.674   5.687   7.423  1.6881  0.8124  1.9000
   44MOL   H64732553   3.609   5.901   7.315  1.9693  0.5375  0.9464
   44MOL   H64832554   3.764   5.910   7.231  0.7896  0.9903  2.4581
   44MOL   H64932555   3.694   5.665   7.122  1.4491  1.8105 -1.4185
   44MOL   H65032556   3.656   5.818   7.057  0.7348  0.4994  0.0501
   44MOL   H65132557   3.432   5.810   7.209 -0.4656 -0.0951  0.0451
   44MOL   H65232558   3.449   5.759   7.042  1.4611  0.7199  0.6544
   44MOL   H65332559   3.482   5.587   7.283  1.1145 -1.0123 -0.4842
   44MOL   H65432560   3.470   5.519   7.135 -1.0278  0.1814  0.6072
   44MOL   H65532561   3.235   5.615   7.087  1.1285  2.3016  0.1703
   44MOL   H65632562   3.241   5.665   7.254  1.0859  2.0094 -1.5815
   44MOL   H65732563   3.281   5.371   7.158 -0.3054  0.5431 -0.0159
   44MOL   H65832564   3.134   5.418   7.232  0.9973 -1.9497 -0.4609
   44MOL   H65932565   3.256   5.492   7.447 -0.4928 -1.8004  1.5692
   44MOL   H66032566   3.390   5.400   7.387 -0.2796  0.1561  3.4293
   44MOL   H66132567   3.227   5.204   7.382  1.1352 -0.5791  0.5490
   44MOL   H66232568   3.104   5.311   7.443 -0.4159  0.1244  1.5123
   44MOL   H66332569   3.302   5.342   7.638  1.1391 -0.0937 -0.4724
   44MOL   H66432570   3.351   5.191   7.572  0.4565  1.3387 -0.0828
   44MOL   H66532571   3.155   5.091   7.590 -0.1102  0.2253  0.2175
   44MOL   H66632572   3.075   5.229   7.667 -2.1918 -3.2181 -3.0438
   44MOL   H66732573   3.291   5.055   0.090 -1.0629 -0.3093  1.1214
   44MOL   C66832574   3.178   5.163   0.213  0.6287 -0.0557 -0.1019
   44MOL   O66932575   3.091   5.249   0.230  0.0414  0.5660 -0.6650
   44MOL   C67032576   3.232   5.082   0.329 -0.4096  0.1148 -0.7090
   44MOL   C67132577   3.261   5.146   0.465 -0.2948  0.4456 -0.8282
   44MOL   C67232578   3.377   5.239   0.489  0.3271 -0.0476 -0.4728
   44MOL   C67332579   3.388   5.282   0.635 -0.6407 -0.2411 -0.0659
   44MOL   C67432580   3.521   5.369   0.661 -0.1000 -0.3872 -0.2295
   44MOL   C67532581   3.599   5.314   0.787  0.2003 -0.3159 -0.0248
   44MOL   C67632582   3.720   5.399   0.818  0.0744  0.7592 -0.2989
   44MOL   C67732583   3.696   5.503   0.930 -0.3565  0.1791  0.4263
   44MOL   C67832584   3.812   5.607   0.945  0.0126  0.3387 -0.1642
   44MOL   C67932585   3.800   5.676   1.083 -0.2174  0.8190 -0.0473
   44MOL   C68032586   3.918   5.766   1.116 -0.6381  0.6819 -0.0887
   44MOL   N68132587   4.047   5.694   1.115  0.5253  0.3282  0.5250
   44MOL   H68232588   3.322   5.027   0.303 -0.1272 -1.2383  2.8235
   44MOL   H68332589   3.162   4.999   0.343 -0.8370  0.3676 -1.3646
   44MOL   H68432590   3.173   5.199   0.501  0.0337 -0.6301  1.6952
   44MOL   H68532591   3.292   5.058   0.521 -2.3863 -0.7492 -1.4926
   44MOL   H68632592   3.368   5.333   0.434  0.5906  0.7502  0.8094
   44MOL   H68732593   3.470   5.191   0.459 -0.2409 -2.7524  1.8589
   44MOL   H68832594   3.308   5.348   0.668  0.6234  1.0108  0.5601
   44MOL   H68932595   3.385   5.194   0.700 -0.4702  1.1763  1.9260
   44MOL   H69032596   3.509   5.475   0.683  1.9158 -0.1892  0.0224
   44MOL   H69132597   3.593   5.369   0.579  0.4433 -2.0505  0.2148
   44MOL   H69232598   3.625   5.212   0.759  0.7275 -0.9020  2.5421
   44MOL   H69332599   3.531   5.305   0.871 -0.3688  1.4353 -0.2766
   44MOL   H69432600   3.760   5.444   0.727  1.0918  0.8007  0.1591
   44MOL   H69532601   3.800   5.330   0.846 -1.0240 -1.8492 -3.2832
   44MOL   H69632602   3.688   5.454   1.027 -0.3006  1.6202  1.1706
   44MOL   H69732603   3.612   5.566   0.899 -0.0845 -0.0567 -0.8339
   44MOL   H69832604   3.809   5.686   0.870  0.3248  1.1521  0.6582
   44MOL   H69932605   3.903   5.547   0.946  0.6680  1.3322  0.1184
   44MOL   H70032606   3.791   5.613   1.172  0.0160 -1.2511 -1.4530
   44MOL   H70132607   3.709   5.735   1.082 -0.3414  0.6794  1.3329
   44MOL   H70232608   3.898   5.820   1.208 -0.5494  0.8833 -0.1869
   44MOL   H70332609   3.902   5.846   1.043 -1.4505 -0.7470 -1.5070
   44MOL   H70432610   4.074   5.644   1.199  0.0308 -3.4315 -1.4698
   44MOL   C70532611   4.133   5.685   1.018 -0.2412 -0.1395  0.1934
   44MOL   O70632612   4.125   5.747   0.912 -0.2154 -0.0828 -0.4334
   44MOL   C70732613   4.254   5.606   1.052 -0.3317 -0.1285 -0.6521
   44MOL   C70832614   4.257   5.452   1.033 -0.2318 -0.0611 -0.7440
   44MOL   C70932615   4.273   5.414   0.892  0.2186 -0.2843 -0.3590
   44MOL   C71032616   4.259   5.262   0.866  0.6339  0.6423 -0.1571
   44MOL   C71132617   4.266   5.241   0.715 -0.1858  0.4897  0.6625
   44MOL   C71232618   4.282   5.096   0.670 -0.3700 -0.2574 -0.0125
   44MOL   C71332619   4.311   5.071   0.523 -0.3754  0.4818 -0.3074
   44MOL   C71432620   4.429   4.981   0.496 -0.9404 -0.2023  0.1005
   44MOL   C71532621   4.422   4.838   0.529 -0.4667 -0.1891  0.2558
   44MOL   C71632622   4.530   4.749   0.466 -0.3897 -0.9516  0.5560
   44MOL   C71732623   4.519   4.597   0.502  0.2359  0.1560  0.6490
   44MOL   N71832624   4.644   4.526   0.471  0.2918 -0.4702  0.7266
   44MOL   H71932625   4.266   5.626   1.158  1.3041  1.4338 -1.0938
   44MOL   H72032626   4.336   5.657   0.999 -1.4633  0.6685 -1.6642
   44MOL   H72132627   4.329   5.399   1.096 -2.2741 -2.7435 -0.5899
   44MOL   H72232628   4.166   5.411   1.076 -0.0003 -0.1836 -0.3707
   44MOL   H72332629   4.364   5.454   0.845  1.8207 -0.5819  2.3683
   44MOL   H72432630   4.196   5.472   0.841  0.7823  0.6942 -0.1179
   44MOL   H72532631   4.347   5.211   0.906 -0.6907 -2.3249 -0.9521
   44MOL   H72632632   4.167   5.223   0.909  0.6279 -0.1760 -0.8944
   44MOL   H72732633   4.354   5.299   0.689  0.4650 -1.5169 -1.6932
   44MOL   H72832634   4.182   5.286   0.662 -0.2533 -1.9390 -1.4039
   44MOL   H72932635   4.192   5.041   0.696  0.3476 -1.1717  0.5872
   44MOL   H73032636   4.365   5.059   0.731  0.2079 -1.7628 -1.6844
   44MOL   H73132637   4.335   5.160   0.464  1.0273  2.0768  2.5351
   44MOL   H73232638   4.226   5.022   0.477  0.5129 -2.0198  0.6412
   44MOL   H73332639   4.524   5.017   0.535 -0.9221 -0.2661  0.1139
   44MOL   H73432640   4.447   4.979   0.388  2.1150  2.0497  0.4931
   44MOL   H73532641   4.324   4.791   0.525  0.5688 -2.3636 -1.5738
   44MOL   H73632642   4.443   4.839   0.636 -1.6609 -1.1048  0.5146
   44MOL   H73732643   4.632   4.782   0.487  0.0410 -1.0306 -1.3875
   44MOL   H73832644   4.529   4.771   0.360  0.3373  0.9658  0.9182
   44MOL   H73932645   4.438   4.543   0.452 -0.5747  1.0836  0.9484
   44MOL   H74032646   4.487   4.597   0.606  0.6707  2.0195  0.7959
   44MOL   H74132647   4.644   4.427   0.489 -0.4384 -0.9952 -1.8436
   44MOL   H74232648   4.724   4.561   0.521  0.3664  0.5143 -0.0622
   45MOL     C132649   5.391   4.387   2.503 -0.0856 -0.6945 -0.1888
   45MOL     O232650   5.465   4.391   2.402 -0.5442  0.0331  0.9942
   45MOL     C332651   5.396   4.261   2.591  0.3662  0.2962  0.3199
   45MOL     C432652   5.504   4.259   2.700 -0.1723  0.6964 -0.1076
   45MOL     C532653   5.489   4.152   2.803 -0.1174  0.4906 -0.1789
   45MOL     C632654   5.384   4.184   2.904 -0.0839  0.0748  0.6216
   45MOL     C732655   5.357   4.063   2.993  0.3129  0.3738 -0.1714
   45MOL     C832656   5.244   4.099   3.087  0.5862  0.5755  0.1037
   45MOL     C932657   5.203   3.988   3.176 -0.5246 -0.2458  0.4987
   45MOL    C1032658   5.074   4.019   3.259  0.1129 -0.6288 -0.0975
   45MOL    C1132659   5.046   3.915   3.368 -0.4249  0.2729 -0.0828
   45MOL    C1232660   4.916   3.958   3.432  0.6219  0.2976  0.0853
   45MOL    C1332661   4.871   3.842   3.532 -0.2066 -0.3406  0.4939
   45MOL    N1432662   4.955   3.849   3.644 -0.1694  0.0476 -0.5802
   45MOL    H1532663   5.404   4.167   2.537  2.1440  0.1124  0.8633
   45MOL    H1632664   5.297   4.273   2.634  0.5104  2.2076  0.1636
   45MOL    H1732665   5.598   4.259   2.644 -0.7392 -1.1439 -1.1218
   45MOL    H1832666   5.499   4.358   2.746 -2.6683  0.9596 -0.8178
   45MOL    H1932667   5.584   4.135   2.854 -2.0288 -1.0931  2.9573
   45MOL    H2032668   5.461   4.059   2.754 -1.5900  0.9563 -0.2257
   45MOL    H2132669   5.431   4.260   2.966 -1.8859  1.5491  0.2223
   45MOL    H2232670   5.299   4.231   2.854  0.4686 -1.7956 -2.1827
   45MOL    H2332671   5.445   4.030   3.048  0.8237  1.7559 -0.1534
   45MOL    H2432672   5.332   3.978   2.928  0.4152  1.4743 -1.6708
   45MOL    H2532673   5.148   4.132   3.047  0.1342 -0.4945  0.2936
   45MOL    H2632674   5.273   4.186   3.146  1.3073 -0.2556  0.9809
   45MOL    H2732675   5.287   3.974   3.244 -0.0979 -1.1228 -0.1995
   45MOL    H2832676   5.186   3.889   3.133  3.0557 -0.3340 -0.8816
   45MOL    H2932677   4.988   4.030   3.193  0.2104  1.4078  0.0627
   45MOL    H3032678   5.090   4.116   3.308  0.0491 -2.3926  3.5785
   45MOL    H3132679   5.127   3.923   3.441  0.8680  0.6108 -1.5230
   45MOL    H3232680   5.057   3.815   3.326 -0.0084 -0.5348  1.9036
   45MOL    H3332681   4.837   3.960   3.357  1.2865 -4.0029 -0.8592
   45MOL    H3432682   4.913   4.055   3.482 -1.1925  0.5714 -0.4881
   45MOL    H3532683   4.877   3.740   3.493 -1.8151 -0.7797  1.3617
   45MOL    H3632684   4.764   3.861   3.540 -0.3595 -0.8808 -0.1767
   45MOL    H3732685   5.042   3.900   3.639 -1.8572  3.0938 -0.1964
   45MOL    H3832686   5.315   4.465   2.517 -0.9753 -1.2396 -1.7592
   45MOL    C3932687   4.927   3.789   3.763 -0.5703  0.8041  0.1912
   45MOL    O4032688   4.836   3.715   3.776  0.2398 -0.0191 -0.5991
   45MOL    C4132689   5.020   3.823   3.882  0.8571 -0.2465  0.0999
   45MOL    C4232690   5.166   3.849   3.842  0.2635  0.0252 -0.1885
   45MOL    C4332691   5.209   3.995   3.837  0.3104  0.0125 -0.0592
   45MOL    C4432692   5.361   4.015   3.821 -0.1828  0.7365  0.2032
   45MOL    C4532693   5.422   3.949   3.699  0.2744  0.4745  0.4590
   45MOL    C4632694   5.576   3.964   3.692 -0.5581  0.0819  0.2586
   45MOL    C4732695   5.636   3.918   3.553  0.2196 -0.3074  0.0932
   45MOL    C4832696   5.788   3.928   3.560 -0.8784  0.4914 -0.5837
   45MOL    C4932697   5.845   3.908   3.423 -0.0433  0.1799  0.5253
   45MOL    C5032698   5.998   3.918   3.417  0.4050 -0.1808  0.8324
   45MOL    C5132699   6.063   3.932   3.277 -0.4922  0.4027  0.0657
   45MOL    N5232700   6.015   3.838   3.187 -0.2923 -0.0907  0.6173
   45MOL    H5332701   5.021   3.742   3.955  0.3533  0.7361  1.2241
   45MOL    H5432702   4.967   3.905   3.932 -1.4216 -0.3173 -2.0960
   45MOL    H5532703   5.235   3.807   3.915  0.5108 -0.4571 -0.6957
   45MOL    H5632704   5.183   3.797   3.748  0.2975 -0.2691 -0.0214
   45MOL    H5732705   5.192   4.050   3.929 -2.7062 -2.4895  0.9835
   45MOL    H5832706   5.151   4.035   3.753  0.0313 -0.4771 -0.1036
   45MOL    H5932707   5.393   4.119   3.826 -1.9866  1.2585  1.2916
   45MOL    H6032708   5.413   3.961   3.900 -2.0672 -0.4395  0.6678
   45MOL    H6132709   5.382   3.995   3.609 -1.1954 -2.1773 -0.2990
   45MOL    H6232710   5.396   3.843   3.698 -1.9535  0.9899 -0.0905
   45MOL    H6332711   5.632   3.907   3.766  1.2239  0.0154 -1.1046
   45MOL    H6432712   5.608   4.068   3.703 -1.3709  0.4786 -1.0434
   45MOL    H6532713   5.601   3.991   3.479  0.4650 -1.1955 -0.9170
   45MOL    H6632714   5.595   3.829   3.506 -1.6275 -0.1236  1.2884
   45MOL    H6732715   5.827   3.855   3.632  1.4632  1.5656 -0.7353
   45MOL    H6832716   5.821   4.027   3.593  0.0386  0.1227 -0.3618
   45MOL    H6932717   5.799   3.981   3.356 -0.3381  0.1204  0.6627
   45MOL    H7032718   5.826   3.809   3.382  0.5633  0.6871 -1.0251
   45MOL    H7132719   6.045   3.830   3.459  0.5531 -2.0980 -3.1351
   45MOL    H7232720   6.028   4.007   3.473  1.4432  0.5069 -0.7693
   45MOL    H7332721   6.170   3.916   3.290 -0.2901  0.4009 -1.5533
   45MOL    H7432722   6.056   4.035   3.242 -0.8220  0.9013  1.5523
   45MOL    H7532723   6.044   3.745   3.213  0.3469 -0.3729 -1.0913
   45MOL    C7632724   5.928   3.856   3.085 -0.1238 -1.4871  0.3894
   45MOL    O7732725   5.884   3.970   3.054  0.0245  0.1542 -0.2393
   45MOL    C7832726   5.872   3.725   3.023 -0.5067 -0.2851 -0.3767
   45MOL    C7932727   5.740   3.742   2.952 -0.9415  0.2109  0.2143
   45MOL    C8032728   5.625   3.775   3.045 -0.2519 -0.6936  0.0794
   45MOL    C8132729   5.583   3.673   3.149  0.1473 -0.0669 -0.4227
   45MOL    C8232730   5.454   3.707   3.223  0.5284 -0.1137  0.4070
   45MOL    C8332731   5.400   3.593   3.301  0.8786 -0.2267 -0.5820
   45MOL    C8432732   5.262   3.611   3.371 -0.2499 -0.4139  0.1691
   45MOL    C8532733   5.254   3.524   3.502  0.0633 -0.6614 -0.4172
   45MOL    C8632734   5.112   3.520   3.561  0.1749  0.2195 -0.5539
   45MOL    C8732735   5.015   3.466   3.462 -0.6218 -0.4627 -0.2624
   45MOL    C8832736   5.030   3.323   3.431 -0.2672 -0.6463 -0.2945
   45MOL    N8932737   4.937   3.282   3.329 -0.0141  0.5156 -0.4605
   45MOL    H9032738   5.862   3.651   3.102 -0.3990 -0.8570 -0.8977
   45MOL    H9132739   5.945   3.706   2.944 -0.0874  1.2396 -0.3686
   45MOL    H9232740   5.750   3.824   2.881 -2.4031 -1.0646 -1.5267
   45MOL    H9332741   5.729   3.651   2.892 -0.4620  0.8665 -0.8948
   45MOL    H9432742   5.539   3.801   2.983 -1.0512 -0.6119  1.1972
   45MOL    H9532743   5.649   3.864   3.103 -1.1551  0.9797 -2.0539
   45MOL    H9632744   5.580   3.578   3.094  1.0469 -0.3556  0.0103
   45MOL    H9732745   5.656   3.660   3.229  1.5677  0.7262 -1.5604
   45MOL    H9832746   5.382   3.730   3.144  1.4611 -2.5203 -1.1934
   45MOL    H9932747   5.475   3.802   3.272  1.0962 -0.6910  1.2966
   45MOL   H10032748   5.479   3.574   3.374  1.2395 -1.6613 -1.3363
   45MOL   H10132749   5.393   3.509   3.232  1.0804 -0.1106 -0.7427
   45MOL   H10232750   5.189   3.594   3.291 -0.1616 -0.2896  0.0608
   45MOL   H10332751   5.247   3.715   3.399  0.0614 -0.7612  1.6452
   45MOL   H10432752   5.326   3.556   3.577 -0.2917 -0.9110  0.0295
   45MOL   H10532753   5.280   3.429   3.456 -1.6315 -1.3831  0.0859
   45MOL   H10632754   5.087   3.615   3.607 -1.9992 -0.3573 -0.4614
   45MOL   H10732755   5.110   3.445   3.641 -1.6076  1.7660  0.9022
   45MOL   H10832756   4.998   3.528   3.374  0.0367 -0.0293 -0.0879
   45MOL   H10932757   4.921   3.480   3.516 -0.2375  0.5219  0.1551
   45MOL   H11032758   5.020   3.251   3.513 -0.9745 -1.5289 -1.1441
   45MOL   H11132759   5.132   3.297   3.402 -0.3179  1.6336 -2.6244
   45MOL   H11232760   4.854   3.232   3.356 -1.5379  3.1364 -0.1582
   45MOL   C11332761   4.962   3.289   3.196  0.4478  0.2095  0.0198
   45MOL   O11432762   5.060   3.354   3.163  0.1198  0.3463 -0.1581
   45MOL   C11532763   4.858   3.234   3.093  0.0603  0.3041 -1.0995
   45MOL   C11632764   4.854   3.316   2.964  0.2986  0.5779  0.0687
   45MOL   C11732765   4.712   3.315   2.907  0.3756 -0.9344 -0.0167
   45MOL   C11832766   4.694   3.410   2.782  0.0517  0.2311  0.0128
   45MOL   C11932767   4.563   3.385   2.713 -0.3689  0.8164 -0.0681
   45MOL   C12032768   4.447   3.470   2.779 -0.3343  0.8194 -0.2559
   45MOL   C12132769   4.317   3.411   2.748 -0.2166  0.6678 -0.1858
   45MOL   C12232770   4.192   3.504   2.779 -0.1753  0.0904 -0.1002
   45MOL   C12332771   4.154   3.504   2.924  0.0435 -0.6500  0.0122
   45MOL   C12432772   4.011   3.550   2.936 -0.6637 -0.3905 -0.0537
   45MOL   C12532773   3.948   3.561   3.073 -0.1140  0.2546 -0.2474
   45MOL   N12632774   3.804   3.592   3.070  0.0916  0.1360 -0.5980
   45MOL   H12732775   4.759   3.229   3.139  0.1362  1.1738 -0.8168
   45MOL   H12832776   4.889   3.133   3.069 -0.7368 -0.7365  2.0000
   45MOL   H12932777   4.886   3.419   2.978 -1.1359  0.8476  1.4504
   45MOL   H13032778   4.914   3.261   2.892  1.1602 -0.0306  1.2285
   45MOL   H13132779   4.649   3.355   2.987 -0.5356 -0.2065 -1.0931
   45MOL   H13232780   4.690   3.209   2.896 -0.4519 -0.9455  1.5763
   45MOL   H13332781   4.703   3.517   2.802  1.0081  0.2501 -0.4900
   45MOL   H13432782   4.775   3.391   2.712  1.1262 -0.3120  1.3830
   45MOL   H13532783   4.535   3.280   2.724 -0.7279  0.8232 -0.8801
   45MOL   H13632784   4.580   3.422   2.612  0.9163  2.2887  0.6766
   45MOL   H13732785   4.461   3.569   2.737  2.1102  0.5647 -0.1080
   45MOL   H13832786   4.471   3.479   2.885  0.7923  0.3702 -0.4687
   45MOL   H13932787   4.301   3.312   2.792 -2.3590  0.6460 -0.9394
   45MOL   H14032788   4.314   3.391   2.640 -0.3093  1.3305 -0.3059
   45MOL   H14132789   4.103   3.473   2.725  0.2745  1.4569 -1.6485
   45MOL   H14232790   4.216   3.606   2.750  0.2828 -0.4290 -1.6160
   45MOL   H14332791   4.218   3.578   2.971  0.8421 -0.7788 -0.8500
   45MOL   H14432792   4.163   3.407   2.972 -2.4073 -1.1118 -0.3871
   45MOL   H14532793   3.958   3.473   2.880 -0.5135 -1.1031  0.7595
   45MOL   H14632794   3.978   3.638   2.881  0.1093 -1.5917 -2.5210
   45MOL   H14732795   3.998   3.644   3.123 -0.0865 -0.4693  0.9450
   45MOL   H14832796   3.973   3.470   3.128  0.6821  0.5156 -0.1643
   45MOL   H14932797   3.780   3.670   3.010 -0.6158  1.0344  0.8294
   45MOL   C15032798   3.721   3.549   3.161  0.2235  0.6329 -0.0292
   45MOL   O15132799   3.751   3.467   3.244  0.2051 -0.1555  0.1694
   45MOL   C15232800   3.590   3.629   3.167  0.0973 -0.5974  0.7823
   45MOL   C15332801   3.534   3.654   3.304  0.3299  0.5096 -0.5128
   45MOL   C15432802   3.424   3.766   3.304  0.4255 -0.1885  0.6100
   45MOL   C15532803   3.373   3.790   3.450  0.4991  0.9524 -0.0822
   45MOL   C15632804   3.262   3.908   3.465 -0.4949  0.0495  0.0550
   45MOL   C15732805   3.320   4.048   3.454  0.7822 -0.3071 -0.5207
   45MOL   C15832806   3.211   4.157   3.482  0.1110  0.3015  0.3432
   45MOL   C15932807   3.162   4.170   3.630  0.3360 -0.8363  0.0868
   45MOL   C16032808   3.082   4.294   3.676 -0.4462  0.5516  0.6231
   45MOL   C16132809   3.018   4.287   3.812 -0.2043  0.0102  0.7807
   45MOL   C16232810   2.898   4.391   3.813 -0.0056 -0.1545 -0.0409
   45MOL   N16332811   2.832   4.411   3.940  0.0012  0.3397  1.2847
   45MOL   H16432812   3.519   3.587   3.095 -0.1004  1.5451 -0.2876
   45MOL   H16532813   3.620   3.724   3.125  0.5507 -1.5574 -1.1202
   45MOL   H16632814   3.505   3.567   3.362  0.0620  1.2029  0.4097
   45MOL   H16732815   3.616   3.682   3.370  1.5013  0.9886 -2.1450
   45MOL   H16832816   3.347   3.733   3.234 -1.1296  0.9442  1.7776
   45MOL   H16932817   3.475   3.854   3.264  1.3241 -1.0224 -0.1184
   45MOL   H17032818   3.318   3.702   3.485  2.7946 -0.1646  0.7793
   45MOL   H17132819   3.455   3.803   3.520 -0.3159  1.0976  0.8568
   45MOL   H17232820   3.221   3.898   3.566 -1.0158  1.8819  0.0417
   45MOL   H17332821   3.180   3.890   3.395  1.5947 -0.6461 -2.2784
   45MOL   H17432822   3.368   4.073   3.360  0.4216  2.1560 -0.0786
   45MOL   H17532823   3.393   4.068   3.533 -1.0623  0.8646  0.9304
   45MOL   H17632824   3.124   4.141   3.418 -0.1877  1.3447  0.4919
   45MOL   H17732825   3.253   4.251   3.449  0.2473 -0.3603 -1.4514
   45MOL   H17832826   3.247   4.159   3.697  0.2645 -1.9118  0.0164
   45MOL   H17932827   3.090   4.089   3.641  1.3726 -1.6105  1.2564
   45MOL   H18032828   3.001   4.309   3.604  0.3034  3.6146  0.3534
   45MOL   H18132829   3.143   4.384   3.682 -1.6074  1.4556 -0.6314
   45MOL   H18232830   3.086   4.304   3.896  1.0710  1.9753 -0.6028
   45MOL   H18332831   2.980   4.185   3.824 -3.2679  1.1864  1.3558
   45MOL   H18432832   2.820   4.378   3.737 -0.5137 -0.5474  0.5417
   45MOL   H18532833   2.932   4.488   3.776  1.3973  0.6507  3.2202
   45MOL   H18632834   2.739   4.377   3.962 -0.7691  0.8462 -0.9808
   45MOL   C18732835   2.887   4.479   4.041 -0.9154 -0.2467  0.6102
   45MOL   O18832836   3.013   4.488   4.054 -0.1715 -0.3293 -0.6218
   45MOL   C18932837   2.797   4.530   4.158  0.5383 -0.2836  0.1460
   45MOL   C19032838   2.850   4.652   4.244  0.1205  0.8653  0.2829
   45MOL   C19132839   2.926   4.603   4.367 -0.0871  0.0985 -0.0527
   45MOL   C19232840   3.002   4.710   4.444 -1.0451 -0.0305  0.3841
   45MOL   C19332841   3.073   4.650   4.566 -0.4154  0.2497 -0.4626
   45MOL   C19432842   3.199   4.562   4.537 -0.0713  1.2664 -1.0345
   45MOL   C19532843   3.289   4.529   4.660  0.3240  0.5795 -0.0902
   45MOL   C19632844   3.216   4.451   4.769 -0.4824 -0.0974 -0.1312
   45MOL   C19732845   3.302   4.417   4.896  0.7664 -0.0710  0.5149
   45MOL   C19832846   3.414   4.320   4.863  1.2404  0.9358 -1.0975
   45MOL   C19932847   3.512   4.279   4.977 -0.3008  0.2896 -0.0495
   45MOL   N20032848   3.614   4.201   4.920 -0.3061  0.3319  0.7154
   45MOL   H20132849   2.774   4.448   4.227 -0.7928 -0.1024 -0.0664
   45MOL   H20232850   2.707   4.563   4.106  2.5301  1.8306 -2.1258
   45MOL   H20332851   2.915   4.712   4.180  0.8286 -0.0955  0.0872
   45MOL   H20432852   2.765   4.713   4.274 -1.6799 -1.2455 -0.4760
   45MOL   H20532853   2.995   4.534   4.318 -0.2945 -0.9211  1.0710
   45MOL   H20632854   2.860   4.542   4.428 -0.0038 -2.3770 -2.3396
   45MOL   H20732855   3.070   4.764   4.379 -0.7962  0.9745  1.4684
   45MOL   H20832856   2.931   4.789   4.467 -2.3161 -1.0537  0.0262
   45MOL   H20932857   3.000   4.600   4.630  0.5340  0.4212  0.7644
   45MOL   H21032858   3.101   4.733   4.630 -2.1112  1.3519 -1.1062
   45MOL   H21132859   3.261   4.613   4.463  1.4966 -1.6349 -1.8043
   45MOL   H21232860   3.180   4.466   4.489 -2.3327  0.3540  1.5265
   45MOL   H21332861   3.341   4.620   4.692  2.5014  0.1495 -2.2685
   45MOL   H21432862   3.370   4.463   4.630 -0.9640 -1.3108  0.5199
   45MOL   H21532863   3.180   4.360   4.722  0.3706 -0.1979 -0.5993
   45MOL   H21632864   3.129   4.501   4.811 -1.7440 -1.7944 -0.6642
   45MOL   H21732865   3.239   4.376   4.976  0.1171 -0.0950 -0.0031
   45MOL   H21832866   3.343   4.499   4.955  3.0995 -0.6694 -0.2223
   45MOL   H21932867   3.476   4.363   4.785  0.0101  2.4149 -1.2840
   45MOL   H22032868   3.365   4.231   4.823 -0.7796  0.8309  1.4589
   45MOL   H22132869   3.462   4.228   5.059  0.5681 -1.9884 -0.9035
   45MOL   H22232870   3.563   4.368   5.014  4.3938 -2.5301  0.6466
   45MOL   H22332871   3.581   4.132   4.854 -1.9218 -0.4189  2.2631
   45MOL   C22432872   3.744   4.203   4.940 -0.6304 -0.6147 -0.3450
   45MOL   O22532873   3.799   4.288   5.014 -0.1649 -0.3885 -0.2880
   45MOL   C22632874   3.825   4.089   4.871  0.0105 -0.3469  0.5186
   45MOL   C22732875   3.898   4.140   4.742  0.5909 -0.0161 -0.4816
   45MOL   C22832876   4.037   4.203   4.750 -0.3334  0.4749 -0.2758
   45MOL   C22932877   4.101   4.242   4.611  0.2049  0.2515  0.6433
   45MOL   C23032878   4.124   4.124   4.517 -0.0382 -0.0472  0.1506
   45MOL   C23132879   4.218   4.017   4.569 -0.5259  0.3036 -0.2791
   45MOL   C23232880   4.267   3.924   4.450  0.5904  0.1992  0.4861
   45MOL   C23332881   4.370   3.816   4.490 -0.2241 -0.3917  0.6976
   45MOL   C23432882   4.446   3.768   4.354 -0.1443 -0.6943  0.0474
   45MOL   C23532883   4.564   3.669   4.375  0.0049  0.1375  0.0225
   45MOL   C23632884   4.612   3.606   4.241  0.1313 -0.5123  0.2332
   45MOL   N23732885   4.582   3.685   4.121  0.4416  0.1590  0.4649
   45MOL   H23832886   3.749   4.016   4.845 -1.7356  2.1693 -1.7807
   45MOL   H23932887   3.904   4.055   4.938 -0.3390 -1.7674  0.2179
   45MOL   H24032888   3.909   4.049   4.684  0.0047 -0.3077 -0.1460
   45MOL   H24132889   3.834   4.205   4.682  0.4052  0.0563 -0.2077
   45MOL   H24232890   4.105   4.149   4.815 -1.3844 -0.3893  0.1105
   45MOL   H24332891   4.032   4.296   4.807  1.8032  0.8978 -0.7465
   45MOL   H24432892   4.034   4.315   4.565 -2.9181 -2.2875  0.9974
   45MOL   H24532893   4.189   4.296   4.646 -0.6750  3.1783 -1.4335
   45MOL   H24632894   4.176   4.170   4.433 -0.8531 -0.0808 -0.3740
   45MOL   H24732895   4.033   4.085   4.472  0.8069 -0.1298 -1.5305
   45MOL   H24832896   4.182   3.957   4.652  0.3882 -1.7007 -1.2775
   45MOL   H24932897   4.305   4.066   4.614 -0.0059 -0.1378 -0.7873
   45MOL   H25032898   4.310   3.989   4.374 -1.2445  0.9285  0.0476
   45MOL   H25132899   4.179   3.877   4.407  1.8672 -0.4484 -1.5058
   45MOL   H25232900   4.344   3.724   4.542 -0.1983 -1.0248 -0.3973
   45MOL   H25332901   4.448   3.855   4.555  0.3124 -1.8537  0.9431
   45MOL   H25432902   4.492   3.850   4.298 -0.1059 -2.0078 -1.8842
   45MOL   H25532903   4.373   3.726   4.286 -1.4259  0.1784  0.8506
   45MOL   H25632904   4.537   3.597   4.453 -0.2427  0.2913  0.0776
   45MOL   H25732905   4.649   3.719   4.420  1.0439  0.8794 -2.6686
   45MOL   H25832906   4.562   3.510   4.233 -1.1710  0.0087  1.9050
   45MOL   H25932907   4.717   3.579   4.251 -0.0767 -0.9956  1.1065
   45MOL   H26032908   4.491   3.675   4.078  0.9389  1.8631 -1.0542
   45MOL   C26132909   4.630   3.806   4.090 -0.3643  0.1564  0.1993
   45MOL   O26232910   4.722   3.865   4.152  0.0719 -0.1501  0.2572
   45MOL   C26332911   4.567   3.884   3.970 -0.3661 -0.1906  0.2143
   45MOL   C26432912   4.553   4.031   3.994  0.4688  0.0884 -0.0581
   45MOL   C26532913   4.676   4.129   3.968 -0.5599  0.7674 -0.3541
   45MOL   C26632914   4.732   4.134   3.823  0.0172  0.0074 -0.4915
   45MOL   C26732915   4.844   4.242   3.808 -0.2971 -0.3190  0.5233
   45MOL   C26832916   4.933   4.231   3.688  0.6026  0.2250  0.1447
   45MOL   C26932917   5.060   4.321   3.693  0.7419  0.6586  0.0030
   45MOL   C27032918   5.155   4.285   3.582  0.0822  0.1564  0.8594
   45MOL   C27132919   5.289   4.350   3.577 -0.7593 -0.5020 -0.1776
   45MOL   C27232920   5.372   4.289   3.464  0.0059  0.0465  0.7703
   45MOL   C27332921   5.517   4.318   3.463 -0.3209  0.3987  0.0475
   45MOL   N27432922   5.592   4.266   3.342 -0.0183  0.1010 -0.2924
   45MOL   H27532923   4.470   3.838   3.951 -0.4853  0.7086 -1.3873
   45MOL   H27632924   4.637   3.872   3.888 -1.7910  1.4801 -1.3002
   45MOL   H27732925   4.470   4.053   3.926  0.2168 -1.2275 -0.1901
   45MOL   H27832926   4.504   4.051   4.090 -0.9991  2.1025 -1.1911
   45MOL   H27932927   4.763   4.112   4.031  0.6288  0.9167 -1.9403
   45MOL   H28032928   4.644   4.230   3.994 -0.4178  0.8372 -0.4519
   45MOL   H28132929   4.772   4.041   3.785  0.0700  0.3986 -1.4001
   45MOL   H28232930   4.658   4.157   3.747 -0.2309  1.8417  0.2695
   45MOL   H28332931   4.906   4.235   3.897  1.7365  0.2000 -0.8173
   45MOL   H28432932   4.800   4.341   3.811 -1.4067 -0.8103  0.7687
   45MOL   H28532933   4.887   4.244   3.590 -0.9124 -1.9361  0.5314
   45MOL   H28632934   4.966   4.128   3.700  0.2060  0.2269  1.3594
   45MOL   H28732935   5.108   4.299   3.788 -1.6411 -0.3043  1.0091
   45MOL   H28832936   5.059   4.430   3.693 -1.5017  0.6540 -0.1129
   45MOL   H28932937   5.104   4.308   3.488 -1.4093  1.4041  1.9391
   45MOL   H29032938   5.164   4.177   3.574  1.1142  0.1750  1.6526
   45MOL   H29132939   5.325   4.333   3.679 -1.2080 -0.6696 -0.0438
   45MOL   H29232940   5.288   4.459   3.572 -2.9357 -0.5487 -1.3086
   45MOL   H29332941   5.323   4.321   3.372  1.4910  1.2627  0.3873
   45MOL   H29432942   5.348   4.182   3.461 -2.0315  0.4677  1.0506
   45MOL   H29532943   5.559   4.265   3.548  0.9814 -1.0570 -1.4567
   45MOL   H29632944   5.537   4.422   3.488  3.6268 -0.9822  3.1963
   45MOL   H29732945   5.567   4.175   3.307 -3.5127  0.6460  0.6041
   45MOL   C29832946   5.697   4.321   3.283 -0.1584  0.1110 -0.8260
   45MOL   O29932947   5.760   4.417   3.339 -0.1416  0.2695 -0.0887
   45MOL   C30032948   5.732   4.267   3.144 -0.1202 -0.5304  0.5124
   45MOL   C30132949   5.757   4.377   3.042  0.2066 -0.1731 -0.0179
   45MOL   C30232950   5.839   4.338   2.921 -0.7994 -0.0325 -0.0651
   45MOL   C30332951   5.823   4.438   2.807 -0.8700  0.2890  0.4939
   45MOL   C30432952   5.928   4.418   2.700  0.3991 -0.1303  0.1502
   45MOL   C30532953   5.891   4.490   2.571 -0.5145  0.4360  0.4378
   45MOL   C30632954   5.984   4.455   2.456  0.4614 -0.2340  0.1594
   45MOL   C30732955   5.942   4.530   2.330 -0.4432 -0.2969 -0.0094
   45MOL   C30832956   5.808   4.485   2.272  0.2058  0.0032 -0.2973
   45MOL   C30932957   5.783   4.531   2.129 -0.2615  0.1049 -0.8304
   45MOL   C31032958   5.634   4.506   2.102 -0.1192 -0.5715  0.1163
   45MOL   N31132959   5.593   4.590   1.991 -0.4123 -0.3871  0.5339
   45MOL   H31232960   5.655   4.197   3.112 -0.2802 -0.7609  1.3781
   45MOL   H31332961   5.823   4.209   3.158 -0.5597 -1.2839  0.2758
   45MOL   H31432962   5.659   4.420   3.022  1.1645  1.8826 -0.5443
   45MOL   H31532963   5.807   4.464   3.086  1.1080  0.2340 -1.7904
   45MOL   H31632964   5.805   4.236   2.900 -1.5055  0.2270 -0.2015
   45MOL   H31732965   5.941   4.342   2.961 -0.0776  1.6634 -1.9729
   45MOL   H31832966   5.725   4.410   2.769 -1.2998  2.5722 -0.1082
   45MOL   H31932967   5.826   4.543   2.837  1.7426  0.9603 -1.9489
   45MOL   H32032968   5.943   4.313   2.675 -2.8571 -0.4447 -0.6954
   45MOL   H32132969   6.025   4.453   2.736 -0.5753  3.6665 -0.7170
   45MOL   H32232970   5.892   4.598   2.587  0.8380  0.6233 -0.7800
   45MOL   H32332971   5.786   4.476   2.545  0.5577 -1.7764 -3.0729
   45MOL   H32432972   5.982   4.349   2.434 -0.4346 -0.2553  0.3232
   45MOL   H32532973   6.091   4.460   2.475  0.7155 -0.4756 -1.1620
   45MOL   H32632974   6.026   4.530   2.260 -0.0143  1.0157  0.4820
   45MOL   H32732975   5.926   4.635   2.353  0.2551 -0.1621 -0.1372
   45MOL   H32832976   5.731   4.530   2.333  2.0389 -1.2763  3.1223
   45MOL   H32932977   5.793   4.378   2.286 -1.1064  0.2609  0.2876
   45MOL   H33032978   5.837   4.481   2.050 -0.1035  0.4394 -0.9352
   45MOL   H33132979   5.795   4.639   2.121  0.7077  0.1194  0.6652
   45MOL   H33232980   5.574   4.540   2.187  0.5676  1.4318 -0.1754
   45MOL   H33332981   5.621   4.401   2.073 -1.7586 -0.4700  0.3976
   45MOL   H33432982   5.659   4.664   1.968  0.5669 -0.6903  2.2325
   45MOL   C33532983   5.493   4.561   1.908  0.1051 -0.1380 -0.1789
   45MOL   O33632984   5.411   4.469   1.932 -0.2924  0.0450  0.1266
   45MOL   C33732985   5.480   4.642   1.781 -0.6856  0.6030  0.3879
   45MOL   C33832986   5.513   4.551   1.658 -0.1687 -0.1846 -0.1500
   45MOL   C33932987   5.662   4.547   1.627 -0.1567 -0.2012 -0.8394
   45MOL   C34032988   5.683   4.482   1.489 -0.1215  0.4023 -0.4301
   45MOL   C34132989   5.834   4.484   1.450 -0.7957 -0.2273  0.3086
   45MOL   C34232990   5.872   4.403   1.326  0.2670  0.0472  0.3719
   45MOL   C34332991   6.016   4.410   1.284  0.6426  0.4298 -0.4035
   45MOL   C34432992   6.042   4.440   1.139  0.8311 -0.6430 -0.8781
   45MOL   C34532993   6.191   4.472   1.099  0.9978 -0.1264 -0.4757
   45MOL   C34632994   6.197   4.507   0.949  0.1658  0.3494 -0.1271
   45MOL   C34732995   6.340   4.529   0.906 -0.1576 -0.3112 -0.2952
   45MOL   N34832996   6.327   4.579   0.771 -0.4801  0.0320 -0.6780
   45MOL   H34932997   5.558   4.718   1.784  0.2463 -0.3781  2.0964
   45MOL   H35032998   5.382   4.686   1.799 -0.2875  0.6170  2.7802
   45MOL   H35132999   5.471   4.451   1.658 -1.2823  0.2794 -0.0795
   45MOL   H35233000   5.466   4.597   1.571 -0.5778  1.2859  0.8334
   45MOL   H35333001   5.713   4.493   1.707  0.7248  2.9828  0.8401
   45MOL   H35433002   5.704   4.648   1.633  0.0618 -0.3452  0.0578
   45MOL   H35533003   5.653   4.377   1.483  0.1730  0.3549 -1.1734
   45MOL   H35633004   5.617   4.537   1.421 -0.5859 -1.0251 -1.1578
   45MOL   H35733005   5.877   4.431   1.535  0.8704  1.4431  0.5152
   45MOL   H35833006   5.878   4.583   1.443 -1.9862  0.2824 -0.1061
   45MOL   H35933007   5.811   4.421   1.238  1.7362 -2.5488 -1.2630
   45MOL   H36033008   5.842   4.301   1.351 -3.0806  1.2704  1.5023
   45MOL   H36133009   6.059   4.313   1.307 -2.6125 -1.3317 -1.3950
   45MOL   H36233010   6.074   4.475   1.349  0.6584  0.5835 -0.5679
   45MOL   H36333011   5.978   4.524   1.112  1.6975 -0.0009 -0.9826
   45MOL   H36433012   6.020   4.351   1.080  0.5442  0.8507 -3.0822
   45MOL   H36533013   6.260   4.392   1.127  0.4106  0.1827  1.9846
   45MOL   H36633014   6.221   4.557   1.160 -0.3012 -0.5090  0.7248
   45MOL   H36733015   6.134   4.593   0.927  0.6056  1.2020  1.9055
   45MOL   H36833016   6.151   4.421   0.900  0.1647  1.2493 -1.7649
   45MOL   H36933017   6.393   4.435   0.895  1.9748  0.7829  0.4314
   45MOL   H37033018   6.393   4.595   0.973  3.7307 -1.8079 -1.7771
   45MOL   H37133019   6.239   4.555   0.727 -0.3019 -1.5858 -0.1598
   45MOL   C37233020   6.404   4.666   0.713 -0.2920  0.2949  0.1722
   45MOL   O37333021   6.503   4.720   0.770  0.2223  0.6673 -0.2227
   45MOL   C37433022   6.368   4.697   0.567  0.0333  0.3700 -0.3845
   45MOL   C37533023   6.488   4.717   0.475  0.1194  0.4982  0.5550
   45MOL   C37633024   6.593   4.605   0.469 -0.5759  0.0454  0.0594
   45MOL   C37733025   6.717   4.650   0.390  0.7531 -0.1038  1.2746
   45MOL   C37833026   6.833   4.554   0.427 -0.1701  0.7150  0.5121
   45MOL   C37933027   6.955   4.602   0.355  0.4406  0.0587  0.1024
   45MOL   C38033028   7.071   4.502   0.370  0.0314 -0.7430  0.0951
   45MOL   C38133029   7.191   4.542   0.291  0.3919  1.2620  0.0205
   45MOL   C38233030   7.293   4.636   0.365  0.0033  0.5169 -0.0585
   45MOL   C38333031   7.245   4.783   0.377  0.0770  0.2534  0.6973
   45MOL   C38433032   7.286   4.841   0.517  0.3140 -0.2788 -1.0063
   45MOL   N38533033   7.428   4.840   0.535  0.2884  0.1046 -0.1261
   45MOL   H38633034   6.305   4.786   0.567 -1.0526 -0.3729 -2.2482
   45MOL   H38733035   6.301   4.624   0.522 -1.1943  1.7573 -0.8281
   45MOL   H38833036   6.453   4.731   0.372  1.2304 -0.7713 -0.0135
   45MOL   H38933037   6.540   4.809   0.502 -0.1821  0.3493  1.6531
   45MOL   H39033038   6.535   4.526   0.422 -0.1778 -1.6445  2.3700
   45MOL   H39133039   6.625   4.574   0.568  0.0440 -1.5101 -0.6129
   45MOL   H39233040   6.693   4.648   0.284 -2.1496 -1.3575  1.8913
   45MOL   H39333041   6.742   4.754   0.409 -2.1525  0.9215 -0.2298
   45MOL   H39433042   6.805   4.452   0.398 -0.9351  1.2886 -0.8041
   45MOL   H39533043   6.851   4.554   0.534 -0.4991 -0.2686  0.5699
   45MOL   H39633044   6.984   4.686   0.418 -1.6717  1.3029 -0.5459
   45MOL   H39733045   6.951   4.628   0.250  0.7175  1.5685  0.4517
   45MOL   H39833046   7.036   4.403   0.341 -0.7075 -0.2025 -0.9228
   45MOL   H39933047   7.099   4.479   0.473 -1.7865 -0.1562  0.7275
   45MOL   H40033048   7.173   4.566   0.186  2.9098 -0.5264 -0.8733
   45MOL   H40133049   7.248   4.450   0.274 -0.7539 -0.0127  2.8856
   45MOL   H40233050   7.393   4.630   0.322  0.0898 -0.4613  0.2792
   45MOL   H40333051   7.291   4.605   0.469 -0.0181 -2.9954 -1.0363
   45MOL   H40433052   7.144   4.801   0.341 -0.4591 -1.7729  1.1260
   45MOL   H40533053   7.297   4.835   0.297  0.0195  1.0494  1.1722
   45MOL   H40633054   7.236   4.780   0.592  2.4539 -1.6610 -0.6750
   45MOL   H40733055   7.246   4.942   0.528  0.7346  0.0169 -2.1282
   45MOL   H40833056   7.482   4.906   0.481  1.9685 -0.1005  1.2672
   45MOL   C40933057   7.504   4.759   0.604 -0.0658  0.3811  0.1888
   45MOL   O41033058   7.457   4.672   0.668 -0.0746  0.2867 -0.5488
   45MOL   C41133059   7.656   4.795   0.602  0.6173 -0.2344  0.0066
   45MOL   C41233060   0.051   4.682   0.567 -0.1249  0.6944  0.8487
   45MOL   C41333061   0.193   4.706   0.616  0.0839  0.6549  0.4260
   45MOL   C41433062   0.282   4.577   0.597  0.2481 -0.0906 -0.0588
   45MOL   C41533063   0.409   4.602   0.680 -0.0344  0.0137 -0.0437
   45MOL   C41633064   0.499   4.717   0.629 -0.8258  0.1712 -0.2553
   45MOL   C41733065   0.624   4.739   0.721 -0.5011  0.7106  0.2071
   45MOL   C41833066   0.719   4.853   0.690 -0.3538  0.0894 -0.9742
   45MOL   C41933067   0.794   4.832   0.565  0.7157 -0.2861  0.4434
   45MOL   C42033068   0.908   4.931   0.557  0.0307 -0.5685 -0.4094
   45MOL   C42133069   1.004   4.926   0.438  0.5047  0.4613 -0.1993
   45MOL   N42233070   1.103   5.031   0.452 -0.1033  0.8685  0.3990
   45MOL   H42333071   7.669   4.835   0.702 -2.7219  1.3711 -0.1469
   45MOL   H42433072   7.679   4.880   0.537  2.6630 -1.2288 -0.6305
   45MOL   H42533073   0.021   4.587   0.610  3.1828 -0.5430  0.5462
   45MOL   H42633074   0.049   4.667   0.459 -2.3980 -0.8930  1.0931
   45MOL   H42733075   0.192   4.731   0.722  1.8770  0.9217  0.3827
   45MOL   H42833076   0.237   4.789   0.561  0.1736  0.7021  0.5698
   45MOL   H42933077   0.228   4.488   0.630 -2.0824  1.0307 -0.7943
   45MOL   H43033078   0.302   4.563   0.491  0.2445 -1.0331  0.0611
   45MOL   H43133079   0.466   4.509   0.694 -0.5114 -0.5893 -1.8842
   45MOL   H43233080   0.387   4.620   0.785  0.1885  0.1908 -0.0270
   45MOL   H43333081   0.460   4.817   0.609  1.0278  0.6475 -1.6526
   45MOL   H43433082   0.543   4.690   0.533  0.5288 -1.1295  0.7322
   45MOL   H43533083   0.680   4.646   0.722 -3.1606 -0.9349  0.3775
   45MOL   H43633084   0.588   4.760   0.822 -0.3658  1.6908  0.0630
   45MOL   H43733085   0.792   4.860   0.771  1.1606 -0.7592 -2.2460
   45MOL   H43833086   0.656   4.940   0.672 -1.2975 -0.5248 -0.7021
   45MOL   H43933087   0.726   4.838   0.480 -0.0376 -0.3882  1.0249
   45MOL   H44033088   0.840   4.734   0.554 -0.3893 -0.9596  1.6172
   45MOL   H44133089   0.965   4.923   0.650 -1.2849  1.1339  0.5905
   45MOL   H44233090   0.865   5.031   0.554 -2.0928 -1.3712  1.4766
   45MOL   H44333091   0.957   4.954   0.344 -0.5405  3.6674  1.2161
   45MOL   H44433092   1.047   4.826   0.433  2.5632  1.3475 -0.5943
   45MOL   H44533093   1.082   5.091   0.530 -1.2395  0.1107  0.6823
   45MOL   C44633094   1.224   5.044   0.390  0.7031  0.4883 -0.1063
   45MOL   O44733095   1.260   4.968   0.304 -0.7116  0.0377 -0.1557
   45MOL   C44833096   1.313   5.163   0.429 -0.0186 -0.2847  0.1443
   45MOL   C44933097   1.418   5.137   0.538  0.1669  0.3563  0.4241
   45MOL   C45033098   1.369   5.135   0.687  0.2278  0.0697 -0.6607
   45MOL   C45133099   1.481   5.076   0.772 -0.0560  0.5262  0.8071
   45MOL   C45233100   1.427   5.025   0.909 -0.1864 -0.4507  0.4309
   45MOL   C45333101   1.544   4.981   0.997 -0.0570  0.2175  0.5698
   45MOL   C45433102   1.618   5.098   1.054 -0.2535 -0.0528 -0.2704
   45MOL   C45533103   1.700   5.064   1.182 -0.4828 -0.3280 -0.6525
   45MOL   C45633104   1.712   5.189   1.279 -0.1634 -0.3410  0.2804
   45MOL   C45733105   1.853   5.189   1.343  0.0896  0.5539  0.3018
   45MOL   C45833106   1.862   5.300   1.448 -0.0726 -0.2796  0.1939
   45MOL   N45933107   1.997   5.323   1.497 -0.1912  0.1776 -0.2516
   45MOL   H46033108   1.247   5.242   0.466  0.3488  0.4836 -0.8208
   45MOL   H46133109   1.360   5.195   0.336  1.3763 -0.7426  0.6787
   45MOL   H46233110   1.455   5.039   0.508  1.4174  1.4601 -1.6987
   45MOL   H46333111   1.504   5.201   0.521  0.1970 -0.1605 -1.4290
   45MOL   H46433112   1.281   5.073   0.700 -0.6395  1.4697  0.2790
   45MOL   H46533113   1.335   5.233   0.721 -0.8219 -0.4559 -0.1713
   45MOL   H46633114   1.530   4.988   0.731 -0.9497  0.1289  0.5914
   45MOL   H46733115   1.564   5.147   0.776 -0.0431  0.5526  0.1791
   45MOL   H46833116   1.363   4.940   0.885 -1.0323 -0.1190  1.4722
   45MOL   H46933117   1.352   5.086   0.961 -0.0528 -0.4881  0.6683
   45MOL   H47033118   1.603   4.909   0.940 -1.5547  0.4440 -1.3324
   45MOL   H47133119   1.499   4.930   1.083 -0.6442  0.5550  0.4684
   45MOL   H47233120   1.540   5.166   1.089  0.8516  1.1463 -0.0856
   45MOL   H47333121   1.677   5.156   0.983 -0.4311  1.2082  0.6007
   45MOL   H47433122   1.799   5.023   1.162  0.4312  2.2559 -1.7315
   45MOL   H47533123   1.645   4.986   1.235 -3.6380  1.8401 -0.5762
   45MOL   H47633124   1.638   5.204   1.357  0.2595 -0.1786  0.6471
   45MOL   H47733125   1.694   5.277   1.217  1.6685  0.6326  1.0978
   45MOL   H47833126   1.923   5.208   1.263  0.9897  1.4330  1.2948
   45MOL   H47933127   1.880   5.090   1.379  0.9206  0.3600 -0.8223
   45MOL   H48033128   1.795   5.273   1.530  2.1022 -1.9010  1.5184
   45MOL   H48133129   1.822   5.391   1.404 -0.2573 -0.2927  0.3337
   45MOL   H48233130   2.075   5.307   1.435 -0.2185  2.3827 -0.9069
   45MOL   C48333131   2.024   5.404   1.597  0.1082  0.4400 -0.0063
   45MOL   O48433132   1.935   5.425   1.681 -0.8712  0.7971 -0.0861
   45MOL   C48533133   2.167   5.445   1.634 -1.1301 -0.7552 -0.5430
   45MOL   C48633134   2.192   5.601   1.639 -0.0038  0.8582 -0.4392
   45MOL   C48733135   2.180   5.684   1.513 -0.0277  0.3145  0.0833
   45MOL   C48833136   2.303   5.661   1.430 -0.6034  1.0252 -0.6789
   45MOL   C48933137   2.292   5.705   1.287  0.6677 -0.0756  0.0190
   45MOL   C49033138   2.239   5.844   1.267  0.1652 -0.7973 -0.0720
   45MOL   C49133139   2.346   5.955   1.291  0.2970 -0.8281  0.3370
   45MOL   C49233140   2.273   6.090   1.279 -0.0345  0.1194  0.7583
   45MOL   C49333141   2.367   6.211   1.296  0.8352  0.2691 -0.3956
   45MOL   C49433142   2.486   6.220   1.203 -0.0594 -0.1781 -0.1051
   45MOL   C49533143   2.580   6.334   1.246  0.5207  0.5421  0.3087
   45MOL   N49633144   2.685   6.370   1.151  0.0755  0.0540 -0.9617
   45MOL   H49733145   2.237   5.397   1.566 -1.4356 -0.8722 -0.7723
   45MOL   H49833146   2.179   5.400   1.733 -0.2492 -2.0122 -1.2067
   45MOL   H49933147   2.123   5.635   1.716 -0.7664 -0.5866 -0.4604
   45MOL   H50033148   2.291   5.617   1.681  1.0653 -2.7444 -1.3737
   45MOL   H50133149   2.156   5.787   1.536  0.5102  0.5263 -0.2976
   45MOL   H50233150   2.096   5.645   1.457  0.0583  0.4272 -0.1213
   45MOL   H50333151   2.384   5.727   1.459 -0.7254  1.3597 -1.0930
   45MOL   H50433152   2.333   5.556   1.437 -3.7461  0.0585 -0.5869
   45MOL   H50533153   2.227   5.632   1.237  0.2549  0.7990 -0.7424
   45MOL   H50633154   2.383   5.702   1.228  0.3157  0.1988 -0.5444
   45MOL   H50733155   2.155   5.873   1.330  2.7595 -0.5825  3.4404
   45MOL   H50833156   2.201   5.849   1.165  0.3459  2.2785 -0.0395
   45MOL   H50933157   2.419   5.946   1.210 -1.5239  2.4665 -1.8103
   45MOL   H51033158   2.397   5.948   1.387 -0.4008  0.5083  0.8142
   45MOL   H51133159   2.188   6.102   1.347  0.1260  0.1774  0.9490
   45MOL   H51233160   2.227   6.099   1.181  1.7590 -0.0832 -0.1268
   45MOL   H51333161   2.408   6.219   1.397 -2.3614 -1.0149  1.0818
   45MOL   H51433162   2.300   6.295   1.276 -1.4071 -1.4311 -0.2523
   45MOL   H51533163   2.453   6.244   1.102 -0.4097 -0.3309 -0.0278
   45MOL   H51633164   2.549   6.133   1.186  0.4186  0.3736 -1.2555
   45MOL   H51733165   2.616   6.310   1.346 -2.5536  1.9537  1.8455
   45MOL   H51833166   2.511   6.415   1.273  0.5474  0.2543  1.2459
   45MOL   H51933167   2.675   6.457   1.100  0.4861 -1.3113 -3.4110
   45MOL   C52033168   2.794   6.291   1.135 -0.0699  0.5973  0.1006
   45MOL   O52133169   2.815   6.180   1.185 -0.5801  0.0562  0.0352
   45MOL   C52233170   2.899   6.355   1.043 -0.0960  0.3156  0.7926
   45MOL   C52333171   2.988   6.259   0.966  0.3354  0.8274 -0.9602
   45MOL   C52433172   2.904   6.197   0.861  0.2189  0.1566  0.2748
   45MOL   C52533173   2.974   6.112   0.748 -0.1217 -0.7284  0.0823
   45MOL   C52633174   2.876   6.025   0.665 -0.5663 -0.2543 -0.3964
   45MOL   C52733175   2.777   6.109   0.582 -0.5391  0.7023 -0.3453
   45MOL   C52833176   2.687   6.032   0.484 -0.4247 -0.1043 -0.8621
   45MOL   C52933177   2.573   6.123   0.432  0.3468 -0.3410  0.0030
   45MOL   C53033178   2.441   6.046   0.420  0.1732  0.4640 -0.4268
   45MOL   C53133179   2.332   6.104   0.337  0.5736  0.5615  0.1885
   45MOL   C53233180   2.196   6.039   0.362  0.0055  0.5701 -0.2285
   45MOL   N53333181   2.095   6.080   0.265  0.0257  0.0652 -0.5360
   45MOL   H53433182   2.961   6.428   1.095  2.3889  1.2350 -3.3008
   45MOL   H53533183   2.835   6.416   0.979  0.5391 -0.3119 -0.4588
   45MOL   H53633184   3.074   6.314   0.927  0.7514 -0.2643 -1.6179
   45MOL   H53733185   3.025   6.178   1.028 -1.1417  0.5718 -0.3989
   45MOL   H53833186   2.847   6.277   0.813  0.5853 -1.0170 -2.1897
   45MOL   H53933187   2.828   6.135   0.908 -2.6236  1.4692 -2.3592
   45MOL   H54033188   3.043   6.169   0.687 -0.3094  0.5522  1.0343
   45MOL   H54133189   3.042   6.045   0.800  1.9279  0.7763 -0.5880
   45MOL   H54233190   2.818   5.970   0.739 -1.8147 -0.3180 -1.4006
   45MOL   H54333191   2.936   5.953   0.609  2.5189  0.5226  1.7771
   45MOL   H54433192   2.837   6.180   0.525 -0.4183  1.6259  0.8799
   45MOL   H54533193   2.724   6.176   0.650  2.3707  2.4487  0.2759
   45MOL   H54633194   2.651   5.938   0.526 -0.1223  0.8840  1.6994
   45MOL   H54733195   2.739   5.994   0.396 -1.0627 -1.3677 -0.7115
   45MOL   H54833196   2.602   6.165   0.335  3.2105 -0.7422  0.6297
   45MOL   H54933197   2.545   6.206   0.496 -0.9250  0.3691 -1.4380
   45MOL   H55033198   2.413   6.030   0.524  0.7693 -0.1738 -0.3621
   45MOL   H55133199   2.457   5.944   0.385  0.2052  0.3866 -0.1908
   45MOL   H55233200   2.366   6.107   0.234  3.9829  3.1247  1.3032
   45MOL   H55333201   2.326   6.211   0.354 -0.8329  0.5445 -0.1658
   45MOL   H55433202   2.161   6.059   0.463  2.4286  0.7978  0.5889
   45MOL   H55533203   2.200   5.931   0.345  2.4517  0.5413  0.3417
   45MOL   H55633204   2.121   6.163   0.214  1.0350 -0.3613 -0.7175
   45MOL   C55733205   1.978   6.022   0.235  0.1429 -0.5053 -0.0606
   45MOL   O55833206   1.927   5.927   0.295  0.0104  0.3447  0.6269
   45MOL   C55933207   1.911   6.073   0.108 -0.5793  0.1693 -0.4691
   45MOL   C56033208   1.923   5.962   7.687  0.1078  0.1308  0.0321
   45MOL   C56133209   1.891   6.027   7.556  0.1185 -0.1189 -0.5630
   45MOL   C56233210   1.918   5.934   7.435 -1.1290 -0.4710  0.1096
   45MOL   C56333211   1.934   6.009   7.305 -0.2712  0.3630 -1.1060
   45MOL   C56433212   1.936   5.913   7.190  0.0270 -0.7352 -0.2845
   45MOL   C56533213   1.893   5.973   7.063 -0.7148  0.5194 -0.3320
   45MOL   C56633214   1.916   5.866   6.959  0.5247  0.1199 -0.2301
   45MOL   C56733215   1.875   5.886   6.818  0.2436 -0.3651  0.0672
   45MOL   C56833216   1.724   5.881   6.800  0.2414 -0.4461 -0.1378
   45MOL   C56933217   1.673   5.847   6.665 -0.0092 -0.1094  0.5445
   45MOL   N57033218   1.708   5.714   6.628  0.1406 -0.2219 -0.3483
   45MOL   H57133219   1.959   6.168   0.084 -0.1885  0.8345  2.7091
   45MOL   H57233220   1.808   6.083   0.140 -0.5322 -1.5416  0.2526
   45MOL   H57333221   2.018   5.908   7.690  0.2311  0.2725 -1.1945
   45MOL   H57433222   1.847   5.884   7.690  1.6948 -1.4276  1.0158
   45MOL   H57533223   1.942   6.121   7.536 -1.0079  1.3270  2.9969
   45MOL   H57633224   1.786   6.056   7.555  1.0599  3.4709 -0.9776
   45MOL   H57733225   2.005   5.870   7.452 -0.1551  0.2307 -2.0227
   45MOL   H57833226   1.824   5.879   7.436 -0.2299 -2.0070  0.7914
   45MOL   H57933227   2.032   6.054   7.295  0.2806 -0.0398  2.2128
   45MOL   H58033228   1.859   6.087   7.290  0.5686  1.2819 -0.5244
   45MOL   H58133229   1.858   5.839   7.210  1.4951 -2.1281  0.3752
   45MOL   H58233230   2.037   5.876   7.176  1.4249  2.9497 -0.6803
   45MOL   H58333231   1.960   6.053   7.031  0.2435 -0.0426  0.2488
   45MOL   H58433232   1.790   6.009   7.070 -1.0506 -0.8465  2.2402
   45MOL   H58533233   1.870   5.775   6.998  2.3671 -1.0319 -0.6879
   45MOL   H58633234   2.023   5.844   6.964  0.4898 -0.3491 -1.4534
   45MOL   H58733235   1.918   5.816   6.746 -0.4600 -1.3722  0.6033
   45MOL   H58833236   1.901   5.988   6.791 -4.3067  1.1719  0.9805
   45MOL   H58933237   1.673   5.970   6.838 -1.0958 -0.9098 -0.8296
   45MOL   H59033238   1.684   5.804   6.866  1.5287 -0.5896  0.5123
   45MOL   H59133239   1.705   5.914   6.586 -0.1098 -0.4454  0.2172
   45MOL   H59233240   1.565   5.858   6.673  0.1200  1.4286  0.3102
   45MOL   H59333241   1.805   5.698   6.607 -0.2349 -1.1736 -1.4994
   45MOL   C59433242   1.628   5.604   6.609  0.2561  0.0035  0.4064
   45MOL   O59533243   1.506   5.611   6.621  0.1626  0.4363  0.6711
   45MOL   C59633244   1.694   5.469   6.569 -0.3587  0.6918 -0.1027
   45MOL   C59733245   1.615   5.350   6.539  0.0656 -1.2053  0.4345
   45MOL   C59833246   1.523   5.295   6.648  0.4751  0.1365  0.0706
   45MOL   C59933247   1.452   5.157   6.623 -0.4907  0.1853 -0.3924
   45MOL   C60033248   1.470   5.063   6.745 -0.0283  0.1286  0.2212
   45MOL   C60133249   1.405   4.928   6.721 -0.0337  0.4191  0.3887
   45MOL   C60233250   1.420   4.824   6.836  0.1986  1.3431 -0.1790
   45MOL   C60333251   1.369   4.890   6.969 -0.0870  0.2362  0.1223
   45MOL   C60433252   1.328   4.783   7.067 -0.1051  0.2191  0.1941
   45MOL   C60533253   1.195   4.722   7.039  0.1086 -0.8867  0.3462
   45MOL   C60633254   1.114   4.666   7.151  0.6928  0.4077 -0.0703
   45MOL   N60733255   1.189   4.571   7.232  0.6472 -0.6936  0.5406
   45MOL   H60833256   1.768   5.448   6.646 -0.7709  0.6599  0.2919
   45MOL   H60933257   1.742   5.487   6.473  0.2667  0.2568  0.1229
   45MOL   H61033258   1.552   5.370   6.452  1.3025  0.2984 -0.1394
   45MOL   H61133259   1.688   5.276   6.506  1.4422  0.5085 -0.4427
   45MOL   H61233260   1.457   5.378   6.675  3.4231  2.6702 -0.2477
   45MOL   H61333261   1.587   5.295   6.736 -2.9117  1.4041  2.6806
   45MOL   H61433262   1.349   5.167   6.588 -0.4167 -0.2650 -0.7321
   45MOL   H61533263   1.503   5.101   6.546  2.5595 -0.8913  2.3128
   45MOL   H61633264   1.430   5.109   6.836 -1.4284  1.0681 -0.8584
   45MOL   H61733265   1.577   5.045   6.760  0.4706 -0.5214 -3.6668
   45MOL   H61833266   1.441   4.881   6.629 -0.0438 -0.2281  0.7136
   45MOL   H61933267   1.299   4.945   6.705 -0.6836 -1.1261  2.8336
   45MOL   H62033268   1.519   4.785   6.859 -0.7893  0.1628  2.2012
   45MOL   H62133269   1.379   4.726   6.812  1.2677  0.8219  0.1000
   45MOL   H62233270   1.297   4.970   6.957  0.2847  0.7087  1.0196
   45MOL   H62333271   1.451   4.951   7.006  0.5305 -0.0866 -0.6905
   45MOL   H62433272   1.326   4.818   7.170 -3.0022  0.1225  0.2273
   45MOL   H62533273   1.409   4.712   7.082 -0.0770  0.2429  0.1542
   45MOL   H62633274   1.210   4.638   6.972  2.0185 -0.2424 -0.0652
   45MOL   H62733275   1.129   4.802   7.004 -0.3785 -1.0118  0.9720
   45MOL   H62833276   1.030   4.608   7.113  0.7971  0.1508  0.0876
   45MOL   H62933277   1.079   4.745   7.216  0.5625 -0.6966  1.2278
   45MOL   H63033278   1.280   4.548   7.195  1.4788  2.1157  0.7124
   45MOL   C63133279   1.154   4.535   7.356 -0.5342  0.1711 -0.0925
   45MOL   O63233280   1.061   4.584   7.415 -0.0461 -0.4321  0.1651
   45MOL   C63333281   1.260   4.450   7.427 -0.0148  0.2878 -0.1069
   45MOL   C63433282   1.211   4.386   7.557 -0.2164  0.4234  0.3160
   45MOL   C63533283   1.301   4.269   7.596  0.0793  0.1944  0.0635
   45MOL   C63633284   1.212   4.164   7.670 -0.0365 -0.0671 -0.5719
   45MOL   C63733285   1.099   4.097   7.596  0.3202 -0.2506 -0.2541
   45MOL   C63833286   1.040   3.976   7.661 -0.8774  0.2393 -0.3314
   45MOL   C63933287   0.935   3.914   7.561  0.0901 -0.5633 -0.1736
   45MOL   C64033288   0.803   3.880   7.630  0.1983 -0.4492 -0.0585
   45MOL   C64133289   0.691   3.827   7.536 -0.4530  0.5921 -0.6967
   45MOL   C64233290   0.563   3.789   7.592  0.1778  0.2526  0.7523
   45MOL   C64333291   0.459   3.754   7.477  0.0813 -0.1184  0.4433
   45MOL   N64433292   0.345   3.691   7.536 -0.0489  0.0632  0.2298
   45MOL   H64533293   1.346   4.515   7.441 -0.6460  1.2527 -0.7277
   45MOL   H64633294   1.293   4.365   7.366  1.5121  2.0567 -1.8088
   45MOL   H64733295   1.201   4.464   7.632 -0.6306 -0.1981  0.9164
   45MOL   H64833296   1.110   4.348   7.539 -1.5173  1.5487  4.6146
   45MOL   H64933297   1.388   4.306   7.650 -0.2344 -0.4421  1.0250
   45MOL   H65033298   1.343   4.219   7.508  1.2956  2.1884 -0.5367
   45MOL   H65133299   1.271   4.085   0.022  0.4146 -0.1051 -1.2297
   45MOL   H65233300   1.167   4.208   0.065  0.6615  0.4515 -0.4722
   45MOL   H65333301   1.136   4.087   7.494 -1.5516 -0.9439 -0.8863
   45MOL   H65433302   1.017   4.167   7.583  0.2569 -0.3792 -0.5496
   45MOL   H65533303   0.988   4.004   0.059 -1.4659 -1.3070 -0.1671
   45MOL   H65633304   1.104   3.896   0.006  1.5660  1.5718 -1.5212
   45MOL   H65733305   0.978   3.823   7.521  0.1758  0.0730 -1.5571
   45MOL   H65833306   0.898   3.983   7.486 -2.0755 -0.8821  0.5393
   45MOL   H65933307   0.753   3.962   7.681 -0.5805 -0.7481 -0.3299
   45MOL   H66033308   0.815   3.803   0.013  0.7785  0.0974  0.4059
   45MOL   H66133309   0.736   3.745   7.480 -1.4056  0.6000 -1.4805
   45MOL   H66233310   0.671   3.903   7.461  1.7270 -0.5590 -2.5185
   45MOL   H66333311   0.532   3.870   7.658  1.7322 -1.3119  3.5589
   45MOL   H66433312   0.578   3.696   7.647 -0.1503 -0.5397 -0.4804
   45MOL   H66533313   0.508   3.695   7.400  0.7759  0.1412  0.6804
   45MOL   H66633314   0.437   3.846   7.423  0.0968 -0.0891  0.4856
   45MOL   H66733315   0.343   3.690   7.637  2.4974 -0.0539  0.3025
   45MOL   C66833316   0.240   3.657   7.469  0.2767  0.2208  0.5479
   45MOL   O66933317   0.222   3.695   7.356  0.1236 -1.3752 -0.4008
   45MOL   C67033318   0.150   3.559   7.540 -0.3588 -0.3893  0.0685
   45MOL   C67133319   0.202   3.422   7.576 -0.3732 -0.1363  0.2350
   45MOL   C67233320   0.236   3.346   7.440 -0.0956 -0.3808  0.3453
   45MOL   C67333321   0.110   3.288   7.379 -0.5449 -0.6305  0.4727
   45MOL   C67433322   0.140   3.204   7.263  0.6363 -0.4999  0.3351
   45MOL   C67533323   0.026   3.184   7.162  0.4864  0.1701  0.4077
   45MOL   C67633324   0.051   3.096   7.038  0.8488  0.4158  0.1233
   45MOL   C67733325   0.036   2.946   7.066 -0.9965  0.2501 -0.6006
   45MOL   C67833326   0.034   2.871   6.930  0.2577  0.3956 -0.3082
   45MOL   C67933327   0.042   2.718   6.952  0.1903 -0.9035 -0.4191
   45MOL   C68033328   0.093   2.635   6.838  1.0358 -0.4004 -0.5420
   45MOL   N68133329   0.026   2.674   6.718 -0.4606  0.0931 -0.5419
   45MOL   H68233330   0.065   3.563   7.472 -0.0494 -0.1483 -0.3046
   45MOL   H68333331   0.125   3.612   7.632  0.6316 -0.6808  0.5151
   45MOL   H68433332   0.295   3.428   7.631  1.6894 -0.2310 -3.0708
   45MOL   H68533333   0.130   3.377   7.644  1.9537  0.0451  2.8540
   45MOL   H68633334   0.318   3.277   7.463  2.4577  2.8513  1.4167
   45MOL   H68733335   0.281   3.416   7.369 -0.8192 -0.0744  0.1868
   45MOL   H68833336   0.060   3.234   7.460 -0.1061  1.5052  2.2266
   45MOL   H68933337   0.047   3.371   7.347  2.3660  1.7117  0.5837
   45MOL   H69033338   0.157   3.109   7.315 -2.1922  0.2892  2.8765
   45MOL   H69133339   0.234   3.236   7.218  0.0169 -1.5579 -1.7862
   45MOL   H69233340   7.693   3.283   7.127 -0.1106 -0.1280  0.0002
   45MOL   H69333341   7.637   3.142   7.220  0.3739 -1.2113 -0.7158
   45MOL   H69433342   0.143   3.126   6.989  0.1410 -0.5404 -1.8397
   45MOL   H69533343   7.669   3.136   6.972 -2.1133 -2.4269  1.6524
   45MOL   H69633344   7.648   2.927   7.136  0.3470  0.5014  1.0457
   45MOL   H69733345   0.120   2.914   7.126 -2.7230 -1.2901  1.0623
   45MOL   H69833346   0.114   2.905   6.864  1.5941 -1.3738  0.3435
   45MOL   H69933347   7.631   2.886   6.884  1.2560  1.2708 -2.1832
   45MOL   H70033348   7.636   2.680   6.971 -1.2393  3.6889  2.1631
   45MOL   H70133349   0.114   2.693   7.030  1.1360  0.5310 -0.7979
   45MOL   H70233350   0.083   2.527   6.851 -1.1133  0.1026  2.2544
   45MOL   H70333351   0.200   2.655   6.831  0.9268  0.0729 -0.8679
   45MOL   H70433352   7.635   2.726   6.733  0.1756  0.7191  1.0444
   45MOL   C70533353   0.080   2.651   6.599 -0.3595  0.1214  0.2579
   45MOL   O70633354   0.188   2.587   6.581 -0.3684  0.3058 -0.0887
   45MOL   C70733355   7.688   2.679   6.475  0.2611  0.1177 -0.8297
   45MOL   C70833356   0.061   2.706   6.340  0.0720  0.4280  0.2945
   45MOL   C70933357   0.133   2.835   6.317  0.1950 -0.3662  0.1725
   45MOL   C71033358   0.210   2.824   6.174  0.2303  0.4728 -0.2067
   45MOL   C71133359   0.293   2.946   6.136  0.5387  0.2071  0.2323
   45MOL   C71233360   0.367   2.921   5.999 -0.8368  0.0033 -0.9591
   45MOL   C71333361   0.452   3.038   5.963 -0.2705  0.4216  0.4001
   45MOL   C71433362   0.492   3.013   5.812  0.1763  0.1697 -0.0002
   45MOL   C71533363   0.611   3.096   5.766  1.3625  0.2203 -0.0092
   45MOL   C71633364   0.659   3.045   5.631 -0.2999  0.5952  0.9163
   45MOL   C71733365   0.761   3.133   5.559  0.4002 -0.5038 -0.0223
   45MOL   N71833366   0.780   3.080   5.425 -0.0014  0.0139  0.1212
   45MOL   H71933367   7.621   2.760   6.503  0.2276  0.1939 -1.1266
   45MOL   H72033368   7.621   2.594   6.465  1.1255 -0.5859 -0.7057
   45MOL   H72133369   0.136   2.629   6.320  0.5858  0.9598  0.1648
   45MOL   H72233370   7.677   2.698   6.264  1.6041 -0.4920 -1.2186
   45MOL   H72333371   0.207   2.858   6.393  0.1058 -0.1392  0.1909
   45MOL   H72433372   0.059   2.914   6.307 -1.7038 -2.1925 -0.6900
   45MOL   H72533373   0.280   2.740   6.168  2.0111  1.9289 -0.2244
   45MOL   H72633374   0.128   2.813   6.104 -0.5651 -1.3277  0.9639
   45MOL   H72733375   0.361   2.968   6.218  0.3168  3.5655 -0.4235
   45MOL   H72833376   0.231   3.035   6.126 -0.7071 -0.6089  0.4926
   45MOL   H72933377   0.299   2.913   5.914 -0.5140 -0.9881 -1.1355
   45MOL   H73033378   0.434   2.835   6.005 -1.3306 -0.2166  2.8457
   45MOL   H73133379   0.534   3.051   6.033 -1.1124 -0.3709  1.5440
   45MOL   H73233380   0.397   3.132   5.969 -2.4505 -0.8798  1.5160
   45MOL   H73333381   0.409   3.025   5.742  0.8639 -3.1142 -1.4617
   45MOL   H73433382   0.517   2.908   5.794 -2.0875 -0.3586 -0.2152
   45MOL   H73533383   0.701   3.091   5.828  0.0394  1.2884  2.0768
   45MOL   H73633384   0.589   3.203   5.768 -0.0819 -0.0803  2.4171
   45MOL   H73733385   0.575   3.026   5.564  0.6815  0.1920 -0.1985
   45MOL   H73833386   0.703   2.946   5.646 -1.4022 -0.2253 -1.0551
   45MOL   H73933387   0.859   3.136   5.607  0.4473  0.7539 -0.1776
   45MOL   H74033388   0.732   3.237   5.548  0.5219 -0.2668  1.8074
   45MOL   H74133389   0.879   3.077   5.404 -0.0349 -0.9715  0.1207
   45MOL   H74233390   0.746   2.986   5.416  0.3303 -0.2657  1.6694
   46MOL     C133391   3.861   2.970   3.298  0.2381 -0.3326  0.9112
   46MOL     O233392   3.768   2.896   3.281  0.1073 -1.0113  0.7012
   46MOL     C333393   3.872   3.108   3.233  0.0603 -0.5707  0.3831
   46MOL     C433394   3.925   3.108   3.087  0.2561  0.6986 -0.8728
   46MOL     C533395   4.081   3.094   3.094  0.1990 -0.1848  1.0400
   46MOL     C633396   4.137   3.062   2.955 -0.1814 -0.5558  0.8136
   46MOL     C733397   4.289   3.073   2.945 -0.7816  0.6085 -0.3577
   46MOL     C833398   4.369   2.965   3.031 -0.0776  0.0292  0.0543
   46MOL     C933399   4.516   3.006   3.042 -0.6742 -0.0039 -0.1208
   46MOL    C1033400   4.597   2.912   3.125 -0.0402 -0.2412 -0.0588
   46MOL    C1133401   4.636   2.783   3.055 -0.3154 -0.9292  0.2720
   46MOL    C1233402   4.748   2.789   2.951  0.1226  0.3494 -0.0698
   46MOL    C1333403   4.892   2.787   3.007 -0.4453 -0.3953 -0.1518
   46MOL    N1433404   4.983   2.762   2.901 -0.4856 -0.0180 -0.2474
   46MOL    H1533405   3.938   3.170   3.292 -0.9904  0.1068  0.8568
   46MOL    H1633406   3.781   3.167   3.245  0.0409 -0.4145 -0.5140
   46MOL    H1733407   3.878   3.023   3.038 -0.7961 -0.0901  1.4676
   46MOL    H1833408   3.899   3.192   3.022  1.0258 -0.6040 -2.9301
   46MOL    H1933409   4.107   3.027   3.176 -2.0740 -1.1272  1.0374
   46MOL    H2033410   4.114   3.196   3.116 -1.5013  1.0745 -2.0313
   46MOL    H2133411   4.099   2.973   2.905  1.0057  0.8359 -2.7205
   46MOL    H2233412   4.106   3.141   2.886  1.0644 -0.8238 -0.0656
   46MOL    H2333413   4.317   3.174   2.974 -1.3355  0.7208 -0.1938
   46MOL    H2433414   4.342   3.059   2.851 -1.9452 -1.6506 -0.7124
   46MOL    H2533415   4.359   2.869   2.980 -0.0903  0.7666 -1.3780
   46MOL    H2633416   4.331   2.965   3.133 -2.5932 -0.8806 -0.8571
   46MOL    H2733417   4.513   3.092   3.108 -0.8995 -0.6709  0.7537
   46MOL    H2833418   4.574   3.009   2.950 -0.9003  0.1237 -0.2575
   46MOL    H2933419   4.547   2.882   3.217  0.2002  0.5181  0.3330
   46MOL    H3033420   4.693   2.963   3.140  0.3562 -1.0995  0.3326
   46MOL    H3133421   4.546   2.742   3.009  0.2889 -0.6005 -1.2176
   46MOL    H3233422   4.667   2.702   3.121 -2.2226  0.2998  2.7749
   46MOL    H3333423   4.741   2.873   2.883 -0.1574  0.1496 -0.2865
   46MOL    H3433424   4.731   2.699   2.891 -0.9541  0.4043  0.1568
   46MOL    H3533425   4.891   2.716   3.089 -0.7976  0.8113  0.9073
   46MOL    H3633426   4.918   2.877   3.063  1.1882 -0.2380 -1.1087
   46MOL    H3733427   5.011   2.842   2.847  0.0861 -0.9993 -1.4367
   46MOL    H3833428   3.949   2.941   3.355  0.6338 -0.3671  0.2964
   46MOL    C3933429   5.030   2.649   2.848 -0.3174 -0.2209  0.0745
   46MOL    O4033430   5.023   2.541   2.901 -0.6829 -1.0086  0.3780
   46MOL    C4133431   5.116   2.669   2.720  0.6157  0.7214 -0.1361
   46MOL    C4233432   5.196   2.548   2.673 -0.8544 -0.1101  0.0418
   46MOL    C4333433   5.294   2.575   2.553  0.0998 -0.3071 -0.0184
   46MOL    C4433434   5.323   2.437   2.492  0.3881  0.5132 -0.0965
   46MOL    C4533435   5.412   2.351   2.591 -0.0677  0.2674 -0.6089
   46MOL    C4633436   5.457   2.213   2.543 -1.4441  0.4722  0.3084
   46MOL    C4733437   5.533   2.134   2.647  0.3583  0.0268  0.2838
   46MOL    C4833438   5.580   1.997   2.596 -0.1613  0.3404 -0.1364
   46MOL    C4933439   5.626   1.905   2.713  0.0818  0.2520  0.0346
   46MOL    C5033440   5.644   1.761   2.658  0.1089  0.0903  0.2208
   46MOL    C5133441   5.626   1.652   2.766  0.1756  0.2038  0.4689
   46MOL    N5233442   5.708   1.673   2.889  0.0297 -0.7115  0.0162
   46MOL    H5333443   5.178   2.757   2.740  0.5345  1.0602 -1.3281
   46MOL    H5433444   5.043   2.701   2.645 -3.0352 -0.1697  2.8523
   46MOL    H5533445   5.256   2.532   2.762 -0.0760  1.6765 -0.1430
   46MOL    H5633446   5.130   2.463   2.658  1.7227 -1.8303 -2.0241
   46MOL    H5733447   5.383   2.630   2.583 -1.0800  1.8633 -0.4090
   46MOL    H5833448   5.250   2.626   2.467 -0.4083 -3.0399 -1.4303
   46MOL    H5933449   5.239   2.372   2.468 -0.0406  0.5532  1.2571
   46MOL    H6033450   5.383   2.450   2.401  1.4110  0.5532  0.5690
   46MOL    H6133451   5.354   2.333   2.681 -1.0491  0.4837 -1.1851
   46MOL    H6233452   5.501   2.412   2.609 -0.4673  0.2617  1.5090
   46MOL    H6333453   5.522   2.217   2.456 -0.0190 -0.7544  1.2887
   46MOL    H6433454   5.369   2.152   2.521 -0.9202 -0.6073  1.1390
   46MOL    H6533455   5.464   2.114   2.730  1.8783  2.5448  2.2091
   46MOL    H6633456   5.620   2.187   2.684  0.3430 -0.9301  1.7654
   46MOL    H6733457   5.669   2.000   2.532  0.0881  1.9342  0.2626
   46MOL    H6833458   5.507   1.944   2.535  0.2518 -1.6238  1.0546
   46MOL    H6933459   5.538   1.903   2.777 -0.1858  1.3685 -0.2866
   46MOL    H7033460   5.706   1.940   2.778 -0.1360  1.6725 -0.4393
   46MOL    H7133461   5.750   1.752   2.634  0.3638 -2.9710  2.2651
   46MOL    H7233462   5.591   1.739   2.565  0.6011 -0.2079  0.0120
   46MOL    H7333463   5.648   1.553   2.727 -0.8862  1.0862 -2.5015
   46MOL    H7433464   5.522   1.647   2.800 -0.3606 -0.0946 -1.1985
   46MOL    H7533465   5.671   1.711   2.975  3.5548  0.3105  1.1729
   46MOL    C7633466   5.841   1.666   2.895  0.2648  0.2236 -0.1868
   46MOL    O7733467   5.918   1.638   2.803  0.0552  0.4956  0.1427
   46MOL    C7833468   5.899   1.726   3.031  0.0376  0.0965  0.5018
   46MOL    C7933469   6.011   1.639   3.089 -0.1100 -0.3146  0.1934
   46MOL    C8033470   5.966   1.507   3.154  0.1415  0.4538 -0.0668
   46MOL    C8133471   6.075   1.441   3.248 -0.6922 -0.3554 -0.5149
   46MOL    C8233472   6.217   1.460   3.188 -0.3850 -0.0812 -0.6148
   46MOL    C8333473   6.316   1.361   3.246  0.2498  0.5849 -0.4678
   46MOL    C8433474   6.450   1.363   3.168 -0.5399  0.0347 -0.1177
   46MOL    C8533475   6.536   1.493   3.194  0.5809 -0.4028  0.0226
   46MOL    C8633476   6.552   1.510   3.346  0.2928  0.6140 -0.3936
   46MOL    C8733477   6.684   1.574   3.388  0.2167  0.6207  0.1458
   46MOL    C8833478   6.661   1.720   3.442  0.2899  0.3858 -0.8786
   46MOL    N8933479   6.625   1.820   3.340  0.0867 -0.2819  0.5683
   46MOL    H9033480   5.817   1.746   3.099  0.3977 -0.9894  1.2496
   46MOL    H9133481   5.932   1.827   3.005 -0.4611  0.2693  0.5399
   46MOL    H9233482   6.078   1.635   3.003 -1.8167 -1.3450 -1.1261
   46MOL    H9333483   6.067   1.703   3.157 -0.3918 -1.4751  1.5368
   46MOL    H9433484   5.947   1.435   3.074  0.0286  0.0273  0.3382
   46MOL    H9533485   5.871   1.528   3.203  0.6280  1.4663  0.4337
   46MOL    H9633486   6.067   1.493   3.344 -0.0059  2.4330 -1.8997
   46MOL    H9733487   6.041   1.339   3.266 -0.2623 -0.0313  2.4567
   46MOL    H9833488   6.254   1.560   3.208  0.2093 -0.6379  1.1465
   46MOL    H9933489   6.217   1.451   3.079  1.3947 -0.4003 -0.6172
   46MOL   H10033490   6.271   1.262   3.241 -2.3002  1.6642  0.5493
   46MOL   H10133491   6.332   1.369   3.354 -1.4231  1.7889 -0.2890
   46MOL   H10233492   6.427   1.347   3.063  0.9390 -1.0760 -0.2920
   46MOL   H10333493   6.512   1.275   3.189 -0.5133  0.7024  2.8593
   46MOL   H10433494   6.489   1.583   3.155  3.1636  0.3147 -1.5467
   46MOL   H10533495   6.632   1.486   3.143  1.0900  0.4382  0.8686
   46MOL   H10633496   6.546   1.410   3.387  0.6356 -0.0536 -1.9344
   46MOL   H10733497   6.473   1.567   3.395  0.6002 -0.4070  1.3005
   46MOL   H10833498   6.761   1.580   3.310  0.9908  0.8080  0.9149
   46MOL   H10933499   6.714   1.519   3.477  1.6866 -1.3382 -1.5077
   46MOL   H11033500   6.753   1.757   3.487  0.8004 -0.0658 -1.5527
   46MOL   H11133501   6.579   1.723   3.514 -0.0205 -0.8200 -1.1739
   46MOL   H11233502   6.584   1.788   3.253  0.8153 -2.1263  0.8641
   46MOL   C11333503   6.636   1.948   3.364  0.7244 -0.2036 -0.1422
   46MOL   O11433504   6.682   1.994   3.467 -0.1290  0.0055 -0.3448
   46MOL   C11533505   6.597   2.047   3.251 -0.1714 -0.3199  0.2634
   46MOL   C11633506   6.541   2.182   3.293  0.4141 -0.2503  0.3323
   46MOL   C11733507   6.428   2.187   3.402  0.2930 -0.2688 -0.3577
   46MOL   C11833508   6.306   2.108   3.372 -0.2796  0.4007  0.5542
   46MOL   C11933509   6.209   2.097   3.487  0.5034 -0.7657 -0.3278
   46MOL   C12033510   6.087   2.009   3.463  0.6900  0.0371  0.4762
   46MOL   C12133511   5.987   2.015   3.577  0.1561  0.6844  0.1178
   46MOL   C12233512   5.863   1.922   3.559 -0.7540  0.1929 -0.1872
   46MOL   C12333513   5.889   1.774   3.583 -0.4936 -0.3355 -0.4103
   46MOL   C12433514   5.758   1.683   3.580 -0.3242 -0.1194 -0.5162
   46MOL   C12533515   5.775   1.532   3.564  0.1085 -0.3824  0.1749
   46MOL   N12633516   5.657   1.462   3.596 -0.6485  0.4612  0.5977
   46MOL   H12733517   6.524   1.994   3.190  0.4158  0.9453 -1.5576
   46MOL   H12833518   6.684   2.076   3.193  1.0048  0.1582  2.1939
   46MOL   H12933519   6.626   2.240   3.328 -0.3830  1.4273 -0.4571
   46MOL   H13033520   6.512   2.230   3.199 -1.1237  0.0745  0.9607
   46MOL   H13133521   6.387   2.288   3.405 -0.0909 -0.4115 -0.7242
   46MOL   H13233522   6.468   2.170   3.502  0.1351  3.1311  0.3307
   46MOL   H13333523   6.245   2.165   3.303  1.2202 -0.4324 -1.5022
   46MOL   H13433524   6.326   2.008   3.333 -0.7184  0.4070  0.3102
   46MOL   H13533525   6.179   2.199   3.509  0.5592 -0.8861  0.3310
   46MOL   H13633526   6.266   2.062   3.574 -0.3348 -2.2094 -0.3432
   46MOL   H13733527   6.125   1.907   3.459  0.0925 -0.1452 -1.0636
   46MOL   H13833528   6.038   2.022   3.366  1.9956  0.3646 -0.1530
   46MOL   H13933529   5.957   2.120   3.579 -0.7370  0.4083  0.8200
   46MOL   H14033530   6.038   1.991   3.670  0.9597  4.0332  0.6094
   46MOL   H14133531   5.822   1.925   3.458 -0.9521 -0.1275 -0.1164
   46MOL   H14233532   5.784   1.951   3.627 -0.7638 -0.2114 -0.0265
   46MOL   H14333533   5.949   1.762   3.673 -0.5677 -3.5909 -0.7571
   46MOL   H14433534   5.946   1.747   3.494  1.2453 -0.2135  0.6411
   46MOL   H14533535   5.679   1.714   3.511 -0.5879  0.2356 -0.0625
   46MOL   H14633536   5.720   1.710   3.679  1.8757 -0.8606  0.5648
   46MOL   H14733537   5.859   1.501   3.627 -1.0295 -0.2120  1.8043
   46MOL   H14833538   5.822   1.507   3.469  4.1980  1.3966  1.5911
   46MOL   H14933539   5.580   1.510   3.639 -0.5923  0.0353  1.1883
   46MOL   C15033540   5.650   1.330   3.586 -0.0300  0.7174 -0.4634
   46MOL   O15133541   5.742   1.264   3.538 -0.2684 -0.0158 -0.2466
   46MOL   C15233542   5.527   1.263   3.646 -0.2012 -0.3259 -0.0653
   46MOL   C15333543   5.559   1.171   3.761 -0.1744  0.4214  0.0862
   46MOL   C15433544   5.439   1.101   3.819 -0.2029  0.1826  0.3202
   46MOL   C15533545   5.463   1.030   3.958 -0.3766 -0.7839  0.4312
   46MOL   C15633546   5.327   0.982   4.017  0.6753 -0.0596 -0.2478
   46MOL   C15733547   5.268   0.848   3.969 -0.6014  0.0413 -0.3503
   46MOL   C15833548   5.164   0.787   4.064 -0.0558 -0.3107  0.1713
   46MOL   C15933549   5.051   0.711   3.996 -0.8661 -0.1711 -0.1164
   46MOL   C16033550   4.951   0.666   4.108  0.1798 -0.7270  0.8577
   46MOL   C16133551   4.849   0.574   4.044 -0.7419  0.5756 -0.0951
   46MOL   C16233552   4.746   0.520   4.144 -0.0458  0.1797 -0.1116
   46MOL   N16333553   4.802   0.448   4.260  0.5560  0.0166 -0.0006
   46MOL   H16433554   5.471   1.212   3.567  0.1121  1.1788 -1.2974
   46MOL   H16533555   5.463   1.341   3.688  0.3328  1.2546 -2.0750
   46MOL   H16633556   5.629   1.090   3.740 -1.6050 -1.3379  1.8777
   46MOL   H16733557   5.604   1.240   3.833 -1.1535  2.3105 -1.0824
   46MOL   H16833558   5.399   1.031   3.746 -0.6345  0.1721  0.5660
   46MOL   H16933559   5.362   1.175   3.842 -0.2273  0.0083  0.8031
   46MOL   H17033560   5.538   0.951   3.945  0.1893 -0.2757  0.5817
   46MOL   H17133561   5.505   1.105   4.025  1.4154 -2.3014  1.0743
   46MOL   H17233562   5.258   1.066   4.011  0.1967 -0.6238 -3.3651
   46MOL   H17333563   5.359   0.977   4.122  0.5820  2.2007 -0.0831
   46MOL   H17433564   5.339   0.766   3.959 -2.9464 -1.9443 -1.0247
   46MOL   H17533565   5.219   0.869   3.874  1.0295  0.7933 -1.0538
   46MOL   H17633566   5.123   0.870   4.120 -1.9869 -0.9324 -0.2780
   46MOL   H17733567   5.214   0.723   4.136  2.5707 -0.6798 -1.9044
   46MOL   H17833568   5.092   0.621   3.950 -0.2087  0.0074  0.1026
   46MOL   H17933569   5.008   0.780   3.923 -1.6324 -1.1646 -0.6127
   46MOL   H18033570   4.912   0.757   4.154  0.2493 -0.0265 -0.4442
   46MOL   H18133571   4.995   0.617   4.195  0.0674 -0.4777  1.0581
   46MOL   H18233572   4.901   0.490   3.998  0.1471  0.4710  1.0577
   46MOL   H18333573   4.801   0.623   3.960 -1.8755 -1.2625 -0.5360
   46MOL   H18433574   4.669   0.455   4.102 -0.4404 -0.1427  1.0746
   46MOL   H18533575   4.699   0.607   4.190  1.0833  1.5805 -1.5841
   46MOL   H18633576   4.853   0.361   4.251  0.8048  0.1160  0.4011
   46MOL   C18733577   4.821   0.502   4.377  0.0062  0.1587 -0.9897
   46MOL   O18833578   4.755   0.596   4.425  0.1490 -0.0073  0.2890
   46MOL   C18933579   4.930   0.436   4.473  0.3878  0.0417  0.3224
   46MOL   C19033580   5.077   0.475   4.456 -0.6625  0.3404  0.5143
   46MOL   C19133581   5.149   0.414   4.335  1.0228 -0.7757  0.1182
   46MOL   C19233582   5.283   0.479   4.300 -0.1842 -0.5626 -0.5319
   46MOL   C19333583   5.336   0.461   4.156  0.1956  0.0233  0.1731
   46MOL   C19433584   5.462   0.533   4.124  1.3467  0.0643  0.6617
   46MOL   C19533585   5.520   0.478   3.994  0.9605  0.4282 -0.0665
   46MOL   C19633586   5.667   0.516   3.962  0.5963  0.1183  0.3533
   46MOL   C19733587   5.699   0.660   3.987  0.2638 -0.0260 -0.5417
   46MOL   C19833588   5.852   0.688   3.962  0.1248 -0.2010  0.0411
   46MOL   C19933589   5.889   0.842   3.962 -0.4020  0.4760  0.2076
   46MOL   N20033590   6.029   0.858   3.929 -0.6823  0.1091  0.5048
   46MOL   H20133591   4.910   0.329   4.465 -1.3056  0.3790 -0.1154
   46MOL   H20233592   4.905   0.465   4.575 -2.0290 -2.0235  0.3740
   46MOL   H20333593   5.083   0.584   4.453 -1.8024  0.6236  5.2404
   46MOL   H20433594   5.123   0.446   4.550  0.2454  0.9669  0.2593
   46MOL   H20533595   5.087   0.427   4.247 -1.3964  0.4352  1.9298
   46MOL   H20633596   5.170   0.307   4.348  0.5846 -0.9795 -0.8350
   46MOL   H20733597   5.271   0.586   4.314 -2.5578 -0.8236 -0.2969
   46MOL   H20833598   5.358   0.443   4.371 -0.2592  1.4778  0.5973
   46MOL   H20933599   5.250   0.480   4.091  1.3585  1.0194 -1.1178
   46MOL   H21033600   5.370   0.360   4.133  1.5963  0.6555 -0.6096
   46MOL   H21133601   5.536   0.539   4.204  1.0990  1.9985  0.7894
   46MOL   H21233602   5.431   0.636   4.106 -1.5316 -0.9851 -0.7337
   46MOL   H21333603   5.455   0.517   3.916  1.2127 -1.3477 -1.1894
   46MOL   H21433604   5.521   0.369   3.996 -0.7856  0.4030  1.1169
   46MOL   H21533605   5.678   0.496   3.856 -0.1096  1.2347  0.0683
   46MOL   H21633606   5.736   0.448   4.013 -0.4228 -0.7997  0.5389
   46MOL   H21733607   5.685   0.680   4.093 -0.9649 -1.5700 -0.4014
   46MOL   H21833608   5.632   0.729   3.935 -3.2673 -0.6052  2.9680
   46MOL   H21933609   5.874   0.656   3.860 -0.5383 -1.2241  0.2014
   46MOL   H22033610   5.920   0.627   4.022 -0.2144 -0.6937 -0.0667
   46MOL   H22133611   5.876   0.885   4.062  1.0951 -1.1470  1.1425
   46MOL   H22233612   5.826   0.896   3.893  1.3840  1.7703 -0.4465
   46MOL   H22333613   6.048   0.842   3.831 -1.2677  0.8313  0.2687
   46MOL   C22433614   6.134   0.882   4.005  0.1977  0.5791  0.0120
   46MOL   O22533615   6.117   0.884   4.126 -0.2968  0.0435  0.1353
   46MOL   C22633616   6.270   0.919   3.942  0.2159  0.1535 -0.2301
   46MOL   C22733617   6.391   0.862   4.021  0.2880  0.1993 -0.5156
   46MOL   C22833618   6.525   0.922   3.980  0.4355 -0.4879  0.0545
   46MOL   C22933619   6.634   0.860   4.071 -0.1812 -0.2325  0.8809
   46MOL   C23033620   6.775   0.900   4.028 -0.6527 -0.1274 -0.2746
   46MOL   C23133621   6.879   0.832   4.123 -0.1967  0.1998 -0.5138
   46MOL   C23233622   7.019   0.813   4.068  0.1394  0.0111 -0.0905
   46MOL   C23333623   7.040   0.748   3.925  0.6947 -0.4390 -0.4806
   46MOL   C23433624   6.987   0.600   3.918  0.9496  0.0942  0.1428
   46MOL   C23533625   6.991   0.546   3.773  0.5749 -0.3318  0.1827
   46MOL   C23633626   6.943   0.398   3.765 -0.4069 -0.2984 -0.4490
   46MOL   N23733627   6.977   0.328   3.646  0.0753  0.0907 -0.1727
   46MOL   H23833628   6.273   1.026   3.926 -3.2941 -0.1102 -3.3926
   46MOL   H23933629   6.280   0.871   3.844 -1.0371  1.0708 -0.8167
   46MOL   H24033630   6.382   0.868   4.129 -0.7759  2.6565 -0.7037
   46MOL   H24133631   6.386   0.755   4.002 -0.1596  0.3716 -1.3989
   46MOL   H24233632   6.527   1.031   3.986  1.0999 -0.4776 -0.2999
   46MOL   H24333633   6.541   0.896   3.875  1.7172 -0.8997  0.3373
   46MOL   H24433634   6.606   0.895   4.170 -1.7373 -0.6900  0.6224
   46MOL   H24533635   6.620   0.752   4.068  1.1663 -0.3784 -0.7092
   46MOL   H24633636   6.797   1.005   4.042 -0.0997 -0.1027 -1.2710
   46MOL   H24733637   6.779   0.869   3.923 -0.8808 -3.3267  0.6111
   46MOL   H24833638   6.835   0.735   4.143  0.3942 -0.2202 -1.2071
   46MOL   H24933639   6.874   0.886   4.217 -1.1235  1.4846 -1.2718
   46MOL   H25033640   7.072   0.737   4.125  0.0550 -0.2678 -0.3827
   46MOL   H25133641   7.078   0.905   4.073  0.5882 -0.2696 -0.1997
   46MOL   H25233642   7.146   0.753   3.903  0.5507  1.1955 -0.8303
   46MOL   H25333643   6.978   0.811   3.860 -0.6860  1.0092  2.1562
   46MOL   H25433644   6.880   0.608   3.935  0.8651 -0.4126 -0.1334
   46MOL   H25533645   7.022   0.539   4.001  0.7820 -0.0350  0.1170
   46MOL   H25633646   7.096   0.537   3.745  1.1032  0.4831  1.8088
   46MOL   H25733647   6.940   0.617   3.709  0.8075 -0.6235 -0.3256
   46MOL   H25833648   6.834   0.394   3.764 -0.5212  1.2832  2.0984
   46MOL   H25933649   6.966   0.338   3.853 -1.7864  0.1694  0.2387
   46MOL   H26033650   7.063   0.276   3.636 -2.0056 -2.9661 -3.8820
   46MOL   C26133651   6.918   0.324   3.525 -0.1334 -0.2373 -0.5477
   46MOL   O26233652   6.808   0.383   3.505  0.3020 -0.2395 -0.9376
   46MOL   C26333653   6.991   0.236   3.424 -0.6219  1.0733  0.1423
   46MOL   C26433654   6.915   0.205   3.299 -0.1183 -0.1832  0.0769
   46MOL   C26533655   6.823   0.081   3.303  0.6314  0.0562 -0.0488
   46MOL   C26633656   6.765   0.047   3.167  0.3927  0.1353  0.0139
   46MOL   C26733657   6.683   7.618   3.180 -0.0687 -0.5561  0.3447
   46MOL   C26833658   6.604   7.587   3.047  0.5339  0.1501 -0.1182
   46MOL   C26933659   6.701   7.536   2.944 -0.1473  0.4083  0.0129
   46MOL   C27033660   6.654   7.544   2.798  0.1690 -0.5008  0.1920
   46MOL   C27133661   6.520   7.490   2.753  0.2409  0.3011  0.3860
   46MOL   C27233662   6.504   7.483   2.601  0.2974 -0.2513 -0.1105
   46MOL   C27333663   6.359   7.434   2.568  0.7279  0.3630  0.5557
   46MOL   N27433664   6.320   7.295   2.603  0.5288  0.0151  0.5857
   46MOL   H27533665   7.042   0.151   3.469 -2.5198 -0.6233 -0.8649
   46MOL   H27633666   7.081   0.289   3.392 -1.0753  0.3981 -2.4207
   46MOL   H27733667   6.849   0.284   3.263 -0.9548 -1.8531 -2.1658
   46MOL   H27833668   6.990   0.184   3.223 -0.2731  1.2547 -0.4728
   46MOL   H27933669   6.753   0.092   3.386 -0.8189  0.4142 -1.3037
   46MOL   H28033670   6.868   7.678   3.323  2.2144  0.7393 -0.2083
   46MOL   H28133671   6.694   0.124   3.136  0.1050  0.0148  0.3722
   46MOL   H28233672   6.839   0.040   3.087 -0.0940  3.0863 -0.7454
   46MOL   H28333673   6.607   7.631   3.258  0.8042 -2.7117  1.5972
   46MOL   H28433674   6.746   7.536   3.214  0.3171 -0.3096  0.2257
   46MOL   H28533675   6.552   7.677   3.014 -1.8003 -0.5950  1.3615
   46MOL   H28633676   6.526   7.513   3.070  0.7562 -0.1997 -0.4892
   46MOL   H28733677   6.718   7.429   2.957 -2.4416 -0.1918 -1.6077
   46MOL   H28833678   6.796   7.589   2.948 -1.0701  2.2139 -1.1715
   46MOL   H28933679   6.734   7.501   2.738 -0.9159  0.1254 -1.7944
   46MOL   H29033680   6.654   7.650   2.774  0.7517  0.0888  2.7031
   46MOL   H29133681   6.447   7.555   2.802  1.3314  2.2166 -0.4801
   46MOL   H29233682   6.498   7.393   2.797 -2.6295  1.3336  1.4139
   46MOL   H29333683   6.579   7.422   2.550  1.6568  2.1618 -1.1129
   46MOL   H29433684   6.518   7.584   2.563  2.2897 -0.4883 -0.0943
   46MOL   H29533685   6.357   7.439   2.459 -0.6390  0.8561  0.5931
   46MOL   H29633686   6.297   7.506   2.621 -0.2759 -0.6366  0.7612
   46MOL   H29733687   6.386   7.220   2.599  0.8290  0.3595 -1.1341
   46MOL   C29833688   6.196   7.254   2.624  0.6949  0.1987 -0.1551
   46MOL   O29933689   6.104   7.333   2.609 -0.5612  0.4912  0.2972
   46MOL   C30033690   6.167   7.110   2.663  0.2876  0.0512  0.3701
   46MOL   C30133691   6.022   7.072   2.697  0.8048  0.4857  0.0111
   46MOL   C30233692   5.969   7.136   2.827 -0.6724  0.0385  0.4617
   46MOL   C30333693   5.846   7.059   2.883  0.5065  1.2489 -0.1909
   46MOL   C30433694   5.792   7.099   3.025 -0.4935  0.5107  0.3664
   46MOL   C30533695   5.872   7.069   3.148  0.1156 -0.4274 -0.2897
   46MOL   C30633696   5.882   6.910   3.166  0.8329  0.4231  0.5486
   46MOL   C30733697   5.940   6.867   3.301 -0.5981  0.0729 -0.4716
   46MOL   C30833698   6.070   6.941   3.333  0.0339 -0.4318 -0.0903
   46MOL   C30933699   6.137   6.891   3.464 -0.8117 -0.8253  0.2894
   46MOL   C31033700   6.253   6.983   3.501  0.0012  0.3971  0.1731
   46MOL   N31133701   6.327   6.935   3.615  0.3969  0.1029 -0.9481
   46MOL   H31233702   6.250   7.076   2.726  0.1228 -0.7044  0.1922
   46MOL   H31333703   6.194   7.054   2.574  0.6997  0.6378  0.1288
   46MOL   H31433704   5.964   7.098   2.608  1.1411  0.4814 -0.2120
   46MOL   H31533705   6.023   6.963   2.697  2.6311  0.4824  1.0551
   46MOL   H31633706   5.931   7.238   2.825 -3.4120 -0.9150  1.4686
   46MOL   H31733707   6.058   7.138   2.891  1.2798 -1.3038 -2.0838
   46MOL   H31833708   5.763   7.069   2.813  1.2565  0.9211 -1.1348
   46MOL   H31933709   5.880   6.956   2.884  0.6969  1.3096 -0.5971
   46MOL   H32033710   5.695   7.049   3.031  0.4775 -1.2858  1.2210
   46MOL   H32133711   5.773   7.207   3.029 -0.3955  0.4807  2.1521
   46MOL   H32233712   5.835   7.114   3.240  0.4623 -0.0783 -0.3220
   46MOL   H32333713   5.971   7.112   3.135 -1.1705  3.3086  1.6376
   46MOL   H32433714   5.957   6.877   3.093 -0.9520 -3.3533  0.3140
   46MOL   H32533715   5.788   6.857   3.150  1.1411 -0.7104  2.4292
   46MOL   H32633716   5.958   6.759   3.310 -0.3562  0.1186 -0.4029
   46MOL   H32733717   5.871   6.886   3.383  0.6328 -0.6495  0.7638
   46MOL   H32833718   6.056   7.049   3.332  0.1213 -0.4169  0.0822
   46MOL   H32933719   6.131   6.918   3.246 -0.2166  0.1708 -0.4312
   46MOL   H33033720   6.161   6.784   3.456 -1.0314 -0.8883  0.4770
   46MOL   H33133721   6.060   6.893   3.541 -1.6113 -1.3301 -0.4882
   46MOL   H33233722   6.221   7.087   3.511  1.6470  0.9821 -0.5677
   46MOL   H33333723   6.323   6.980   3.418  2.0851 -1.4853  1.9426
   46MOL   H33433724   6.302   6.979   3.702 -1.2457  3.4933 -3.0334
   46MOL   C33533725   6.440   6.865   3.611  0.3925 -0.1983  0.8736
   46MOL   O33633726   6.488   6.823   3.506 -0.0850 -0.6835 -0.1542
   46MOL   C33733727   6.513   6.854   3.744 -0.4459  0.0923  0.0320
   46MOL   C33833728   6.661   6.801   3.745 -0.1335 -0.4396  0.3890
   46MOL   C33933729   6.777   6.901   3.746 -0.0962 -0.1004 -0.1235
   46MOL   C34033730   6.917   6.858   3.775  0.1739  0.4884  0.1163
   46MOL   C34133731   7.017   6.974   3.768 -0.2588  0.4562  0.0241
   46MOL   C34233732   7.008   7.075   3.883 -0.0019  0.0665 -0.1001
   46MOL   C34333733   7.123   7.173   3.898 -0.4985 -0.3239 -0.2280
   46MOL   C34433734   7.134   7.252   4.027  0.8202 -0.3437  0.2492
   46MOL   C34533735   7.056   7.378   4.022 -0.2565  0.1128  0.6519
   46MOL   C34633736   7.059   7.447   4.161 -0.0886 -1.1679 -0.0892
   46MOL   C34733737   6.992   7.579   4.167  0.1611 -0.0156  0.0763
   46MOL   N34833738   6.999   7.633   4.306 -0.4289  0.0603 -0.1072
   46MOL   H34933739   6.468   6.776   3.805  2.0744 -1.9272 -0.6224
   46MOL   H35033740   6.508   6.950   3.797  0.9296 -0.0731  0.4970
   46MOL   H35133741   6.673   6.743   3.836  0.1723 -0.8737  0.0688
   46MOL   H35233742   6.680   6.741   3.656 -1.8529  0.7624 -0.8364
   46MOL   H35333743   6.754   6.985   3.812  0.4495  0.1389 -0.2320
   46MOL   H35433744   6.773   6.947   3.648  0.6091  1.5254  0.5849
   46MOL   H35533745   6.925   6.813   3.874 -0.1659  0.6599  0.2222
   46MOL   H35633746   6.937   6.791   3.691 -2.2237  2.6590 -2.2659
   46MOL   H35733747   7.019   7.021   3.669 -1.4161  0.7817  0.1428
   46MOL   H35833748   7.112   6.922   3.776 -0.6592 -0.4683 -1.1376
   46MOL   H35933749   7.007   7.017   3.975  0.9208 -0.6082 -0.5069
   46MOL   H36033750   6.913   7.127   3.887 -0.7587 -1.1304 -1.7358
   46MOL   H36133751   7.116   7.240   3.812 -0.1262 -1.8342 -1.4520
   46MOL   H36233752   7.213   7.113   3.884 -1.8223 -2.2927 -0.6522
   46MOL   H36333753   7.240   7.270   4.040  0.7961 -1.2214  1.6998
   46MOL   H36433754   7.103   7.182   4.105 -0.9656 -0.1679 -0.2844
   46MOL   H36533755   6.955   7.367   3.984 -0.4265 -0.1979  1.1956
   46MOL   H36633756   7.097   7.455   3.955  0.0473 -0.3523  0.2974
   46MOL   H36733757   7.163   7.459   4.191 -0.2305 -0.6020  0.1858
   46MOL   H36833758   7.017   7.379   4.235 -3.0343  1.8792  1.1870
   46MOL   H36933759   6.889   7.565   4.135 -0.2985 -0.8454  1.8368
   46MOL   H37033760   7.052   7.639   4.099  0.0196 -0.3083 -0.3014
   46MOL   H37133761   7.063   7.592   4.372 -0.4060 -1.6997 -1.2097
   46MOL   C37233762   6.922   0.033   4.355  0.2439  0.5224 -0.0657
   46MOL   O37333763   6.847   0.108   4.292  0.2752  0.0723  0.4716
   46MOL   C37433764   6.940   0.056   4.503 -0.0325 -0.0491 -0.0281
   46MOL   C37533765   6.851   0.177   4.550 -0.3493 -0.1711 -0.2229
   46MOL   C37633766   6.896   0.248   4.680  0.0333 -0.0370  0.6564
   46MOL   C37733767   6.801   0.360   4.720  0.1148  0.6230  0.5595
   46MOL   C37833768   6.866   0.435   4.841  0.7190 -0.3855 -0.1819
   46MOL   C37933769   6.988   0.524   4.812 -0.1192 -0.4183  0.5926
   46MOL   C38033770   7.018   0.630   4.922 -0.0840  0.1587 -0.4890
   46MOL   C38133771   7.137   0.712   4.884  0.0442 -0.9750 -0.3147
   46MOL   C38233772   7.210   0.789   4.997 -0.2668  0.6424  0.2568
   46MOL   C38333773   7.324   0.884   4.950 -0.0063  0.1968  0.7607
   46MOL   C38433774   7.418   0.921   5.060  0.5218  0.7334 -0.0450
   46MOL   N38533775   7.520   1.017   5.022  0.0374  0.7630 -0.3809
   46MOL   H38633776   7.047   0.067   4.520 -0.3425 -2.2432  4.1385
   46MOL   H38733777   6.909   7.662   4.561  1.2724  1.1004  2.4988
   46MOL   H38833778   6.861   0.257   4.476  3.2961 -0.0334  0.3381
   46MOL   H38933779   6.745   0.153   4.562 -0.3419  0.4809  1.2041
   46MOL   H39033780   6.997   0.286   4.666  0.7627 -2.0178  0.4418
   46MOL   H39133781   6.907   0.173   4.758  1.1306 -1.5756 -0.9546
   46MOL   H39233782   6.787   0.429   4.637  0.3432  1.0782  0.8952
   46MOL   H39333783   6.700   0.323   4.740  0.2758 -1.5533 -2.4515
   46MOL   H39433784   6.876   0.370   4.929  1.0846  0.0641  0.1102
   46MOL   H39533785   6.784   0.500   4.871  0.8950 -0.3833  0.2956
   46MOL   H39633786   6.968   0.585   4.724 -1.5974 -0.8434  0.6206
   46MOL   H39733787   7.080   0.465   4.810 -0.3134 -0.7114  0.1748
   46MOL   H39833788   7.047   0.590   5.019 -0.1781  1.5166  0.1182
   46MOL   H39933789   6.942   0.706   4.942  0.4282  0.9024 -1.3539
   46MOL   H40033790   7.107   0.782   4.807  1.8258 -0.2780 -0.3998
   46MOL   H40133791   7.208   0.644   4.836  1.2374  0.2275 -0.2715
   46MOL   H40233792   7.249   0.713   5.064  0.7063  2.8624  2.2632
   46MOL   H40333793   7.143   0.847   5.060 -0.0859  1.0117  0.1145
   46MOL   H40433794   7.278   0.973   4.906  1.5247  0.5990 -0.0644
   46MOL   H40533795   7.382   0.843   4.868  0.7349  1.6639  0.5351
   46MOL   H40633796   7.466   0.831   5.097  0.7151  2.1077  3.2331
   46MOL   H40733797   7.371   0.960   5.151  1.1259  2.2070 -0.3453
   46MOL   H40833798   7.496   1.089   4.956 -1.2147 -1.2686 -2.2187
   46MOL   C40933799   7.636   1.031   5.086  1.0172  0.4555 -0.4172
   46MOL   O41033800   7.672   0.952   5.176  0.9211  0.0943 -0.3327
   46MOL   C41133801   0.030   1.147   5.042 -0.2435 -0.4772  0.3015
   46MOL   C41233802   0.025   1.270   5.133 -0.0483 -0.5146  0.0416
   46MOL   C41333803   7.577   1.331   5.134 -0.0672  0.6286 -0.5921
   46MOL   C41433804   7.569   1.457   5.225 -0.3138 -0.0606 -0.5630
   46MOL   C41533805   7.442   1.533   5.203 -0.2588 -0.4780 -0.4375
   46MOL   C41633806   7.434   1.655   5.292  0.4921  0.0653  0.1480
   46MOL   C41733807   7.298   1.731   5.284 -0.5322  0.0522 -0.4015
   46MOL   C41833808   7.278   1.822   5.163  0.3647 -0.0678  0.4782
   46MOL   C41933809   7.169   1.925   5.179 -0.2872  0.9815  0.1923
   46MOL   C42033810   7.161   2.012   5.061  0.3337 -0.2085  0.8290
   46MOL   C42133811   7.016   2.067   5.057  0.1868 -0.6176  0.6532
   46MOL   N42233812   7.001   2.150   4.941 -0.1659 -0.3922  1.4009
   46MOL   H42333813   0.011   1.164   4.935  0.3658  0.0350  0.2716
   46MOL   H42433814   0.131   1.111   5.057 -0.2418 -0.9790 -0.8293
   46MOL   H42533815   0.058   1.238   5.232 -1.5058 -1.5784  0.1963
   46MOL   H42633816   0.097   1.340   5.091  0.1241 -0.6574  0.0977
   46MOL   H42733817   7.501   1.260   5.164 -1.0090  0.9389 -2.1912
   46MOL   H42833818   7.548   1.365   5.035  1.6497  0.4441 -1.1829
   46MOL   H42933819   7.560   1.419   5.327 -3.0078 -1.3916 -1.2536
   46MOL   H43033820   7.650   1.530   5.221 -0.3382 -0.0198 -0.3433
   46MOL   H43133821   7.349   1.478   5.219 -1.3254  1.0660 -1.0778
   46MOL   H43233822   7.439   1.573   5.101 -1.4896  1.3901  0.3033
   46MOL   H43333823   7.511   1.731   5.284  0.1528  0.2985 -0.9785
   46MOL   H43433824   7.460   1.613   5.389  0.1589  0.6471  0.4882
   46MOL   H43533825   7.284   1.789   5.375  1.6246  0.9026 -0.5825
   46MOL   H43633826   7.228   1.648   5.277  0.5632 -0.7318 -2.4221
   46MOL   H43733827   7.274   1.784   5.061 -0.3169 -0.7702  0.7648
   46MOL   H43833828   7.368   1.882   5.158  0.0474  0.4315  0.6830
   46MOL   H43933829   7.188   1.996   5.259  0.5352  1.3671 -0.3472
   46MOL   H44033830   7.069   1.885   5.198  0.0902 -1.2497 -2.1646
   46MOL   H44133831   7.168   1.954   4.969 -0.3697  1.4313 -0.2937
   46MOL   H44233832   7.243   2.085   5.060 -1.0076  1.3470  2.0963
   46MOL   H44333833   7.014   2.137   5.140  2.4064 -0.5066  0.6411
   46MOL   H44433834   6.936   1.995   5.070  0.1845 -0.5837  0.8208
   46MOL   H44533835   7.015   2.108   4.850 -0.5402  0.4479  0.9466
   46MOL   C44633836   7.006   2.283   4.928 -0.6018  0.3507  0.0822
   46MOL   O44733837   7.000   2.356   5.027  0.2442 -0.0821  0.4980
   46MOL   C44833838   7.017   2.336   4.784 -0.6862  0.6947  0.0255
   46MOL   C44933839   7.112   2.461   4.773  0.1570  0.4193  0.2665
   46MOL   C45033840   7.128   2.515   4.626 -0.5434  0.6844 -0.1613
   46MOL   C45133841   7.214   2.422   4.538  0.3201  0.1579  0.3131
   46MOL   C45233842   7.315   2.496   4.454 -0.1161 -0.2896 -0.4676
   46MOL   C45333843   7.361   2.427   4.332  0.3969  0.6737  0.6678
   46MOL   C45433844   7.468   2.491   4.248  0.3947 -0.0577 -0.7042
   46MOL   C45533845   7.448   2.621   4.172  0.3393 -0.3372  0.3316
   46MOL   C45633846   7.330   2.606   4.075  0.5113  0.4012  0.2937
   46MOL   C45733847   7.183   2.653   4.124  0.1439  0.5542  0.0424
   46MOL   C45833848   7.058   2.617   4.035  0.0108  0.6241  0.5576
   46MOL   N45933849   7.071   2.660   3.888  0.0545 -0.3977  0.1566
   46MOL   H46033850   6.916   2.353   4.747  0.5305  0.3382 -3.6303
   46MOL   H46133851   7.076   2.260   4.733 -0.1629  0.0082  1.6106
   46MOL   H46233852   7.065   2.537   4.835  0.4913  1.7022 -1.0460
   46MOL   H46333853   7.208   2.428   4.814  0.7911  1.6566 -0.2265
   46MOL   H46433854   7.166   2.616   4.643 -0.3069  0.6114 -0.2685
   46MOL   H46533855   7.035   2.522   4.569 -0.8012  0.0700  0.1804
   46MOL   H46633856   7.273   2.349   4.594  1.9197  1.0774 -0.1161
   46MOL   H46733857   7.153   2.356   4.477  1.2085 -0.4095  0.0288
   46MOL   H46833858   7.397   2.518   4.523 -0.6774  0.6035 -0.0633
   46MOL   H46933859   7.289   2.596   4.418 -1.3494 -0.6705 -0.6580
   46MOL   H47033860   7.271   2.413   4.272  2.3958 -1.7511 -1.8590
   46MOL   H47133861   7.390   2.326   4.358  0.3888  0.1472 -1.2664
   46MOL   H47233862   7.498   2.411   4.180  0.8108 -0.7390  0.2759
   46MOL   H47333863   7.559   2.510   4.306 -0.1316  3.2055 -0.8511
   46MOL   H47433864   7.542   2.663   4.136 -0.0569 -1.0331 -1.5398
   46MOL   H47533865   7.414   2.695   4.245 -0.2072 -1.5314  1.3247
   46MOL   H47633866   7.337   2.502   4.044  0.0519  0.2433  0.7021
   46MOL   H47733867   7.352   2.657   3.981  1.7516  2.6690  1.7530
   46MOL   H47833868   7.198   2.761   4.126 -0.3870  0.6108  1.1529
   46MOL   H47933869   7.165   2.620   4.226 -2.6747 -0.0810 -0.6296
   46MOL   H48033870   6.964   2.649   4.078  0.0552  0.1113  1.0397
   46MOL   H48133871   7.057   2.508   4.034  1.8666  0.5951 -0.2825
   46MOL   H48233872   7.130   2.608   3.825 -0.8573 -0.8726 -0.3265
   46MOL   C48333873   6.995   2.760   3.836  0.4260 -0.2441 -0.5340
   46MOL   O48433874   6.904   2.814   3.909 -0.5638 -0.2804  0.9455
   46MOL   C48533875   7.028   2.799   3.699 -0.3612  0.0139 -0.0787
   46MOL   C48633876   7.010   2.953   3.687  0.0796 -0.2155 -0.1518
   46MOL   C48733877   7.104   3.037   3.778  0.1175 -0.0746  0.6606
   46MOL   C48833878   7.078   3.190   3.761 -0.4825 -0.2001 -0.2150
   46MOL   C48933879   6.929   3.236   3.790 -0.4720  0.3990 -0.1840
   46MOL   C49033880   6.926   3.390   3.818  0.7841 -0.1664  0.6262
   46MOL   C49133881   6.786   3.450   3.827  0.0507  0.0760 -0.1962
   46MOL   C49233882   6.787   3.595   3.880  0.0816  0.3022 -0.1408
   46MOL   C49333883   6.821   3.690   3.767  0.2162 -0.9942 -0.0480
   46MOL   C49433884   6.692   3.745   3.703 -0.6929 -0.4406  0.0978
   46MOL   C49533885   6.711   3.873   3.624 -0.6301  0.6249  0.3892
   46MOL   N49633886   6.609   3.886   3.521  0.0056  0.3665  0.6110
   46MOL   H49733887   6.964   2.749   3.627  0.0461  0.4409 -0.7457
   46MOL   H49833888   7.131   2.772   3.674 -0.9569 -2.4710  0.1153
   46MOL   H49933889   7.021   2.977   3.581 -1.0945 -1.1107 -0.4931
   46MOL   H50033890   6.906   2.980   3.704  0.5203  1.2792  0.2017
   46MOL   H50133891   7.200   3.016   3.730  1.2790  2.8598  1.5253
   46MOL   H50233892   7.112   3.016   3.885 -0.0586 -0.3724  0.6134
   46MOL   H50333893   7.151   3.240   3.825 -0.4303  1.6984 -1.7318
   46MOL   H50433894   7.100   3.222   3.659  2.5517 -1.4243 -0.0173
   46MOL   H50533895   6.883   3.182   3.872 -0.3090  1.0603  0.3424
   46MOL   H50633896   6.858   3.205   3.713 -3.3272  1.6592  1.8532
   46MOL   H50733897   6.974   3.434   3.730 -0.9782  2.7474  1.0339
   46MOL   H50833898   6.982   3.409   3.909  2.6480 -1.5985 -0.1861
   46MOL   H50933899   6.729   3.390   3.898  0.4995 -1.6279 -1.2546
   46MOL   H51033900   6.732   3.448   3.733  0.7156 -0.0858 -0.5779
   46MOL   H51133901   6.859   3.608   3.961 -0.9024 -0.2217  0.8345
   46MOL   H51233902   6.685   3.612   3.915 -0.1604 -0.9838 -0.1821
   46MOL   H51333903   6.894   3.649   3.697  1.4435 -1.4744  1.4831
   46MOL   H51433904   6.878   3.770   3.815 -0.9313 -0.9167  1.1746
   46MOL   H51533905   6.606   3.754   3.768  0.4673 -0.3221  1.6535
   46MOL   H51633906   6.650   3.661   3.648 -1.2075  0.7707 -1.3948
   46MOL   H51733907   6.802   3.873   3.564  0.4275  0.4275  1.9601
   46MOL   H51833908   6.722   3.952   3.698 -0.5028  3.1614 -2.2634
   46MOL   H51933909   6.588   3.812   3.456 -1.4803  1.5718 -0.3099
   46MOL   C52033910   6.531   3.997   3.508  0.6792 -0.5695  0.5719
   46MOL   O52133911   6.541   4.089   3.590  0.0347 -0.0589  0.9468
   46MOL   C52233912   6.428   4.004   3.388 -0.1398  0.3944 -0.6921
   46MOL   C52333913   6.412   4.143   3.327 -0.5549 -0.0598  0.6550
   46MOL   C52433914   6.520   4.179   3.218 -0.2720 -0.7002  0.2075
   46MOL   C52533915   6.510   4.332   3.160  0.5924  0.2712 -0.1383
   46MOL   C52633916   6.591   4.372   3.029 -0.1540  0.0784 -0.1963
   46MOL   C52733917   6.572   4.521   2.985  1.1419  0.1078  0.4860
   46MOL   C52833918   6.651   4.572   2.865 -0.1013  0.0970 -0.1534
   46MOL   C52933919   6.801   4.571   2.886 -0.3039  0.4250 -0.2912
   46MOL   C53033920   6.847   4.655   3.000 -0.5681  0.1665 -0.2014
   46MOL   C53133921   6.996   4.668   3.021 -1.0491 -0.3641  0.2168
   46MOL   C53233922   7.033   4.767   3.130 -0.4759  0.1889 -0.2848
   46MOL   N53333923   6.993   4.721   3.260 -0.4541 -0.0989 -0.1921
   46MOL   H53433924   6.332   3.979   3.432  0.0357  0.2837 -0.3706
   46MOL   H53533925   6.442   3.927   3.312  1.5042 -0.5557  0.5415
   46MOL   H53633926   6.311   4.155   3.289  0.0463 -0.6348 -1.1992
   46MOL   H53733927   6.424   4.221   3.402  2.3195 -2.4179  2.7782
   46MOL   H53833928   6.517   4.105   3.138 -0.9471 -1.5340  0.9840
   46MOL   H53933929   6.621   4.174   3.260 -0.0870 -1.7335 -0.3275
   46MOL   H54033930   6.404   4.344   3.135 -0.0244 -2.0338  1.2498
   46MOL   H54133931   6.507   4.405   3.241  1.0849  0.3232 -0.1652
   46MOL   H54233932   6.563   4.305   2.947 -0.1927 -0.7433  0.4793
   46MOL   H54333933   6.696   4.355   3.049 -0.5614 -1.5528  0.6635
   46MOL   H54433934   6.590   4.581   3.074  1.3786  1.3177 -0.3651
   46MOL   H54533935   6.468   4.551   2.970  0.1556 -4.1833 -2.1844
   46MOL   H54633936   6.610   4.671   2.842 -2.0928 -0.9007 -0.9745
   46MOL   H54733937   6.613   4.515   2.781  1.2510 -0.4896 -0.3779
   46MOL   H54833938   6.849   4.600   2.793  0.9412  0.6784  0.4190
   46MOL   H54933939   6.826   4.466   2.899 -2.5084  0.1287  1.8868
   46MOL   H55033940   6.805   4.619   3.094  0.6468  0.7875  0.5916
   46MOL   H55133941   6.819   4.757   2.975 -1.9436  0.3790  2.0787
   46MOL   H55233942   7.040   4.703   2.928  1.5784  1.5419  2.1081
   46MOL   H55333943   7.042   4.572   3.044  1.6775  0.6548 -0.8789
   46MOL   H55433944   6.963   4.850   3.131 -0.5887  0.0978  2.0713
   46MOL   H55533945   7.138   4.795   3.122 -0.5180  0.3986 -0.0739
   46MOL   H55633946   6.911   4.756   3.308  0.4742 -1.0265  2.0994
   46MOL   C55733947   7.040   4.622   3.324 -0.0313 -0.0513 -0.5194
   46MOL   O55833948   7.134   4.557   3.284 -0.2581  0.3276 -0.4888
   46MOL   C55933949   6.968   4.574   3.447  0.2710 -0.0140  0.5349
   46MOL   C56033950   6.843   4.486   3.411  0.4138  0.4293  0.3586
   46MOL   C56133951   6.860   4.367   3.320 -0.1934  0.0903 -0.5637
   46MOL   C56233952   6.958   4.259   3.369  0.2280  0.1842 -0.1152
   46MOL   C56333953   6.905   4.179   3.491 -0.0554 -0.1932  0.6352
   46MOL   C56433954   7.015   4.099   3.570  0.0484 -0.0096 -0.7822
   46MOL   C56533955   7.093   3.983   3.490 -0.6327  0.5848  1.0115
   46MOL   C56633956   7.173   3.884   3.574  0.4492  0.1907  0.1830
   46MOL   C56733957   7.226   3.774   3.483  0.1744  0.0302  0.2403
   46MOL   C56833958   7.269   3.653   3.562 -0.3013  0.2933 -0.1236
   46MOL   C56933959   7.340   3.550   3.478 -0.4168  0.4210 -0.1949
   46MOL   N57033960   7.403   3.446   3.560  0.0009 -1.0291  0.1184
   46MOL   H57133961   6.943   4.661   3.508  0.8352 -0.7368  1.8223
   46MOL   H57233962   7.037   4.506   3.496  0.1861  0.1066  0.8214
   46MOL   H57333963   6.813   4.446   3.507  0.4824 -0.4019  0.0474
   46MOL   H57433964   6.758   4.549   3.385  1.6357  1.2532 -1.7586
   46MOL   H57533965   6.889   4.412   3.225 -2.4011  3.1500  0.1604
   46MOL   H57633966   6.759   4.326   3.308  0.6532 -2.8326  1.8636
   46MOL   H57733967   6.982   4.186   3.291 -2.1693 -0.2205 -0.5238
   46MOL   H57833968   7.049   4.315   3.390  1.0881 -2.3284  3.3378
   46MOL   H57933969   6.822   4.111   3.466 -1.2021  1.3366  0.2130
   46MOL   H58033970   6.857   4.243   3.566 -0.9028 -1.2159  0.9924
   46MOL   H58133971   6.963   4.047   3.651 -2.0023  0.9703 -1.4168
   46MOL   H58233972   7.079   4.163   3.630 -1.0138  1.3980 -1.1127
   46MOL   H58333973   7.156   4.018   3.409 -1.4594 -2.0001 -0.8109
   46MOL   H58433974   7.005   3.931   3.452 -0.0550  0.2522  0.1118
   46MOL   H58533975   7.096   3.842   3.638 -1.5228  1.4493 -1.2731
   46MOL   H58633976   7.249   3.927   3.638 -0.7916 -1.5920  2.9120
   46MOL   H58733977   7.299   3.805   3.409  0.7579  0.9864  1.2051
   46MOL   H58833978   7.140   3.739   3.426  0.0596 -0.8633  0.9483
   46MOL   H58933979   7.190   3.606   3.622  0.3917  0.9633  1.3301
   46MOL   H59033980   7.344   3.688   3.633 -0.1528 -4.3093  2.2403
   46MOL   H59133981   7.422   3.594   3.421  0.1180 -0.6280 -0.2547
   46MOL   H59233982   7.269   3.513   3.403 -0.3086 -1.9758  0.8469
   46MOL   H59333983   7.441   3.472   3.651 -0.6608 -0.7562  0.3243
   46MOL   C59433984   7.458   3.338   3.509 -0.0472  0.0810  0.4132
   46MOL   O59533985   7.451   3.321   3.388  0.4939  0.3617 -0.3055
   46MOL   C59633986   7.534   3.240   3.591 -0.2027 -0.1061 -0.3466
   46MOL   C59733987   7.486   3.092   3.559  0.3046  0.3876 -0.6253
   46MOL   C59833988   7.549   2.994   3.666 -0.2771 -0.1351  0.2812
   46MOL   C59933989   7.490   2.853   3.648 -0.3122  0.6287 -0.0952
   46MOL   C60033990   7.513   2.761   3.773  0.0342  0.4176 -0.4170
   46MOL   C60133991   7.659   2.713   3.777 -0.0073  0.0303 -0.2234
   46MOL   C60233992   0.009   2.683   3.920  0.2183 -0.4397  0.2077
   46MOL   C60333993   0.162   2.642   3.930  0.0751  0.2670  0.2135
   46MOL   C60433994   0.170   2.498   3.875  0.1904 -0.1028 -0.1358
   46MOL   C60533995   0.234   2.404   3.977  0.2652 -0.0473 -0.6025
   46MOL   C60633996   0.210   2.260   3.938  0.0167 -0.0304 -0.7577
   46MOL   N60733997   0.283   2.178   4.034 -0.0671 -0.2057  0.3935
   46MOL   H60833998   7.523   3.261   3.698 -1.0817 -0.9251 -0.2658
   46MOL   H60933999   7.642   3.241   3.577 -0.1412 -2.7594 -0.2699
   46MOL   H61034000   7.377   3.096   3.571  0.3270  3.1354 -0.9967
   46MOL   H61134001   7.507   3.065   3.456 -0.8247  2.1170 -1.3421
   46MOL   H61234002   7.524   3.036   3.763  2.5261  1.6229  0.2971
   46MOL   H61334003   7.656   2.993   3.647 -0.5701 -0.5915 -1.3841
   46MOL   H61434004   7.382   2.865   3.633 -0.3694  0.4473  0.1859
   46MOL   H61534005   7.521   2.805   3.555 -0.5138  1.8098 -0.7982
   46MOL   H61634006   7.441   2.680   3.764 -0.9834  0.8754  2.9742
   46MOL   H61734007   7.495   2.823   3.861 -4.2543  0.5690 -1.2705
   46MOL   H61834008   0.034   2.791   3.744 -1.0077  1.3674  0.7912
   46MOL   H61934009   7.672   2.624   3.715 -1.1041 -0.9978  1.0060
   46MOL   H62034010   7.642   2.598   3.950  0.0050  0.0467  1.1825
   46MOL   H62134011   7.673   2.767   3.983 -1.0779  0.1041 -1.1120
   46MOL   H62234012   0.184   2.651   4.036  2.0561 -0.7857 -0.0785
   46MOL   H62334013   0.229   2.715   3.886  1.0432 -1.1595 -0.7564
   46MOL   H62434014   0.237   2.500   3.789 -0.9656  1.3652 -1.0282
   46MOL   H62534015   0.074   2.460   3.840  0.2621 -0.2973 -0.1246
   46MOL   H62634016   0.188   2.415   4.075  0.5612  0.3356 -0.5074
   46MOL   H62734017   0.340   2.426   3.991  0.1801 -0.4050  0.6722
   46MOL   H62834018   0.244   2.229   3.839 -1.5930  2.0982 -2.0085
   46MOL   H62934019   0.105   2.229   3.944  1.1024 -3.5795  2.5696
   46MOL   H63034020   0.290   2.204   4.131  0.4826 -1.9578  0.8463
   46MOL   C63134021   0.358   2.074   4.005 -0.3190  0.3266 -0.5259
   46MOL   O63234022   0.390   2.042   3.892 -0.0028 -0.3719  0.1259
   46MOL   C63334023   0.427   1.999   4.122  0.3402  0.1744  0.6165
   46MOL   C63434024   0.512   1.871   4.092  0.4558 -0.1409 -0.0362
   46MOL   C63534025   0.641   1.886   4.019 -0.0272 -0.4245  0.0782
   46MOL   C63634026   0.722   1.748   4.005 -0.2354  0.2950 -0.2794
   46MOL   C63734027   0.866   1.765   3.942  0.4065  0.2611 -0.3447
   46MOL   C63834028   0.946   1.639   3.904  0.6065  0.0430  0.0615
   46MOL   C63934029   0.888   1.568   3.777 -0.2843 -0.7872 -0.2728
   46MOL   C64034030   0.967   1.441   3.737 -0.1455  0.2371 -0.5041
   46MOL   C64134031   0.893   1.367   3.626  0.0255  0.5278 -0.4915
   46MOL   C64234032   0.964   1.230   3.583  0.9414  0.2031  0.0754
   46MOL   C64334033   0.960   1.118   3.692  0.0051 -0.5710 -0.2524
   46MOL   N64434034   1.016   1.003   3.630 -0.7796 -0.1108 -0.2702
   46MOL   H64534035   0.337   1.973   4.178 -3.0969  2.8465 -3.3589
   46MOL   H64634036   0.488   2.064   4.184  1.3154  0.4404 -0.5849
   46MOL   H64734037   0.537   1.827   4.189  1.6653 -1.4896 -0.9377
   46MOL   H64834038   0.451   1.804   4.032  0.5466  0.2615 -0.5790
   46MOL   H64934039   0.705   1.961   4.066  0.2386 -0.0205 -0.9231
   46MOL   H65034040   0.615   1.921   3.920  0.3246  2.1823  0.8607
   46MOL   H65134041   0.730   1.701   4.103  0.3014 -0.8847 -0.8773
   46MOL   H65234042   0.664   1.681   3.942 -1.8579  1.5545 -0.1685
   46MOL   H65334043   0.917   1.813   4.025 -0.7410 -1.1509  1.2116
   46MOL   H65434044   0.863   1.847   3.869 -0.4191  1.7795  1.3653
   46MOL   H65534045   0.961   1.573   3.989  0.7114 -1.9685 -1.4676
   46MOL   H65634046   1.044   1.672   3.872 -0.7304  1.1797 -3.0521
   46MOL   H65734047   0.899   1.631   3.689 -1.2853  1.4190  1.1214
   46MOL   H65834048   0.784   1.537   3.789 -0.2697 -0.7479 -0.0412
   46MOL   H65934049   0.961   1.375   3.823  2.0701  1.0992  0.3489
   46MOL   H66034050   1.069   1.469   3.712 -0.6356  1.4010 -1.3055
   46MOL   H66134051   0.871   1.427   3.537 -1.0229  1.1318  0.1749
   46MOL   H66234052   0.798   1.343   3.674 -0.4134  1.4275 -0.8965
   46MOL   H66334053   1.065   1.253   3.551  0.3345  0.3006 -1.8318
   46MOL   H66434054   0.920   1.196   3.490  0.3505  1.9474 -0.3086
   46MOL   H66534055   0.858   1.102   3.726 -0.9639  3.0312 -1.1844
   46MOL   H66634056   1.011   1.142   3.785 -1.9873  0.2267  0.6666
   46MOL   H66734057   1.105   1.031   3.592 -0.7795  1.1973  0.6747
   46MOL   C66834058   0.961   0.886   3.617 -0.7921  0.4925  0.5901
   46MOL   O66934059   0.854   0.853   3.660  0.6857  0.3546  0.3393
   46MOL   C67034060   1.045   0.789   3.534 -0.1466 -0.1641 -0.1195
   46MOL   C67134061   1.028   0.644   3.588 -0.4986 -0.5481  0.1230
   46MOL   C67234062   1.132   0.539   3.548  0.0422 -0.2480 -0.1827
   46MOL   C67334063   1.103   0.401   3.611 -0.6383  0.1266  0.4481
   46MOL   C67434064   1.221   0.302   3.584  1.0063 -0.2819 -0.1094
   46MOL   C67534065   1.213   0.168   3.649  0.1421  0.9063  0.0328
   46MOL   C67634066   1.308   0.065   3.586  0.1795 -0.0653 -0.0599
   46MOL   C67734067   1.306   7.618   3.664 -0.2502 -0.2693 -0.0453
   46MOL   C67834068   1.406   7.520   3.598  0.8744 -0.2122  0.1702
   46MOL   C67934069   1.421   7.392   3.683 -0.0142 -0.7653  0.0020
   46MOL   C68034070   1.547   7.398   3.780  0.3861 -0.3124  0.0329
   46MOL   N68134071   1.550   7.276   3.862  0.6842  1.2426  0.6830
   46MOL   H68234072   1.151   0.814   3.544  0.8234 -2.4973 -3.6240
   46MOL   H68334073   1.011   0.782   3.431 -3.4656 -2.2614  1.0516
   46MOL   H68434074   1.010   0.640   3.696  2.3737  0.1521  0.6546
   46MOL   H68534075   0.930   0.613   3.550  0.3184 -1.3268 -1.3821
   46MOL   H68634076   1.235   0.566   3.570  0.1200 -0.5157 -0.2140
   46MOL   H68734077   1.129   0.529   3.439 -0.5401 -0.9477 -0.1061
   46MOL   H68834078   1.077   0.411   3.716 -2.1122 -2.5914  0.3934
   46MOL   H68934079   1.012   0.363   3.564 -0.9251 -0.4484  1.4559
   46MOL   H69034080   1.317   0.348   3.612  0.9324 -0.0397 -0.2515
   46MOL   H69134081   1.227   0.286   3.477  0.8172  0.1942 -0.1911
   46MOL   H69234082   1.109   0.135   3.645 -0.0642  1.5132  0.3233
   46MOL   H69334083   1.233   0.177   3.756 -1.4973  3.8730  0.1274
   46MOL   H69434084   1.408   0.103   3.606 -0.9070  1.8975  1.9314
   46MOL   H69534085   1.292   0.062   3.478 -0.9070 -0.1700  0.0959
   46MOL   H69634086   1.211   7.568   3.649 -0.9600  0.4983  1.7515
   46MOL   H69734087   1.308   7.619   3.773 -2.5949 -1.2903  0.0285
   46MOL   H69834088   1.494   7.573   3.562  1.8940 -2.1214 -0.2298
   46MOL   H69934089   1.370   7.486   3.501  1.0827  0.7719 -0.2567
   46MOL   H70034090   1.432   7.303   3.620 -0.1655  0.0277 -1.1781
   46MOL   H70134091   1.322   7.376   3.723 -0.8956 -0.4994 -1.9991
   46MOL   H70234092   1.560   7.484   3.845  0.3625 -0.3985  0.1498
   46MOL   H70334093   1.641   7.404   3.724 -0.3845  0.4937 -1.2172
   46MOL   H70434094   1.464   7.226   3.882  2.1291 -1.2141  1.0120
   46MOL   C70534095   1.656   7.212   3.915  0.3060  0.2878 -0.0185
   46MOL   O70634096   1.767   7.261   3.903 -0.5571  0.4802  0.7368
   46MOL   C70734097   1.653   7.082   4.002  0.6230  0.1353 -0.5572
   46MOL   C70834098   1.687   6.955   3.911  0.1267 -0.0742 -0.4720
   46MOL   C70934099   1.825   6.946   3.853  0.2651  0.0485  0.1496
   46MOL   C71034100   1.835   6.820   3.777  0.0218 -0.4015  0.0479
   46MOL   C71134101   1.962   6.833   3.691 -0.1986 -0.4065  0.2657
   46MOL   C71234102   1.987   6.707   3.606  0.9038  0.7515 -0.1255
   46MOL   C71334103   2.124   6.708   3.532  0.2196 -0.0257 -1.3045
   46MOL   C71434104   2.125   6.605   3.415  0.2261 -0.6197  0.6985
   46MOL   C71534105   2.257   6.559   3.357 -0.4845 -0.2508 -0.2263
   46MOL   C71634106   2.252   6.453   3.250 -0.1376 -0.0287 -0.4375
   46MOL   C71734107   2.381   6.373   3.238  0.1593 -0.1378  0.1095
   46MOL   N71834108   2.367   6.286   3.123 -0.5957 -0.0256  0.1301
   46MOL   H71934109   1.549   7.072   4.034  0.8283  0.3195  0.1688
   46MOL   H72034110   1.721   7.096   4.086  1.7213 -0.0547 -1.4017
   46MOL   H72134111   1.652   6.868   3.967 -0.7135 -0.0357 -0.9364
   46MOL   H72234112   1.613   6.959   3.831  0.6933 -0.6571 -1.0267
   46MOL   H72334113   1.900   6.950   3.933  0.3874 -0.4689  0.0599
   46MOL   H72434114   1.838   7.035   3.792 -1.8450 -0.4014 -0.9840
   46MOL   H72534115   1.858   6.740   3.848 -0.8003 -1.0569 -0.4081
   46MOL   H72634116   1.744   6.800   3.719  0.6807  0.9392 -1.4820
   46MOL   H72734117   2.050   6.834   3.755 -0.6329  0.3057  0.8562
   46MOL   H72834118   1.955   6.925   3.632 -0.2646 -1.2066 -0.9966
   46MOL   H72934119   1.902   6.684   3.540  0.1435 -1.5799  1.6254
   46MOL   H73034120   1.987   6.620   3.671  1.5136 -0.3106 -1.5105
   46MOL   H73134121   2.208   6.705   3.601 -0.6605  1.5601 -0.1390
   46MOL   H73234122   2.141   6.805   3.485  1.9059 -0.0648 -0.8191
   46MOL   H73334123   2.074   6.653   3.331  0.7826  0.1756  0.8110
   46MOL   H73434124   2.076   6.512   3.446  0.6848 -0.9371  0.4857
   46MOL   H73534125   2.309   6.526   3.448 -2.0401 -0.9924  0.4155
   46MOL   H73634126   2.317   6.647   3.334 -1.1276  0.3682  0.4502
   46MOL   H73734127   2.211   6.478   3.151  0.0030  1.2953 -0.1753
   46MOL   H73834128   2.182   6.380   3.290  0.2905  0.2507  0.8296
   46MOL   H73934129   2.402   6.321   3.332  0.0521  0.4841  0.4843
   46MOL   H74034130   2.463   6.444   3.227 -0.3840  0.4986  0.1080
   46MOL   H74134131   2.382   6.335   3.036 -2.1258  0.6759  0.2410
   46MOL   H74234132   2.438   6.215   3.113 -1.7297 -1.5071  2.2300
   47MOL     C134133   4.197   3.749   4.907  0.3053 -0.3589 -0.0385
   47MOL     O234134   4.303   3.689   4.869  0.0927  0.0501  0.3421
   47MOL     C334135   4.069   3.675   4.935 -0.3331 -0.5330 -0.1354
   47MOL     C434136   3.953   3.733   4.850 -0.7082  0.9114 -0.6894
   47MOL     C534137   3.959   3.706   4.697 -0.4821  0.0465 -0.0683
   47MOL     C634138   3.836   3.759   4.620  0.3378 -0.4694  0.3349
   47MOL     C734139   3.824   3.719   4.479 -0.7675  0.3264 -0.3959
   47MOL     C834140   3.722   3.783   4.394  0.5726 -0.2466  0.0864
   47MOL     C934141   3.709   3.690   4.265 -0.3213 -0.6662 -0.1181
   47MOL    C1034142   3.604   3.735   4.162 -0.4850 -0.3066  0.6998
   47MOL    C1134143   3.607   3.650   4.037  0.5106 -1.0877  0.3245
   47MOL    C1234144   3.562   3.510   4.050 -0.6535  0.9390  0.9531
   47MOL    C1334145   3.419   3.485   4.101 -0.5920  0.4977 -0.3438
   47MOL    N1434146   3.382   3.342   4.125  0.4076 -0.4578 -0.1695
   47MOL    H1534147   4.058   3.691   5.043  1.6963 -0.6434  0.0909
   47MOL    H1634148   4.078   3.569   4.910  0.3646 -0.0483 -1.9679
   47MOL    H1734149   3.866   3.687   4.896  0.6445 -0.7365  0.2991
   47MOL    H1834150   3.952   3.842   4.858  1.0302  0.7846  2.5534
   47MOL    H1934151   3.952   3.600   4.675  0.9881 -0.1728  0.4848
   47MOL    H2034152   4.047   3.754   4.652 -1.8243  2.1824 -0.4951
   47MOL    H2134153   3.745   3.723   4.668  1.0423  0.6565  2.6296
   47MOL    H2234154   3.839   3.868   4.617 -0.0417 -0.4596  0.2601
   47MOL    H2334155   3.797   3.614   4.475  0.2509  0.0906 -1.3990
   47MOL    H2434156   3.921   3.723   4.429  1.2908  0.0000  3.4044
   47MOL    H2534157   3.744   3.881   4.352 -2.8723 -0.8012 -3.2644
   47MOL    H2634158   3.626   3.794   4.444 -0.0340  0.3166 -1.1831
   47MOL    H2734159   3.673   3.591   4.294 -3.6557  0.1007 -1.3497
   47MOL    H2834160   3.804   3.661   4.219  0.0882 -1.6647  1.3223
   47MOL    H2934161   3.625   3.842   4.151 -0.8068 -0.0014  2.9329
   47MOL    H3034162   3.505   3.732   4.208 -0.3281  0.5106  1.1064
   47MOL    H3134163   3.703   3.652   3.984  0.7814 -2.8258  0.6898
   47MOL    H3234164   3.544   3.703   3.966  0.4313 -0.3075  0.9854
   47MOL    H3334165   3.628   3.446   4.110 -1.0683  0.6678  1.1207
   47MOL    H3434166   3.574   3.451   3.959  1.1537  1.5330  0.7904
   47MOL    H3534167   3.350   3.548   4.045 -0.7592  1.4947  0.9521
   47MOL    H3634168   3.437   3.528   4.200 -2.4138 -0.2776  0.3333
   47MOL    H3734169   3.366   3.305   4.217  0.7849  2.5064  1.1546
   47MOL    H3834170   4.194   3.858   4.916  0.7761 -0.1802 -1.8398
   47MOL    C3934171   3.359   3.254   4.027  0.3793 -0.1726  0.0121
   47MOL    O4034172   3.336   3.282   3.911  0.0068 -0.0837 -0.4496
   47MOL    C4134173   3.341   3.114   4.067  0.2186 -1.0521 -0.6097
   47MOL    C4234174   3.192   3.075   4.087 -0.1997 -0.3498 -0.0263
   47MOL    C4334175   3.109   3.159   4.182  0.2224  0.1775 -0.9263
   47MOL    C4434176   2.985   3.086   4.227  0.3272  0.1728 -0.0587
   47MOL    C4534177   2.893   3.185   4.306  0.2274 -0.0045  0.0298
   47MOL    C4634178   2.757   3.115   4.335  0.0303  0.3522 -0.2122
   47MOL    C4734179   2.652   3.196   4.411  0.1019 -0.2247 -0.4352
   47MOL    C4834180   2.590   3.321   4.345 -0.7849 -0.9725  0.3222
   47MOL    C4934181   2.534   3.428   4.431 -0.2294  0.1032 -0.0737
   47MOL    C5034182   2.496   3.553   4.352 -0.2381 -0.2427  0.3958
   47MOL    C5134183   2.399   3.651   4.432  1.1412  0.2308  0.0434
   47MOL    N5234184   2.273   3.588   4.430  0.2176  0.1812  0.5903
   47MOL    H5334185   3.404   3.106   4.156  1.1505  1.6165 -0.9731
   47MOL    H5434186   3.369   3.053   3.982 -0.8006  0.7899 -2.3225
   47MOL    H5534187   3.138   3.070   3.992 -0.3987  0.0342  0.0651
   47MOL    H5634188   3.209   2.978   4.132  0.9367  0.1856  0.7071
   47MOL    H5734189   3.075   3.249   4.132  0.8208  0.9117 -0.0329
   47MOL    H5834190   3.173   3.194   4.263  2.4383 -2.0886 -1.6326
   47MOL    H5934191   2.929   3.058   4.137  1.2316 -3.1041  0.3384
   47MOL    H6034192   3.002   2.995   4.284  1.1217 -0.8410 -1.8421
   47MOL    H6134193   2.877   3.278   4.253  0.4028  1.6815  2.8123
   47MOL    H6234194   2.933   3.212   4.404  1.6279 -1.6390 -0.0626
   47MOL    H6334195   2.774   3.023   4.392 -0.2348  0.9086  0.7763
   47MOL    H6434196   2.707   3.090   4.241  1.0752 -0.9876 -0.4339
   47MOL    H6534197   2.695   3.223   4.508  3.9007 -0.1117 -2.0621
   47MOL    H6634198   2.565   3.134   4.431  0.9365 -1.3004 -0.1218
   47MOL    H6734199   2.510   3.285   4.280 -0.4901  1.4647 -1.4446
   47MOL    H6834200   2.657   3.364   4.270  1.0848 -0.1380  2.4133
   47MOL    H6934201   2.608   3.456   4.507 -0.2046 -2.7193  1.0213
   47MOL    H7034202   2.449   3.384   4.483 -1.3140 -1.8540 -3.4025
   47MOL    H7134203   2.442   3.542   4.258  0.7995  1.3378 -0.4183
   47MOL    H7234204   2.590   3.598   4.321 -1.6088 -0.1372 -3.9262
   47MOL    H7334205   2.391   3.740   4.369 -0.5512 -0.7368 -1.1516
   47MOL    H7434206   2.435   3.671   4.533  0.4619 -3.2690  1.0312
   47MOL    H7534207   2.241   3.556   4.340 -0.4927 -1.2621  1.3349
   47MOL    C7634208   2.188   3.579   4.535  0.1299  0.2336 -0.4039
   47MOL    O7734209   2.216   3.637   4.643 -0.5000 -0.6181  0.4496
   47MOL    C7834210   2.053   3.512   4.522 -0.2017  0.5739  0.4166
   47MOL    C7934211   1.995   3.458   4.649  0.2427 -0.0374 -0.0056
   47MOL    C8034212   2.077   3.336   4.707  0.2165 -0.0234  0.5541
   47MOL    C8134213   2.097   3.215   4.613  0.7126  0.6693 -0.4893
   47MOL    C8234214   2.166   3.090   4.670 -1.1729  0.1763  0.6248
   47MOL    C8334215   2.314   3.119   4.705  0.8682 -0.5767  0.4781
   47MOL    C8434216   2.362   3.012   4.811 -0.2749 -0.3373 -0.2784
   47MOL    C8534217   2.505   3.052   4.866 -0.2732  0.0979 -0.7752
   47MOL    C8634218   2.578   2.940   4.937 -0.1464 -0.0903  0.4090
   47MOL    C8734219   2.501   2.872   5.054 -0.7356  0.3505 -0.1764
   47MOL    C8834220   2.573   2.744   5.112 -0.2778 -0.1654  0.3866
   47MOL    N8934221   2.700   2.775   5.179  0.2251  0.3111  0.3260
   47MOL    H9034222   2.074   3.435   4.447  0.9033  2.6069 -1.3932
   47MOL    H9134223   1.985   3.579   4.470 -1.6170 -2.5307 -1.9632
   47MOL    H9234224   1.969   3.541   4.714  1.4802  1.2113 -1.0673
   47MOL    H9334225   1.900   3.410   4.624 -0.0238  0.4155  0.1276
   47MOL    H9434226   2.034   3.307   4.802  2.1606  3.6265  2.6412
   47MOL    H9534227   2.175   3.374   4.736  0.0295 -1.0266  2.5379
   47MOL    H9634228   2.005   3.182   4.564  0.1067  0.6786  0.6206
   47MOL    H9734229   2.161   3.246   4.531  0.9941 -0.0838 -0.5599
   47MOL    H9834230   2.160   3.011   4.596 -0.0613  1.4754 -0.8716
   47MOL    H9934231   2.108   3.057   4.756 -0.6473 -4.0572 -0.5742
   47MOL   H10034232   2.324   3.216   4.752  1.9156 -1.3929  1.9899
   47MOL   H10134233   2.370   3.126   4.611 -0.2345  1.3184 -0.0652
   47MOL   H10234234   2.378   2.916   4.762  2.3622 -0.1493  0.1321
   47MOL   H10334235   2.289   3.001   4.891 -0.4141  2.8567  0.0820
   47MOL   H10434236   2.499   3.147   4.919  2.6052  1.6121 -3.0211
   47MOL   H10534237   2.565   3.086   4.782 -0.7934  1.8616 -0.4603
   47MOL   H10634238   2.674   2.968   4.980 -0.6026 -0.0571  1.4360
   47MOL   H10734239   2.600   2.871   4.856 -1.3886 -0.0627  0.0381
   47MOL   H10834240   2.402   2.848   5.016 -0.9162  2.6517 -1.2560
   47MOL   H10934241   2.477   2.941   5.134 -2.3861 -0.8417  0.3958
   47MOL   H11034242   2.594   2.672   5.033 -2.9411 -1.6553  0.9730
   47MOL   H11134243   2.507   2.695   5.184  0.2695 -2.0065 -0.3448
   47MOL   H11234244   2.695   2.825   5.266  0.1146  1.9785 -0.6252
   47MOL   C11334245   2.821   2.729   5.144  0.3833 -0.3625  0.5510
   47MOL   O11434246   2.842   2.670   5.039  0.0978  0.4221  0.5102
   47MOL   C11534247   2.940   2.765   5.232 -0.6255 -0.1578 -0.1479
   47MOL   C11634248   2.961   2.655   5.347 -0.0341 -0.4995 -0.5863
   47MOL   C11734249   3.054   2.719   5.449  0.1215  0.7768  0.0654
   47MOL   C11834250   3.098   2.622   5.563 -0.3141 -0.3878  0.0821
   47MOL   C11934251   3.169   2.694   5.683  0.7183 -0.0143 -0.5233
   47MOL   C12034252   3.086   2.765   5.796  0.1968  0.2353 -0.0164
   47MOL   C12134253   3.178   2.834   5.896  0.3537  0.7202  0.1492
   47MOL   C12234254   3.105   2.932   5.985  0.4988 -0.5506 -0.6855
   47MOL   C12334255   3.198   2.982   6.089 -0.3192  0.4059 -0.9925
   47MOL   C12434256   3.121   3.081   6.176 -0.1142 -0.6873 -0.1138
   47MOL   C12534257   3.211   3.142   6.290 -0.1961 -0.6552  0.4178
   47MOL   N12634258   3.132   3.214   6.391  1.2302  0.8125  0.2511
   47MOL   H12734259   2.919   2.868   5.262  0.3916 -0.2494  0.9136
   47MOL   H12834260   3.036   2.772   5.180 -0.2651  2.5445  0.7985
   47MOL   H12934261   2.870   2.631   5.402  0.9251 -0.0763  1.2156
   47MOL   H13034262   3.004   2.564   5.306  1.4576  0.1061 -0.4097
   47MOL   H13134263   3.014   2.811   5.490 -0.0672  1.4773 -1.6731
   47MOL   H13234264   3.145   2.755   5.401  1.8313 -0.2314  2.4131
   47MOL   H13334265   3.001   2.584   5.593  0.9248 -2.3847  1.5982
   47MOL   H13434266   3.154   2.539   5.520 -1.1879  0.0445 -1.9977
   47MOL   H13534267   3.234   2.773   5.646  0.1948  1.9715  2.5954
   47MOL   H13634268   3.220   2.620   5.744 -1.5312 -0.7660  0.5100
   47MOL   H13734269   3.007   2.702   5.836 -0.0700  1.8102  2.0119
   47MOL   H13834270   3.032   2.846   5.747 -0.8309 -0.5714 -0.2281
   47MOL   H13934271   3.272   2.866   5.851 -0.5858  0.2295 -2.2456
   47MOL   H14034272   3.200   2.756   5.968 -3.0401 -0.8334 -0.3832
   47MOL   H14134273   3.017   2.889   6.032  1.7013  0.2180  2.4256
   47MOL   H14234274   3.073   3.016   5.923 -0.8459  0.3307  1.1711
   47MOL   H14334275   3.289   3.025   6.049 -0.0213  0.6500 -0.0529
   47MOL   H14434276   3.237   2.897   6.145 -1.8967  0.5694  0.4175
   47MOL   H14534277   3.040   3.028   6.227 -1.5817  2.0546  0.4665
   47MOL   H14634278   3.083   3.158   6.111 -2.8162 -0.6905  1.3986
   47MOL   H14734279   3.284   3.206   6.241 -1.0210 -1.3247 -1.7401
   47MOL   H14834280   3.263   3.062   6.343 -2.9321 -2.2285  0.8469
   47MOL   H14934281   3.095   3.155   6.464  1.3629  3.2341  2.3074
   47MOL   C15034282   3.132   3.343   6.416 -0.5613  0.4042 -0.7616
   47MOL   O15134283   3.192   3.425   6.349 -0.6065 -0.4000  0.0015
   47MOL   C15234284   3.071   3.392   6.548  0.3941  0.3596  0.3691
   47MOL   C15334285   3.160   3.431   6.661 -0.4434  0.6332 -1.3245
   47MOL   C15434286   3.231   3.312   6.732 -0.1689 -0.6250 -0.2748
   47MOL   C15534287   3.330   3.356   6.843 -0.4266  0.0920  0.4681
   47MOL   C15634288   3.381   3.250   6.943 -0.4752  0.0190 -0.9916
   47MOL   C15734289   3.495   3.153   6.905  0.3328  0.1619  0.4876
   47MOL   C15834290   3.531   3.051   7.010  0.3166  0.0285 -0.0786
   47MOL   C15934291   3.419   2.958   7.041  0.8201  1.1224 -0.1945
   47MOL   C16034292   3.469   2.836   7.122  0.1763  0.4839  0.2108
   47MOL   C16134293   3.346   2.772   7.191 -0.3982 -0.1917  0.2051
   47MOL   C16234294   3.239   2.719   7.092  0.0528 -0.5866  0.2392
   47MOL   N16334295   3.303   2.618   7.012  0.2629  0.0983  0.7080
   47MOL   H16434296   3.009   3.311   6.587  2.6313 -1.5588  0.0977
   47MOL   H16534297   3.001   3.468   6.513  1.3108  0.4504 -1.3125
   47MOL   H16634298   3.237   3.496   6.618  0.6721 -1.2800 -2.3399
   47MOL   H16734299   3.099   3.493   6.726  1.6522 -0.0613  1.4007
   47MOL   H16834300   3.289   3.240   6.674  0.5978 -1.1538  1.1090
   47MOL   H16934301   3.157   3.254   6.788  0.1137  0.9774  1.8463
   47MOL   H17034302   3.412   3.407   6.792  0.7503  1.9708  4.0446
   47MOL   H17134303   3.273   3.431   6.898 -2.4199 -1.4141  0.4864
   47MOL   H17234304   3.294   3.194   6.980  0.9461 -1.1708  0.6313
   47MOL   H17334305   3.412   3.306   7.031 -0.2650  0.4798 -1.3629
   47MOL   H17434306   3.576   3.222   6.881 -0.8099  1.1987 -0.4410
   47MOL   H17534307   3.488   3.102   6.809 -0.0421 -2.6914  1.9832
   47MOL   H17634308   3.577   3.108   7.091 -0.2410 -2.0832  1.7922
   47MOL   H17734309   3.617   2.996   6.973  0.7768  1.3235 -0.9520
   47MOL   H17834310   3.371   2.922   6.950 -1.0908 -0.5299  1.3885
   47MOL   H17934311   3.330   2.998   7.089 -0.5817  0.6213 -2.2867
   47MOL   H18034312   3.539   2.870   7.198 -0.5313  2.5569 -0.0315
   47MOL   H18134313   3.525   2.767   7.059  0.3693 -1.1493  2.1362
   47MOL   H18234314   3.300   2.844   7.258 -1.0602 -0.7645  0.3848
   47MOL   H18334315   3.373   2.691   7.259 -1.1349  0.1687  0.9276
   47MOL   H18434316   3.198   2.803   7.036 -1.8001 -1.6722 -0.0863
   47MOL   H18534317   3.161   2.666   7.148 -1.8012 -0.0142 -1.7147
   47MOL   H18634318   3.390   2.583   7.049  0.6941  1.0383  0.5883
   47MOL   C18734319   3.251   2.566   6.902 -0.4364  0.3610 -0.3124
   47MOL   O18834320   3.171   2.622   6.827 -0.4987 -0.4085  0.2879
   47MOL   C18934321   3.309   2.429   6.870  0.2951 -0.0096  0.4672
   47MOL   C19034322   3.278   2.388   6.726 -0.2530 -0.9291 -0.4020
   47MOL   C19134323   3.267   2.239   6.711  0.4194 -0.2797 -0.0612
   47MOL   C19234324   3.258   2.200   6.559 -0.2840 -0.5494  0.4730
   47MOL   C19334325   3.245   2.044   6.518 -0.2754 -0.3526  0.4326
   47MOL   C19434326   3.137   1.976   6.605 -0.0800 -0.0020 -0.7802
   47MOL   C19534327   3.138   1.824   6.598 -0.5195 -0.2323 -0.0833
   47MOL   C19634328   3.124   1.766   6.459  0.0302 -0.1336  0.2866
   47MOL   C19734329   3.141   1.613   6.446 -0.1274  0.4111  0.1696
   47MOL   C19834330   3.156   1.567   6.300  0.1587 -1.0690 -0.5269
   47MOL   C19934331   3.170   1.412   6.280  0.4043  0.2374 -0.2570
   47MOL   N20034332   3.252   1.355   6.384 -0.3400  0.3992 -0.5354
   47MOL   H20134333   3.266   2.364   6.946 -1.5439  2.4726  1.6185
   47MOL   H20234334   3.417   2.422   6.883  0.6337  2.8503 -0.5903
   47MOL   H20334335   3.178   2.423   6.701  0.4971  1.5585 -0.0546
   47MOL   H20434336   3.346   2.432   6.653 -0.6561 -1.6097 -1.1985
   47MOL   H20534337   3.180   2.215   6.772 -0.2355  0.9023 -0.5188
   47MOL   H20634338   3.354   2.197   6.761  1.1815  1.3831  0.0141
   47MOL   H20734339   3.178   2.255   6.511  2.6040  2.1061 -1.5373
   47MOL   H20834340   3.354   2.234   6.520 -1.1652  2.0762  0.5481
   47MOL   H20934341   3.343   1.998   6.525 -0.3269 -0.8797 -1.8928
   47MOL   H21034342   3.224   2.038   6.411  1.5304 -2.5628  0.1562
   47MOL   H21134343   3.044   2.026   6.579 -0.6287 -0.2464  0.6334
   47MOL   H21234344   3.152   1.999   6.711  2.8241 -1.4980 -0.8147
   47MOL   H21334345   3.056   1.780   6.654  0.6829  0.8950  2.6426
   47MOL   H21434346   3.226   1.787   6.649 -1.3130 -1.8829  0.1045
   47MOL   H21534347   3.204   1.818   6.407 -0.3846 -0.9061 -1.1540
   47MOL   H21634348   3.023   1.800   6.435  0.0935 -0.8447 -1.0253
   47MOL   H21734349   3.058   1.565   6.497  0.0393 -1.8026 -1.6081
   47MOL   H21834350   3.230   1.570   6.491 -0.9834 -0.7868  0.7390
   47MOL   H21934351   3.243   1.620   6.261  0.0101 -1.3136 -1.1965
   47MOL   H22034352   3.065   1.598   6.248  1.4334 -0.4046 -2.4035
   47MOL   H22134353   3.229   1.390   6.191  2.0087  1.5122  0.4559
   47MOL   H22234354   3.075   1.361   6.263  0.7331 -0.3102 -0.4494
   47MOL   H22334355   3.349   1.381   6.392 -0.5659  1.7196 -1.8757
   47MOL   C22434356   3.205   1.273   6.486  0.1560 -0.8784  0.5431
   47MOL   O22534357   3.084   1.244   6.500 -0.0076 -0.0720  0.4378
   47MOL   C22634358   3.312   1.225   6.587  0.5144 -0.6030 -0.0872
   47MOL   C22734359   3.288   1.076   6.614  0.1805 -0.2019  0.2392
   47MOL   C22834360   3.401   1.027   6.709  0.3376 -0.2378  0.0339
   47MOL   C22934361   3.393   0.877   6.755  0.4526 -0.3987  0.5166
   47MOL   C23034362   3.503   0.851   6.848  0.5364 -0.0749 -1.1128
   47MOL   C23134363   3.493   0.713   6.901  0.0819 -0.7633  0.3876
   47MOL   C23234364   3.581   0.689   7.026  0.3982 -0.0529  0.4271
   47MOL   C23334365   3.576   0.546   7.083  0.4478 -0.2960  0.5427
   47MOL   C23434366   3.660   0.455   6.994 -0.4107 -0.1045 -0.9137
   47MOL   C23534367   3.643   0.303   7.037 -0.5066 -0.4788 -0.4163
   47MOL   C23634368   3.686   0.209   6.928 -0.1803 -0.2213 -0.1194
   47MOL   N23734369   3.823   0.238   6.902 -0.2205  0.2178 -0.2837
   47MOL   H23834370   3.305   1.288   6.676  2.7250 -0.1496 -0.1844
   47MOL   H23934371   3.413   1.242   6.549  0.5708 -3.3966 -1.2515
   47MOL   H24034372   3.187   1.070   6.652  0.3200 -0.4004  0.5773
   47MOL   H24134373   3.297   1.020   6.521  1.0032  1.7351 -0.8982
   47MOL   H24234374   3.411   1.083   6.802  0.0939  0.5108 -0.3827
   47MOL   H24334375   3.495   1.044   6.656  0.8635 -2.3853  0.2313
   47MOL   H24434376   3.294   0.854   6.794 -0.6883  2.5300 -0.5793
   47MOL   H24534377   3.404   0.811   6.669  1.1010  1.5009 -0.8809
   47MOL   H24634378   3.489   0.920   6.932 -0.5423  0.7395 -1.9481
   47MOL   H24734379   3.602   0.864   6.804  1.4998 -0.9826  0.7208
   47MOL   H24834380   3.522   0.643   6.823  0.6471 -0.6087  0.4561
   47MOL   H24934381   3.391   0.681   6.926 -0.1011 -1.1078 -0.7470
   47MOL   H25034382   3.544   0.759   7.100 -0.8835  0.8472 -1.0535
   47MOL   H25134383   3.686   0.708   7.003  0.0360 -0.8585 -2.0659
   47MOL   H25234384   3.474   0.510   7.085 -0.6304  2.6732  3.0184
   47MOL   H25334385   3.621   0.536   7.182  0.6825 -0.3302  0.4332
   47MOL   H25434386   3.762   0.486   7.015 -0.4846  0.6125 -1.5798
   47MOL   H25534387   3.648   0.480   6.888 -1.1565  0.0867 -0.7884
   47MOL   H25634388   3.539   0.291   7.065 -0.2234  0.7020  1.2503
   47MOL   H25734389   3.700   0.286   7.128  0.7220  0.8411 -0.9169
   47MOL   H25834390   3.619   0.216   6.842  0.5753 -0.3797 -0.7158
   47MOL   H25934391   3.686   0.108   6.968  1.3680 -0.2696 -0.2397
   47MOL   H26034392   3.853   0.323   6.949  0.0747  0.3205 -0.6572
   47MOL   C26134393   3.906   0.186   6.814  0.2267  0.9731 -0.8243
   47MOL   O26234394   3.873   0.083   6.752  0.0432 -0.2463 -0.1458
   47MOL   C26334395   4.036   0.256   6.796  0.4468 -0.8128 -0.3226
   47MOL   C26434396   4.033   0.378   6.697  0.1633 -0.0433  0.3424
   47MOL   C26534397   3.973   0.509   6.750 -0.1026 -1.1067  0.5164
   47MOL   C26634398   3.954   0.608   6.633 -0.0153 -0.4253 -0.4798
   47MOL   C26734399   3.885   0.744   6.651  0.7872 -0.0038  0.6383
   47MOL   C26834400   3.847   0.817   6.515  0.0099  0.4083 -0.0832
   47MOL   C26934401   3.773   0.947   6.538 -0.5397 -0.2917  0.4562
   47MOL   C27034402   3.728   1.005   6.399  0.0899 -0.2598 -0.4428
   47MOL   C27134403   3.649   1.143   6.411 -0.2707  0.7920 -0.3863
   47MOL   C27234404   3.663   1.224   6.281 -0.4280 -0.1395 -0.2953
   47MOL   C27334405   3.580   1.353   6.282 -0.2374  0.2564 -0.2005
   47MOL   N27434406   3.628   1.427   6.403 -0.8197 -0.6674 -0.0165
   47MOL   H27534407   4.115   0.193   6.755  1.0758 -1.2445  1.5082
   47MOL   H27634408   4.082   0.279   6.892 -0.2548  0.8236 -0.3539
   47MOL   H27734409   4.132   0.386   6.654 -0.1907 -1.9349 -0.8720
   47MOL   H27834410   3.967   0.360   6.612 -0.6332  2.2841  0.4144
   47MOL   H27934411   4.036   0.549   6.829 -1.4660  1.5321  0.2894
   47MOL   H28034412   3.875   0.486   6.791 -0.9425  2.0496  0.3969
   47MOL   H28134413   4.051   0.628   6.589  0.2884 -1.2619 -0.2142
   47MOL   H28234414   3.893   0.556   6.558 -2.6119 -0.3029  1.4898
   47MOL   H28334415   3.942   0.811   6.716 -0.2443  0.1170  1.4353
   47MOL   H28434416   3.791   0.720   6.701  1.8440 -2.1578  1.6475
   47MOL   H28534417   3.781   0.749   6.462  1.4581 -1.4849  0.5034
   47MOL   H28634418   3.939   0.829   6.458  0.2137 -3.2495 -0.6663
   47MOL   H28734419   3.838   1.014   6.595  0.8185 -1.4281  0.2793
   47MOL   H28834420   3.690   0.939   6.609 -0.2123 -1.1926  0.7386
   47MOL   H28934421   3.671   0.935   6.338  0.3500 -1.3287  0.5072
   47MOL   H29034422   3.823   1.036   6.355 -0.2226 -0.7490 -1.4719
   47MOL   H29134423   3.692   1.194   6.497 -0.5308  1.7236 -0.8062
   47MOL   H29234424   3.543   1.127   6.432  0.0123 -0.8799 -0.1742
   47MOL   H29334425   3.623   1.161   6.202 -2.5375  0.3118  0.3672
   47MOL   H29434426   3.766   1.247   6.254 -0.3048 -1.2017 -0.7379
   47MOL   H29534427   3.474   1.328   6.285 -0.6346  1.9493  1.7829
   47MOL   H29634428   3.602   1.414   6.194  1.1938  0.2856  0.1559
   47MOL   H29734429   3.717   1.403   6.443 -0.9146  0.4542  0.9077
   47MOL   C29834430   3.579   1.549   6.433 -0.7648  0.0588  0.8956
   47MOL   O29934431   3.484   1.593   6.367 -0.3971 -0.2844 -0.0781
   47MOL   C30034432   3.657   1.627   6.546  0.0113 -0.2381 -0.2043
   47MOL   C30134433   3.571   1.696   6.648 -0.4751 -0.7259 -0.5941
   47MOL   C30234434   3.659   1.775   6.737  0.2126  0.4428  0.0602
   47MOL   C30334435   3.595   1.875   6.828 -0.4065 -0.2216  0.3478
   47MOL   C30434436   3.495   1.819   6.932 -0.3510 -0.5178  0.1788
   47MOL   C30534437   3.436   1.910   7.033 -0.0673 -0.5408 -0.4519
   47MOL   C30634438   3.291   1.972   7.003  0.6308 -0.1469 -0.4297
   47MOL   C30734439   3.235   2.074   7.102  0.4541  0.3471 -0.1923
   47MOL   C30834440   3.093   2.109   7.073 -1.1949  0.0630 -0.2288
   47MOL   C30934441   3.037   2.232   7.143 -0.5869  0.0599 -0.0370
   47MOL   C31034442   2.921   2.307   7.083 -0.2883 -0.7072  1.3060
   47MOL   N31134443   2.801   2.227   7.057  0.8477 -0.1942 -0.3780
   47MOL   H31234444   3.707   1.706   6.491  0.3039 -1.7307 -2.1475
   47MOL   H31334445   3.740   1.570   6.589 -1.4315 -1.1742  1.4025
   47MOL   H31434446   3.503   1.772   6.609  1.6807  1.3184 -0.4477
   47MOL   H31534447   3.501   1.630   6.701 -0.7088  0.2430  0.3159
   47MOL   H31634448   3.738   1.821   6.679 -0.5244 -0.8305 -1.9967
   47MOL   H31734449   3.713   1.703   6.800  2.8687  2.4145  0.1331
   47MOL   H31834450   3.671   1.939   6.873  0.3695 -0.5847 -0.4299
   47MOL   H31934451   3.539   1.942   6.762  0.9030  1.7365  1.1844
   47MOL   H32034452   3.562   1.752   6.987 -0.2196 -1.0625 -0.6327
   47MOL   H32134453   3.421   1.762   6.876  0.4753 -1.8609  0.4282
   47MOL   H32234454   3.509   1.989   7.054  1.1301 -1.9374  0.7427
   47MOL   H32334455   3.424   1.856   7.127 -1.7813  1.0847  0.3156
   47MOL   H32434456   3.220   1.890   6.990  0.2425  0.1067  0.0856
   47MOL   H32534457   3.301   2.028   6.910 -1.2321 -0.4528 -0.8377
   47MOL   H32634458   3.287   2.169   7.111 -2.7811  2.0107  2.1205
   47MOL   H32734459   3.228   2.019   7.196  0.1788  0.7524  0.0243
   47MOL   H32834460   3.028   2.022   7.083  1.1525 -1.7891 -0.8026
   47MOL   H32934461   3.090   2.140   6.968  0.6988 -0.4592 -0.4504
   47MOL   H33034462   3.118   2.305   7.141 -0.6224  0.1314  1.0281
   47MOL   H33134463   3.019   2.218   7.250 -1.9437  0.4225 -0.2091
   47MOL   H33234464   2.954   2.372   7.001 -0.2443 -1.2768  0.8692
   47MOL   H33334465   2.897   2.371   7.168  1.4747 -0.6973  1.8138
   47MOL   H33434466   2.731   2.210   7.128 -0.6347  5.2492 -0.3079
   47MOL   C33534467   2.780   2.167   6.940 -0.1696 -0.3692 -0.2217
   47MOL   O33634468   2.868   2.164   6.850  0.1241 -0.3344  0.0838
   47MOL   C33734469   2.638   2.119   6.909 -0.8110  0.4518  0.1571
   47MOL   C33834470   2.636   1.980   6.849 -0.2027  0.4843 -0.2115
   47MOL   C33934471   2.675   1.982   6.699  0.6593  0.2233 -0.5202
   47MOL   C34034472   2.684   1.848   6.633 -0.4375 -0.0389  0.3060
   47MOL   C34134473   2.724   1.853   6.485 -0.2355 -0.3919  0.0877
   47MOL   C34234474   2.718   1.708   6.418 -0.2034  0.0232 -0.0788
   47MOL   C34334475   2.718   1.712   6.260  0.4138 -0.9887 -0.5511
   47MOL   C34434476   2.674   1.587   6.190  0.2349  0.5804 -0.2491
   47MOL   C34534477   2.673   1.609   6.039  0.5383  0.5404 -0.4027
   47MOL   C34634478   2.628   1.480   5.964  1.0101 -0.2985  0.4590
   47MOL   C34734479   2.657   1.485   5.811 -0.3554  0.5790 -0.6847
   47MOL   N34834480   2.621   1.357   5.743 -0.5268 -0.4096 -0.2562
   47MOL   H34934481   2.586   2.186   6.840 -1.7931  0.9313  1.3397
   47MOL   H35034482   2.579   2.119   7.001 -1.4954 -0.0003 -0.2771
   47MOL   H35134483   2.718   1.925   6.894 -1.0295  0.7507  1.6338
   47MOL   H35234484   2.535   1.942   6.868 -0.3944  0.1686 -1.7805
   47MOL   H35334485   2.761   2.046   6.680  2.8771 -2.1773  1.1843
   47MOL   H35434486   2.601   2.042   6.646  1.1367  1.1235 -0.1899
   47MOL   H35534487   2.759   1.791   6.688  1.1768  0.3278 -1.4756
   47MOL   H35634488   2.585   1.804   6.642  0.5997 -2.4097  0.4713
   47MOL   H35734489   2.822   1.899   6.490 -0.2906 -0.3058  0.4139
   47MOL   H35834490   2.656   1.925   6.440  0.3757 -0.9966 -1.8690
   47MOL   H35934491   2.623   1.660   6.438  0.0391 -1.2322 -1.8352
   47MOL   H36034492   2.801   1.646   6.452  0.1415  0.1624 -0.6507
   47MOL   H36134493   2.819   1.743   6.234  0.4200 -0.7455 -0.2429
   47MOL   H36234494   2.659   1.798   6.228  0.6796 -0.1303  1.1699
   47MOL   H36334495   2.570   1.567   6.215  1.0793 -1.6975  1.6879
   47MOL   H36434496   2.737   1.504   6.224  0.6507 -0.1064 -2.5884
   47MOL   H36534497   2.776   1.635   6.015  1.6078 -0.6000  2.7433
   47MOL   H36634498   2.616   1.697   6.010  2.8397  1.3954 -2.5120
   47MOL   H36734499   2.521   1.465   5.981  1.1576  0.6793  2.4671
   47MOL   H36834500   2.677   1.395   6.012 -0.2266 -1.1778  0.1828
   47MOL   H36934501   2.765   1.488   5.798 -0.1960 -0.7929  0.2821
   47MOL   H37034502   2.614   1.575   5.766  1.7918  1.0908 -1.7521
   47MOL   H37134503   2.679   1.276   5.760  2.1688  1.4783 -0.1043
   47MOL   C37234504   2.525   1.335   5.659  0.3943  0.4404 -0.2838
   47MOL   O37334505   2.452   1.425   5.618  0.1993  0.4159  0.0360
   47MOL   C37434506   2.515   1.183   5.613 -0.6446  0.2528 -0.3379
   47MOL   C37534507   2.396   1.101   5.689 -0.3638 -0.0188 -0.2508
   47MOL   C37634508   2.267   1.096   5.611  0.2886 -0.3043 -0.0156
   47MOL   C37734509   2.159   1.029   5.692  0.7922 -0.0651 -0.1373
   47MOL   C37834510   2.016   1.018   5.635 -0.1605  0.0624 -0.2223
   47MOL   C37934511   1.910   0.960   5.733 -0.2153  0.1633 -0.5237
   47MOL   C38034512   1.874   1.034   5.861 -0.7451 -0.4744 -0.9919
   47MOL   C38134513   1.786   1.157   5.834  0.3535  0.6795 -1.1915
   47MOL   C38234514   1.764   1.250   5.952 -0.9589 -0.6778  0.5670
   47MOL   C38334515   1.673   1.373   5.914  0.7214 -0.9858  0.2035
   47MOL   C38434516   1.670   1.498   6.006 -0.0144 -0.0683 -0.7797
   47MOL   N38534517   1.579   1.473   6.111 -0.0937  0.2223  0.3717
   47MOL   H38634518   2.610   1.135   5.638 -1.1174  0.3478  1.7865
   47MOL   H38734519   2.507   1.171   5.505  0.9987  0.3382 -0.4970
   47MOL   H38834520   2.443   1.005   5.707  2.1200  1.7550  3.3359
   47MOL   H38934521   2.376   1.148   5.785  1.3621  1.4830 -0.6044
   47MOL   H39034522   2.283   1.043   5.517 -2.3896  2.0940 -1.9218
   47MOL   H39134523   2.224   1.194   5.590 -2.1577 -1.3489 -0.0366
   47MOL   H39234524   2.200   0.931   5.720  1.4193  0.4438  0.7718
   47MOL   H39334525   2.154   1.078   5.789 -0.1479 -0.3892 -0.0165
   47MOL   H39434526   2.016   0.967   5.538  1.1450 -1.5120  0.5968
   47MOL   H39534527   1.992   1.119   5.600 -0.3233 -0.0399 -0.4109
   47MOL   H39634528   1.946   0.861   5.762  0.4055  1.0159  1.7109
   47MOL   H39734529   1.819   0.949   5.673  0.1459  1.4552 -1.3185
   47MOL   H39834530   1.966   1.069   5.908 -1.0910 -0.1390 -0.5595
   47MOL   H39934531   1.813   0.976   5.931 -4.0918  2.4055 -1.3406
   47MOL   H40034532   1.696   1.124   5.782 -1.4577  3.9137 -0.2417
   47MOL   H40134533   1.855   1.211   5.768  1.7599  0.5030  0.1191
   47MOL   H40234534   1.855   1.276   6.006  0.2072 -3.0655 -0.1571
   47MOL   H40334535   1.722   1.197   6.037  2.2082  0.3526  2.8762
   47MOL   H40434536   1.569   1.343   5.898  0.3865  0.3643 -0.1927
   47MOL   H40534537   1.707   1.397   5.813  1.7962  0.9610  1.0144
   47MOL   H40634538   1.648   1.593   5.956  0.4379  0.6026  0.2942
   47MOL   H40734539   1.771   1.519   6.041  0.5626 -2.5955 -0.8577
   47MOL   H40834540   1.616   1.431   6.195 -3.0263  3.4231  3.4406
   47MOL   C40934541   1.450   1.488   6.110  0.5750 -0.3577  0.5810
   47MOL   O41034542   1.384   1.532   6.015 -0.8662  0.0734  1.0669
   47MOL   C41134543   1.364   1.450   6.226 -0.7419 -0.1966 -0.3950
   47MOL   C41234544   1.314   1.300   6.200 -0.2057  0.6671 -0.4361
   47MOL   C41334545   1.424   1.190   6.195 -0.1226  0.4115  0.2345
   47MOL   C41434546   1.368   1.055   6.154  0.2858 -0.2314 -0.1184
   47MOL   C41534547   1.485   0.947   6.130  0.1049  0.6166  0.4712
   47MOL   C41634548   1.416   0.819   6.071  0.9729  0.4577 -1.0011
   47MOL   C41734549   1.494   0.687   6.087 -0.4254 -0.3126 -0.5039
   47MOL   C41834550   1.421   0.567   6.028  0.1275 -0.4239 -0.0083
   47MOL   C41934551   1.480   0.428   6.047 -0.2720 -0.1199  0.2109
   47MOL   C42034552   1.419   0.327   5.951  0.4549 -0.4195  0.5065
   47MOL   C42134553   1.492   0.198   5.972  0.3991  0.5007  0.2549
   47MOL   N42234554   1.473   0.140   6.105 -0.1710  0.8406 -0.6293
   47MOL   H42334555   1.287   1.525   6.236 -1.5930 -1.2766  1.3766
   47MOL   H42434556   1.414   1.444   6.323  1.0158 -1.8805 -1.3652
   47MOL   H42534557   1.235   1.291   6.274 -1.3092 -0.2093 -1.7095
   47MOL   H42634558   1.254   1.297   6.109 -1.1605  0.6609  0.1953
   47MOL   H42734559   1.465   1.185   6.296  1.6290  1.0645 -0.4258
   47MOL   H42834560   1.506   1.206   6.125 -1.5367  1.7177 -1.1654
   47MOL   H42934561   1.296   1.032   6.233 -0.0918  0.9157 -0.1089
   47MOL   H43034562   1.303   1.076   6.069 -0.1130  0.0438  0.2498
   47MOL   H43134563   1.524   0.929   6.230 -1.2680 -2.1489  0.5647
   47MOL   H43234564   1.559   0.983   6.058 -0.0076 -1.3989 -0.7055
   47MOL   H43334565   1.392   0.830   5.965  0.6626 -2.0490 -1.2311
   47MOL   H43434566   1.321   0.800   6.122  1.8140  2.9612  1.6112
   47MOL   H43534567   1.514   0.664   6.192  0.2422  1.3421 -0.2437
   47MOL   H43634568   1.594   0.695   6.045 -1.0112 -1.9331 -2.2667
   47MOL   H43734569   1.425   0.593   5.922 -0.2236 -0.0372  0.0720
   47MOL   H43834570   1.316   0.574   6.055 -0.2268 -1.0590 -1.1893
   47MOL   H43934571   1.463   0.402   6.151  1.3328 -0.1669  0.4721
   47MOL   H44034572   1.588   0.435   6.034 -0.3723 -2.0293 -1.8314
   47MOL   H44134573   1.419   0.351   5.845 -0.2628 -3.7913 -0.3099
   47MOL   H44234574   1.312   0.319   5.973  0.0878 -1.0081 -1.4535
   47MOL   H44334575   1.596   0.214   5.946  0.5468 -0.0474  0.5177
   47MOL   H44434576   1.462   0.123   5.900 -1.3335  0.7651  0.6699
   47MOL   H44534577   1.552   0.146   6.168 -0.1557  1.5038 -0.7019
   47MOL   C44634578   1.367   0.068   6.145  0.9411  0.1930  0.2055
   47MOL   O44734579   1.268   0.059   6.075 -0.1275  0.8607 -0.0593
   47MOL   C44834580   1.380   7.688   6.280  0.0445  0.1431  0.6611
   47MOL   C44934581   1.287   7.558   6.290 -0.4009 -0.5126 -0.8185
   47MOL   C45034582   1.322   7.448   6.196 -0.1890  0.7831  0.5204
   47MOL   C45134583   1.236   7.318   6.224 -0.0706 -1.1340  0.1406
   47MOL   C45234584   1.261   7.208   6.114  0.3649 -0.1107 -0.6505
   47MOL   C45334585   1.190   7.074   6.136  0.4032 -0.1189 -0.1871
   47MOL   C45434586   1.189   6.990   6.008  0.3159 -0.0787 -0.3108
   47MOL   C45534587   1.070   6.888   6.004 -0.1053 -0.2512 -0.2101
   47MOL   C45634588   1.081   6.793   5.887 -0.2180 -0.0187  0.3813
   47MOL   C45734589   1.008   6.834   5.755 -0.7864 -0.0846  0.0043
   47MOL   C45834590   1.040   6.738   5.635 -0.1622  0.4553 -0.2657
   47MOL   N45934591   0.967   6.794   5.518  0.0941 -0.1286 -0.7401
   47MOL   H46034592   1.356   0.057   6.366  0.4570  0.8443  0.2700
   47MOL   H46134593   1.483   7.659   6.301  0.6494  1.7860  0.0781
   47MOL   H46234594   1.293   7.530   6.395 -0.0480 -3.5384 -1.6089
   47MOL   H46334595   1.182   7.584   6.272 -0.3958  0.0955 -0.0317
   47MOL   H46434596   1.426   7.421   6.210 -0.1309  0.0906 -1.0622
   47MOL   H46534597   1.309   7.489   6.096  1.8055  1.8127  0.6682
   47MOL   H46634598   1.261   7.287   6.325 -1.4207  1.0019  1.1723
   47MOL   H46734599   1.133   7.352   6.219 -0.1297 -1.1330  1.2454
   47MOL   H46834600   1.366   7.192   6.091  0.5618  1.8219 -1.1346
   47MOL   H46934601   1.220   7.256   6.026  1.1489  0.4067 -0.7349
   47MOL   H47034602   1.089   7.070   6.175  0.9160 -2.0706  1.0116
   47MOL   H47134603   1.248   7.014   6.206 -0.0243 -0.3642 -0.0474
   47MOL   H47234604   1.289   6.949   5.996  1.5376  2.5653  0.4406
   47MOL   H47334605   1.163   7.046   5.918  2.3878 -0.0148 -0.8832
   47MOL   H47434606   0.975   6.941   6.001 -0.7457 -1.4626 -2.4045
   47MOL   H47534607   1.065   6.822   6.090  0.9061  0.1730  0.1887
   47MOL   H47634608   1.018   6.711   5.923  0.2973 -0.1220  1.0614
   47MOL   H47734609   1.182   6.755   5.873 -0.8996 -1.3051 -1.1766
   47MOL   H47834610   1.046   6.935   5.740 -1.7661  0.3143  0.1756
   47MOL   H47934611   0.904   6.830   5.785 -0.7348  2.3812  0.6124
   47MOL   H48034612   1.000   6.643   5.670 -1.5944  0.8993 -0.6990
   47MOL   H48134613   1.146   6.719   5.616 -0.5402 -0.9626 -1.0204
   47MOL   H48234614   0.973   6.894   5.528 -2.6094  0.0038 -0.1583
   47MOL   C48334615   0.866   6.740   5.444 -0.2518  0.3745  0.2080
   47MOL   O48434616   0.832   6.621   5.451  0.3501 -0.7489 -0.0753
   47MOL   C48534617   0.808   6.828   5.338 -0.5140 -0.7717  0.6849
   47MOL   C48634618   0.653   6.825   5.327  0.4680  0.0715 -0.2793
   47MOL   C48734619   0.597   6.926   5.221  0.2374 -0.1654  0.2662
   47MOL   C48834620   0.446   6.904   5.191  0.3769 -0.0219  1.0164
   47MOL   C48934621   0.390   7.005   5.082 -0.3466 -0.4504  0.2734
   47MOL   C49034622   0.240   6.996   5.077  0.2457  0.5038 -0.0009
   47MOL   C49134623   0.180   7.102   4.977  0.0349  0.5027  0.4132
   47MOL   C49234624   0.028   7.121   5.018 -0.1663 -0.0844  0.0872
   47MOL   C49334625   7.652   7.229   4.936 -0.3493  0.0512 -0.3848
   47MOL   C49434626   0.037   7.361   4.917 -0.2188  0.4235 -0.3528
   47MOL   C49534627   7.641   7.474   4.865  0.0842 -0.0268 -0.1525
   47MOL   N49634628   0.004   7.603   4.851  0.4000  0.0760 -0.1279
   47MOL   H49734629   0.851   6.801   5.242  1.0819  1.5407  0.6919
   47MOL   H49834630   0.850   6.929   5.341 -1.7625 -0.1552 -1.1925
   47MOL   H49934631   0.622   6.723   5.308 -2.6919  0.8431  0.3994
   47MOL   H50034632   0.596   6.839   5.419 -3.4274 -1.5170 -2.3607
   47MOL   H50134633   0.656   6.913   5.130  0.8998 -1.8763  0.9288
   47MOL   H50234634   0.616   7.026   5.260  0.2561  0.6592 -1.7581
   47MOL   H50334635   0.423   6.805   5.152 -0.7159  0.5041  0.2835
   47MOL   H50434636   0.394   6.927   5.284  0.4970 -0.1307  1.1115
   47MOL   H50534637   0.436   6.974   4.988  0.7484 -1.3645  1.0825
   47MOL   H50634638   0.415   7.104   5.122 -0.6798 -0.4004  0.3584
   47MOL   H50734639   0.204   7.022   5.177  0.7556  2.0662 -0.2125
   47MOL   H50834640   0.206   6.894   5.059 -3.4155  1.5779  0.3747
   47MOL   H50934641   0.188   7.059   4.877  0.8745  2.1682 -0.2561
   47MOL   H51034642   0.234   7.197   4.971  1.2080 -0.2427 -1.1646
   47MOL   H51134643   0.039   7.164   5.118  2.5767 -3.3068  1.2673
   47MOL   H51234644   7.661   7.031   5.021  0.6997 -0.6347  1.8667
   47MOL   H51334645   7.562   7.264   4.986  0.5395  1.8789 -0.0081
   47MOL   H51434646   7.630   7.197   4.835 -0.7576  2.1805 -0.9909
   47MOL   H51534647   0.119   7.354   4.846  0.2589 -3.5774  0.5015
   47MOL   H51634648   0.076   7.392   5.014  1.0546 -1.8476 -0.1081
   47MOL   H51734649   7.551   7.487   4.925  0.6285 -0.3166  0.7388
   47MOL   H51834650   7.599   7.450   4.767  2.3564 -1.0811 -0.8921
   47MOL   H51934651   7.662   7.680   4.907 -0.1900 -0.9139  0.8656
   47MOL   C52034652   0.111   7.629   4.778 -0.0511  0.0194  0.4232
   47MOL   O52134653   0.167   7.550   4.708 -0.1348  0.7613 -0.3053
   47MOL   C52234654   0.176   0.073   4.800 -0.8052 -0.0765  0.4065
   47MOL   C52334655   0.302   0.095   4.710  0.1673 -0.1081 -0.2835
   47MOL   C52434656   0.435   0.024   4.749  0.5020 -0.7634  0.7099
   47MOL   C52534657   0.571   0.068   4.685 -0.2466  0.2293  0.3312
   47MOL   C52634658   0.682   7.675   4.727 -0.4324  0.0204 -0.0215
   47MOL   C52734659   0.821   0.006   4.664 -0.5225 -0.5242 -0.4392
   47MOL   C52834660   0.921   7.604   4.723 -0.5325  0.1915  0.0794
   47MOL   C52934661   1.052   7.593   4.640 -0.1152 -0.2677  0.0540
   47MOL   C53034662   1.157   7.497   4.699 -0.2230 -0.7297  0.2704
   47MOL   C53134663   1.283   7.494   4.608  0.3153  0.0196  0.6384
   47MOL   C53234664   1.384   7.392   4.646  0.0616  0.2113  0.5549
   47MOL   N53334665   1.506   7.391   4.562  0.1677 -0.2391  0.5373
   47MOL   H53434666   0.202   0.083   4.905 -1.6859  1.3578  0.5059
   47MOL   H53534667   0.104   0.152   4.778  1.5366  2.5185  1.7032
   47MOL   H53634668   0.284   0.077   4.604  0.8422 -1.4236 -0.1954
   47MOL   H53734669   0.315   0.203   4.709 -1.3470  0.1231  2.6215
   47MOL   H53834670   0.414   7.613   4.726  0.9763 -0.5810 -0.5852
   47MOL   H53934671   0.436   0.042   4.856 -1.2804 -1.0853  0.7987
   47MOL   H54034672   0.571   0.068   4.576  1.2378 -2.5677  0.2944
   47MOL   H54134673   0.575   0.171   4.720 -0.4194 -0.0202  1.0915
   47MOL   H54234674   0.648   7.574   4.702 -0.8007  0.2549 -0.4629
   47MOL   H54334675   0.697   7.688   4.834 -0.8192 -1.6729  0.2605
   47MOL   H54434676   0.858   0.107   4.681 -1.9107 -0.4252  2.2824
   47MOL   H54534677   0.820   7.685   4.556 -1.4067 -0.9402 -0.3776
   47MOL   H54634678   0.880   7.504   4.726 -1.5663  0.5432 -1.8398
   47MOL   H54734679   0.943   7.620   4.829 -1.4355  2.3649 -0.0384
   47MOL   H54834680   1.097   7.692   4.630 -1.2569  0.5790  2.8634
   47MOL   H54934681   1.037   7.557   4.538  0.9415  0.4359 -0.3603
   47MOL   H55034682   1.111   7.399   4.713 -1.1769 -0.5551 -1.5105
   47MOL   H55134683   1.183   7.531   4.799 -0.9426 -1.3291  0.6651
   47MOL   H55234684   1.316   7.598   4.608 -1.4897  0.6349 -1.8231
   47MOL   H55334685   1.261   7.481   4.502  1.7059 -0.1361  0.3580
   47MOL   H55434686   1.335   7.294   4.640  1.5433 -0.4424 -1.4221
   47MOL   H55534687   1.411   7.416   4.749 -1.9844  0.0607  1.1549
   47MOL   H55634688   1.562   7.472   4.585 -3.0912  1.7433  1.7980
   47MOL   C55734689   1.547   7.298   4.474  0.2769  0.1563  0.5941
   47MOL   O55834690   1.479   7.201   4.442  0.1276 -0.2083  0.3539
   47MOL   C55934691   1.685   7.318   4.414 -0.0529 -0.3868  0.7867
   47MOL   C56034692   1.746   7.185   4.357  0.1050 -0.4410  0.2354
   47MOL   C56134693   1.806   7.085   4.457 -0.2954  0.2791  0.4934
   47MOL   C56234694   1.882   6.960   4.398 -0.4206 -0.1710  0.4024
   47MOL   C56334695   1.805   6.850   4.316  0.5522 -0.0667  0.0090
   47MOL   C56434696   1.906   6.752   4.265  0.0346 -0.5016  0.0822
   47MOL   C56534697   1.853   6.659   4.156 -0.3122  0.3177 -0.0185
   47MOL   C56634698   1.960   6.561   4.117  0.0240  0.4735  0.3564
   47MOL   C56734699   1.923   6.461   4.007  0.2840 -0.1669  0.1812
   47MOL   C56834700   2.030   6.347   3.995 -0.2620  0.2778  0.1215
   47MOL   C56934701   2.006   6.251   3.882  0.9283 -0.2568 -0.1968
   47MOL   N57034702   2.089   6.131   3.898  0.3446  0.3604 -0.4253
   47MOL   H57134703   1.757   7.358   4.484  0.7883  1.0126 -0.8487
   47MOL   H57234704   1.678   7.386   4.330  1.5588  0.2021  1.1272
   47MOL   H57334705   1.671   7.131   4.301 -0.0584  2.1764 -2.1849
   47MOL   H57434706   1.820   7.219   4.284  0.2951 -0.8580  0.2307
   47MOL   H57534707   1.722   7.042   4.512 -1.0801  0.6541 -0.4084
   47MOL   H57634708   1.857   7.142   4.534 -1.2614 -0.2339  1.5450
   47MOL   H57734709   1.963   6.995   4.335 -0.0338 -0.7639  0.5661
   47MOL   H57834710   1.928   6.910   4.483  0.5490  0.2774  0.1494
   47MOL   H57934711   1.758   6.901   4.231 -3.2974 -0.0119  2.0250
   47MOL   H58034712   1.730   6.801   4.378  1.6384 -0.6350  0.8649
   47MOL   H58134713   1.947   6.694   4.347  1.9028 -0.0716 -0.5311
   47MOL   H58234714   1.991   6.806   4.224 -0.0491  0.8702  1.6501
   47MOL   H58334715   1.824   6.713   4.065  0.5937 -1.2307 -1.2499
   47MOL   H58434716   1.754   6.622   4.181  0.6733 -1.0540  2.0173
   47MOL   H58534717   1.991   6.514   4.211  1.5842  0.0578 -0.3645
   47MOL   H58634718   2.042   6.616   4.072 -0.5594 -1.3779 -3.1560
   47MOL   H58734719   1.912   6.507   3.909 -0.3721  1.0608  0.8244
   47MOL   H58834720   1.823   6.420   4.024  0.1366  0.5144  1.0281
   47MOL   H58934721   2.034   6.282   4.082 -0.9997  0.8314  0.5837
   47MOL   H59034722   2.129   6.391   3.985 -0.9293  1.7241 -0.4297
   47MOL   H59134723   2.012   6.291   3.781  2.3041  0.6227  0.2192
   47MOL   H59234724   1.902   6.218   3.886  0.8749 -0.2384 -1.4297
   47MOL   H59334725   2.142   6.118   3.983 -0.7944 -4.0215 -0.2648
   47MOL   C59434726   2.084   6.017   3.825 -0.5848  0.1648  0.5861
   47MOL   O59534727   2.026   6.021   3.713  0.0361  0.3709  0.0853
   47MOL   C59634728   2.159   5.897   3.870  0.1990  0.0300  0.2406
   47MOL   C59734729   2.254   5.828   3.765 -0.3408 -0.1782 -0.5663
   47MOL   C59834730   2.390   5.900   3.746  0.0762  0.0197 -0.4584
   47MOL   C59934731   2.494   5.798   3.702 -0.3653  0.1737  0.2236
   47MOL   C60034732   2.505   5.767   3.553  0.2340  0.7703 -0.3377
   47MOL   C60134733   2.608   5.661   3.524 -0.0361 -0.4121  0.3093
   47MOL   C60234734   2.608   5.603   3.389 -1.0815  0.3450  0.2514
   47MOL   C60334735   2.732   5.514   3.365 -0.1946  0.1834  0.6307
   47MOL   C60434736   2.759   5.485   3.216 -0.1089  0.0874  0.6262
   47MOL   C60534737   2.896   5.421   3.198 -0.1122  0.0646  0.0268
   47MOL   C60634738   2.935   5.386   3.050  0.1805  0.2627  0.2820
   47MOL   N60734739   2.943   5.504   2.966 -0.0213 -0.0644 -0.8004
   47MOL   H60834740   2.097   5.824   3.922  0.1574 -0.0158  0.1265
   47MOL   H60934741   2.209   5.932   3.960 -1.7974  1.9444  0.6533
   47MOL   H61034742   2.275   5.724   3.789  0.4847  0.0476 -0.3225
   47MOL   H61134743   2.187   5.816   3.679 -2.8488  0.5954  1.2261
   47MOL   H61234744   2.417   5.933   3.846  0.1408  0.4154 -0.6053
   47MOL   H61334745   2.382   5.982   3.675 -1.7332 -2.5639 -3.4307
   47MOL   H61434746   2.591   5.836   3.733  0.5135 -0.3016 -1.8144
   47MOL   H61534747   2.488   5.708   3.762  2.2736 -1.2909 -1.5668
   47MOL   H61634748   2.522   5.861   3.500 -1.9525  1.7310  0.6153
   47MOL   H61734749   2.408   5.733   3.517 -0.2161  0.2236  1.3275
   47MOL   H61834750   2.606   5.587   3.604  0.2052 -0.9884 -0.2160
   47MOL   H61934751   2.703   5.713   3.534  0.6339 -1.3057 -1.2526
   47MOL   H62034752   2.611   5.687   3.320 -0.3119 -0.6178 -0.9123
   47MOL   H62134753   2.514   5.552   3.368 -1.5102  0.7608  1.1273
   47MOL   H62234754   2.713   5.424   3.423  1.8167 -0.8750 -0.3235
   47MOL   H62334755   2.815   5.566   3.412 -1.0183  2.9428 -0.8112
   47MOL   H62434756   2.745   5.577   3.159  0.6106 -0.5986 -0.6643
   47MOL   H62534757   2.683   5.417   3.177  3.0863 -3.1242 -0.2018
   47MOL   H62634758   2.883   5.330   3.256  0.3836  0.1307  0.2396
   47MOL   H62734759   2.977   5.475   3.246  2.1933 -3.1988 -0.0448
   47MOL   H62834760   2.850   5.332   3.009 -0.0862  1.3123 -0.5607
   47MOL   H62934761   3.025   5.325   3.048  0.1711  0.2810 -0.7255
   47MOL   H63034762   2.864   5.525   2.908  1.7059  2.1518 -2.4292
   47MOL   C63134763   3.051   5.583   2.972 -0.1377 -0.2510 -0.3485
   47MOL   O63234764   3.156   5.545   3.029  0.3075 -0.2214  0.0445
   47MOL   C63334765   3.051   5.709   2.885  1.0512 -0.0999  0.2122
   47MOL   C63434766   3.160   5.820   2.935 -0.4029  0.3076 -0.2711
   47MOL   C63534767   3.122   5.900   3.058 -0.1989  0.0577  0.5149
   47MOL   C63634768   3.223   6.014   3.082 -0.1510  0.5278  0.0398
   47MOL   C63734769   3.215   6.063   3.232 -0.0553  0.3971 -0.0674
   47MOL   C63834770   3.322   6.164   3.274 -0.4021 -0.8954 -0.2194
   47MOL   C63934771   3.339   6.205   3.422 -0.3126 -0.3106 -0.3808
   47MOL   C64034772   3.413   6.095   3.505  0.1352 -0.8840 -0.2623
   47MOL   C64134773   3.448   6.128   3.655  0.5816  0.5261 -0.1789
   47MOL   C64234774   3.544   6.242   3.673 -0.3389  0.0161 -0.3385
   47MOL   C64334775   3.683   6.209   3.628 -0.8357 -0.6356  0.1444
   47MOL   N64434776   3.778   6.304   3.686  0.3297  0.0422 -0.5615
   47MOL   H64534777   2.951   5.751   2.890  0.1996 -1.6198 -2.9249
   47MOL   H64634778   3.071   5.673   2.784 -3.5301 -0.8028 -0.5359
   47MOL   H64734779   3.263   5.784   2.945 -0.0318  1.2676 -0.5608
   47MOL   H64834780   3.180   5.883   2.848  0.0511  0.4856 -0.0387
   47MOL   H64934781   3.109   5.842   3.150 -2.2945  3.2890  2.3922
   47MOL   H65034782   3.028   5.952   3.036 -0.4735 -0.7004 -0.0967
   47MOL   H65134783   3.326   5.990   3.054 -0.9568 -3.1333 -0.0399
   47MOL   H65234784   3.200   6.104   3.025 -1.3754  1.9006  2.6470
   47MOL   H65334785   3.226   5.976   3.296 -0.1960  0.0542 -0.5103
   47MOL   H65434786   3.116   6.108   3.242 -0.9250 -1.3581 -0.6689
   47MOL   H65534787   3.288   6.260   3.238 -0.6993 -0.4392  1.2309
   47MOL   H65634788   3.419   6.149   3.226  0.5796  2.3998  0.6063
   47MOL   H65734789   3.240   6.229   3.463 -1.2213 -1.3464 -1.9116
   47MOL   H65834790   3.387   6.302   3.428 -1.6434  0.3049  0.6404
   47MOL   H65934791   3.495   6.061   3.441 -0.1307 -0.6598 -0.7198
   47MOL   H66034792   3.353   6.005   3.520 -3.4906  1.6592  1.0074
   47MOL   H66134793   3.491   6.046   3.713 -0.6822  0.5311  0.7947
   47MOL   H66234794   3.353   6.140   3.708  0.9387  1.9322  0.1610
   47MOL   H66334795   3.550   6.277   3.776 -0.8101  0.8283 -0.5848
   47MOL   H66434796   3.513   6.326   3.610 -1.7826  0.6751  1.2179
   47MOL   H66534797   3.690   6.186   3.522 -0.8065  2.7381 -0.6487
   47MOL   H66634798   3.706   6.119   3.685 -1.1730 -2.2016 -2.1254
   47MOL   H66734799   3.849   6.264   3.745 -0.7445 -4.9929 -2.4049
   47MOL   C66834800   3.801   6.429   3.654 -0.4620 -0.4169  0.7804
   47MOL   O66934801   3.743   6.488   3.557  0.0050  0.2917  0.5407
   47MOL   C67034802   3.904   6.508   3.735  0.8219 -0.5518  0.6817
   47MOL   C67134803   3.941   6.643   3.680  0.3809 -0.4162 -0.5198
   47MOL   C67234804   4.037   6.727   3.751  0.2851 -0.2810 -0.0280
   47MOL   C67334805   3.990   6.797   3.878  0.3983 -0.4113  0.2642
   47MOL   C67434806   4.095   6.899   3.922  0.0088  0.3323 -0.5133
   47MOL   C67534807   4.031   6.990   4.039 -0.0563  0.1236  1.1427
   47MOL   C67634808   4.016   6.928   4.181 -0.6250  0.2227  0.6161
   47MOL   C67734809   3.968   7.027   4.290  0.1368 -0.2434  0.3950
   47MOL   C67834810   4.082   7.083   4.371  0.3021 -0.1382 -0.2025
   47MOL   C67934811   4.039   7.143   4.504  0.1565 -0.3238  0.5073
   47MOL   C68034812   4.157   7.186   4.601  0.8145  0.1666  0.8346
   47MOL   N68134813   4.103   7.214   4.735  0.5078  0.0341 -0.0351
   47MOL   H68234814   3.993   6.448   3.747  0.7695 -1.3894 -2.6033
   47MOL   H68334815   3.864   6.522   3.835 -1.5041  0.6547 -0.3572
   47MOL   H68434816   3.973   6.625   3.577  1.5772 -1.2294 -0.0191
   47MOL   H68534817   3.848   6.699   3.688  0.2026 -0.8882  0.9325
   47MOL   H68634818   4.051   6.811   3.682  1.0862  0.0559  0.5365
   47MOL   H68734819   4.138   6.687   3.764  1.8460  2.4898 -2.6687
   47MOL   H68834820   3.896   6.849   3.865  1.9819  3.0300  2.0426
   47MOL   H68934821   3.971   6.725   3.958 -0.9531 -0.7662 -0.3597
   47MOL   H69034822   4.121   6.961   3.837 -1.0607  2.4641  0.6659
   47MOL   H69134823   4.185   6.848   3.957 -0.1228  0.8052  0.5392
   47MOL   H69234824   3.942   7.041   4.002 -0.8019  0.6417  3.5620
   47MOL   H69334825   4.100   7.074   4.053 -0.7953  0.8427  0.5490
   47MOL   H69434826   4.115   6.889   4.204 -1.6212 -1.6678  1.7859
   47MOL   H69534827   3.941   6.851   4.166 -1.4203  1.1077 -0.0403
   47MOL   H69634828   3.906   6.978   4.365  0.8481 -0.4589  0.8477
   47MOL   H69734829   3.910   7.108   4.246 -0.4898 -0.5822  0.5958
   47MOL   H69834830   4.121   7.159   4.304 -2.6870  0.2788 -1.5807
   47MOL   H69934831   4.156   7.005   4.389 -0.1005 -0.0729  1.7821
   47MOL   H70034832   3.988   7.064   4.559 -0.4007  0.6706  1.4330
   47MOL   H70134833   3.957   7.215   4.497  0.1059 -0.3596  0.7429
   47MOL   H70234834   4.205   7.278   4.566 -1.0158  0.3935 -1.2047
   47MOL   H70334835   4.239   7.114   4.604 -0.4960 -1.5031 -1.3742
   47MOL   H70434836   4.002   7.210   4.743  0.4303  0.8387 -0.5634
   47MOL   C70534837   4.178   7.234   4.842 -0.2790 -0.3243 -0.5250
   47MOL   O70634838   4.301   7.217   4.853 -0.0363 -0.1629 -0.5447
   47MOL   C70734839   4.109   7.279   4.975 -0.3860  0.8600 -0.6293
   47MOL   C70834840   4.207   7.303   5.092 -0.2661  0.5093 -0.1383
   47MOL   C70934841   4.240   7.180   5.174 -0.3615 -0.7763 -0.0916
   47MOL   C71034842   4.341   7.214   5.290 -0.2367  0.0825 -0.3834
   47MOL   C71134843   4.323   7.118   5.405  0.1204  0.0106  0.5150
   47MOL   C71234844   4.430   7.131   5.514  1.0417  0.0518 -0.9601
   47MOL   C71334845   4.457   6.994   5.589 -0.0079 -0.3690 -0.6766
   47MOL   C71434846   4.586   6.995   5.668 -0.2548  0.3316 -0.1895
   47MOL   C71534847   4.621   6.855   5.726 -0.7355  0.4203 -0.2970
   47MOL   C71634848   4.777   6.853   5.748  0.5605 -1.0429 -0.5871
   47MOL   C71734849   4.823   6.744   5.841 -0.5566  0.1360  0.5079
   47MOL   N71834850   4.972   6.736   5.859 -0.2999 -0.3264  0.0645
   47MOL   H71934851   4.038   7.206   5.015 -0.0166  2.5447  3.3170
   47MOL   H72034852   4.060   7.375   4.959 -0.6024  1.0759  1.1773
   47MOL   H72134853   4.299   7.346   5.053  0.8846 -0.2538  1.6464
   47MOL   H72234854   4.153   7.368   5.161 -1.2128  0.8028 -1.1583
   47MOL   H72334855   4.285   7.106   5.108  0.8335 -0.6609  0.5777
   47MOL   H72434856   4.152   7.139   5.224 -0.9358  1.4852  0.7916
   47MOL   H72534857   4.444   7.205   5.255 -0.1468 -2.0613  0.3525
   47MOL   H72634858   4.336   7.320   5.316  2.1388 -0.0737  0.8799
   47MOL   H72734859   4.345   7.022   5.359  1.4040 -1.0516  3.2727
   47MOL   H72834860   4.225   7.125   5.454  0.9544  1.4716  2.0222
   47MOL   H72934861   4.404   7.213   5.581  0.2162 -2.0140  1.2972
   47MOL   H73034862   4.529   7.145   5.469  1.4801 -1.1265 -0.3733
   47MOL   H73134863   4.469   6.920   5.510  4.4150 -1.3574  0.7391
   47MOL   H73234864   4.370   6.967   5.649 -1.4255  0.3870 -2.3542
   47MOL   H73334865   4.595   7.079   5.737  0.2102  0.2481 -0.1470
   47MOL   H73434866   4.656   7.014   5.587 -1.3109  1.0105 -0.9514
   47MOL   H73534867   4.580   6.784   5.654  0.7215 -0.3488 -0.3987
   47MOL   H73634868   4.574   6.825   5.820  2.4675  1.1471  1.6521
   47MOL   H73734869   4.813   6.944   5.796  3.1310 -2.3114 -0.0063
   47MOL   H73834870   4.829   6.850   5.652  0.6123 -0.2142 -0.5919
   47MOL   H73934871   4.778   6.651   5.805  1.7917 -0.4672 -1.0069
   47MOL   H74034872   4.767   6.762   5.933  0.7078 -0.1633  1.3475
   47MOL   H74134873   5.002   6.656   5.914  2.7019  0.2102 -0.7308
   47MOL   H74234874   4.996   6.705   5.766 -2.8826  0.5034 -0.9140
   48MOL     C134875   6.390   0.541   4.869 -0.3003 -0.3634  0.2002
   48MOL     O234876   6.384   0.662   4.829 -0.0261  0.3380 -0.3859
   48MOL     C334877   6.360   0.430   4.778 -0.6760  0.5165 -0.3978
   48MOL     C434878   6.218   0.409   4.735 -0.5214 -0.0625 -0.1984
   48MOL     C534879   6.118   0.411   4.841 -0.2244  0.1637  0.8755
   48MOL     C634880   5.979   0.354   4.797  0.7958 -0.0625 -0.3422
   48MOL     C734881   5.867   0.385   4.888 -0.5983 -0.5536 -0.2189
   48MOL     C834882   5.747   0.327   4.822  0.8115  0.1351  0.0546
   48MOL     C934883   5.618   0.366   4.897  0.0708 -0.4395 -0.7378
   48MOL    C1034884   5.485   0.322   4.826 -0.2126  0.7378  0.0913
   48MOL    C1134885   5.359   0.367   4.905  0.7547 -0.0712  0.2372
   48MOL    C1234886   5.347   0.314   5.050  0.3803 -0.4972 -0.3048
   48MOL    C1334887   5.230   0.377   5.128  0.1398  1.2937 -0.1815
   48MOL    N1434888   5.235   0.516   5.107 -0.3572 -0.1977 -0.3175
   48MOL    H1534889   6.395   0.346   4.837  2.1783  1.2953 -0.8975
   48MOL    H1634890   6.438   0.441   4.704 -1.8172  0.5223 -1.6112
   48MOL    H1734891   6.191   0.488   4.665 -3.2717 -0.5022  0.2996
   48MOL    H1834892   6.227   0.317   4.678 -0.4538 -0.5233  0.5564
   48MOL    H1934893   6.105   0.515   4.868 -4.4300 -0.4744  1.6552
   48MOL    H2034894   6.146   0.354   4.930 -0.7803 -0.6439  0.5427
   48MOL    H2134895   5.952   0.394   4.700  2.4379  1.4510 -0.1972
   48MOL    H2234896   5.990   0.247   4.783  1.8929 -0.1298  0.9292
   48MOL    H2334897   5.842   0.491   4.896  1.8913  0.0468 -0.0658
   48MOL    H2434898   5.886   0.345   4.988 -0.4257 -0.5531 -0.2523
   48MOL    H2534899   5.757   0.219   4.812  0.1632  0.1465 -0.6882
   48MOL    H2634900   5.751   0.358   4.718  2.3144  0.0457  0.0753
   48MOL    H2734901   5.619   0.474   4.910  1.0603 -0.4230 -0.9148
   48MOL    H2834902   5.634   0.316   4.993  1.5140  1.2184 -0.0967
   48MOL    H2934903   5.487   0.214   4.810  2.6543  0.8478 -0.4191
   48MOL    H3034904   5.487   0.374   4.731 -2.2773  0.8778  0.1028
   48MOL    H3134905   5.275   0.337   4.843  0.9486 -2.0781  0.9035
   48MOL    H3234906   5.376   0.475   4.909 -2.5267  0.5199 -0.7005
   48MOL    H3334907   5.435   0.345   5.107 -0.2672 -0.1882  0.5353
   48MOL    H3434908   5.346   0.205   5.057  0.4405 -0.4745  0.1141
   48MOL    H3534909   5.244   0.352   5.233 -2.0441 -1.6874 -0.5315
   48MOL    H3634910   5.138   0.328   5.096  0.2198  0.4505  0.8611
   48MOL    H3734911   5.324   0.551   5.077  0.8010 -1.3230  1.7488
   48MOL    H3834912   6.430   0.512   4.966 -0.9440  1.5748  1.0501
   48MOL    C3934913   5.147   0.605   5.155  0.1685  0.0593 -0.1698
   48MOL    O4034914   5.054   0.562   5.226  0.3982 -0.6213  0.2962
   48MOL    C4134915   5.178   0.752   5.153 -0.4726  0.3041  0.3167
   48MOL    C4234916   5.088   0.834   5.243 -0.2463  0.5179 -0.3420
   48MOL    C4334917   4.955   0.876   5.179  0.5857 -0.4440  0.1110
   48MOL    C4434918   4.847   0.921   5.272  0.1791  0.0464 -0.5063
   48MOL    C4534919   4.717   0.963   5.202 -0.4051  0.4055 -0.5628
   48MOL    C4634920   4.638   0.850   5.135 -0.2029 -0.7753 -0.0721
   48MOL    C4734921   4.556   0.778   5.241 -0.1953  0.7025 -0.1304
   48MOL    C4834922   4.463   0.672   5.184  0.0350  0.7042  0.3114
   48MOL    C4934923   4.358   0.617   5.274 -0.0953  0.2588 -0.2998
   48MOL    C5034924   4.232   0.557   5.202  0.8292  0.2964  0.0994
   48MOL    C5134925   4.252   0.402   5.173 -0.1055 -0.7181  0.1191
   48MOL    N5234926   4.131   0.328   5.135 -0.0309  0.1412  0.2607
   48MOL    H5334927   5.181   0.787   5.050  1.2735  0.4082  0.3767
   48MOL    H5434928   5.276   0.776   5.195 -2.2191  2.0548  3.5877
   48MOL    H5534929   5.063   0.783   5.337  2.2964 -0.0204  0.0862
   48MOL    H5634930   5.144   0.919   5.283  1.4516 -1.3621  1.4688
   48MOL    H5734931   4.913   0.796   5.118 -0.3854 -1.5564  2.1754
   48MOL    H5834932   4.983   0.962   5.118 -1.7691 -0.9583 -1.7810
   48MOL    H5934933   4.810   0.843   5.338 -0.2385  0.8585  0.2377
   48MOL    H6034934   4.880   1.005   5.333 -1.5068  1.5186 -1.5532
   48MOL    H6134935   4.761   1.029   5.127 -0.3276  1.3280  0.2754
   48MOL    H6234936   4.664   1.021   5.278  0.4342 -0.6271  0.8331
   48MOL    H6334937   4.703   0.777   5.087  0.3015 -0.7199  0.5353
   48MOL    H6434938   4.579   0.897   5.056  1.8671 -0.6172 -1.5704
   48MOL    H6534939   4.489   0.843   5.297 -0.6081  0.3576 -0.2165
   48MOL    H6634940   4.625   0.738   5.316  1.6280  0.4645 -1.9180
   48MOL    H6734941   4.522   0.587   5.149 -2.0981 -1.4330  1.6925
   48MOL    H6834942   4.422   0.713   5.092  0.9127  1.6787  0.3380
   48MOL    H6934943   4.321   0.699   5.335  0.5105  0.3241 -0.0226
   48MOL    H7034944   4.396   0.544   5.346 -1.2189 -1.0979 -1.0635
   48MOL    H7134945   4.209   0.625   5.121  0.8528 -2.7630 -2.5728
   48MOL    H7234946   4.148   0.571   5.271  1.3312 -0.7475  0.9374
   48MOL    H7334947   4.279   0.367   5.272  1.0175  1.6425  0.6876
   48MOL    H7434948   4.340   0.369   5.116  0.6266 -0.0950  0.8765
   48MOL    H7534949   4.050   0.348   5.191 -0.1870 -0.7951  0.3772
   48MOL    C7634950   4.129   0.214   5.057  0.2780  0.1007  0.2238
   48MOL    O7734951   4.230   0.169   5.011  1.0242 -0.2470 -0.4176
   48MOL    C7834952   3.993   0.154   5.034  0.7276  0.2452  0.4747
   48MOL    C7934953   3.999   0.002   5.001  0.7271  0.5959 -0.3683
   48MOL    C8034954   3.875   7.607   5.028  0.1134  0.3253  0.0117
   48MOL    C8134955   3.857   7.573   5.177 -0.3874  0.5246 -0.2599
   48MOL    C8234956   3.739   7.478   5.211 -0.2277  0.2386 -0.1191
   48MOL    C8334957   3.746   7.424   5.348 -0.1492  0.0705 -0.1822
   48MOL    C8434958   3.697   7.514   5.469  0.2245  0.2028  0.5465
   48MOL    C8534959   3.690   7.441   5.604 -0.1604  0.2359  0.3565
   48MOL    C8634960   3.675   7.539   5.720 -0.7751  0.3113  0.3982
   48MOL    C8734961   3.671   7.461   5.848 -0.0080 -0.0415 -0.5567
   48MOL    C8834962   3.643   7.544   5.964  0.4371 -0.1052  0.2389
   48MOL    N8934963   3.680   7.466   6.077 -0.0297  0.4719 -0.5134
   48MOL    H9034964   3.932   0.215   4.967  1.0702  0.0858  0.0165
   48MOL    H9134965   3.926   0.163   5.119  0.7126 -1.7072  0.6948
   48MOL    H9234966   4.017   0.001   4.894  1.7020  1.4272 -0.2171
   48MOL    H9334967   4.089   7.648   5.041  0.7071  0.4608 -0.4820
   48MOL    H9434968   3.894   7.517   4.970  3.2299 -2.0229  4.4162
   48MOL    H9534969   3.792   7.656   4.977 -0.2359  1.1239  1.3269
   48MOL    H9634970   3.948   7.519   5.205 -0.3477  0.6060 -0.2321
   48MOL    H9734971   3.866   7.663   5.239  0.4639  1.2251 -1.3957
   48MOL    H9834972   3.735   7.401   5.134 -0.3647  0.7470 -0.6230
   48MOL    H9934973   3.639   7.517   5.191 -0.1276  0.9630  0.8208
   48MOL   H10034974   3.842   7.381   5.376 -0.2892 -0.1494 -0.0376
   48MOL   H10134975   3.674   7.343   5.363  0.0929 -0.5210 -2.0951
   48MOL   H10234976   3.600   7.560   5.447  0.4256  0.2797 -0.1982
   48MOL   H10334977   3.760   7.602   5.478 -2.2208  2.3213 -2.1057
   48MOL   H10434978   3.788   7.407   5.638 -0.1758 -1.1639 -0.9383
   48MOL   H10534979   3.614   7.363   5.603  1.1948 -1.1242  0.2316
   48MOL   H10634980   3.581   7.593   5.705 -1.0803 -0.2452  0.3025
   48MOL   H10734981   3.752   7.616   5.725 -1.1308  0.5165  3.1490
   48MOL   H10834982   3.770   7.417   5.855  0.5565  1.0105 -1.7714
   48MOL   H10934983   3.589   7.392   5.830 -0.1765  0.2885 -1.0799
   48MOL   H11034984   3.543   7.588   5.965 -0.5113 -2.2176  1.3313
   48MOL   H11134985   3.698   7.638   5.961  0.9359 -0.3962  0.2703
   48MOL   H11234986   3.680   7.365   6.074  0.0659  0.4591 -0.1519
   48MOL   C11334987   3.727   7.510   6.191 -0.0874  0.6456 -0.2360
   48MOL   O11434988   3.735   7.629   6.216  0.3625  0.2085  0.5005
   48MOL   C11534989   3.786   7.403   6.289 -0.3458  0.1384 -0.4645
   48MOL   C11634990   3.939   7.395   6.262  0.0786 -0.6147  0.0933
   48MOL   C11734991   3.986   7.344   6.117  0.6794  0.2638 -0.2937
   48MOL   C11834992   4.136   7.306   6.118 -0.7235 -0.0679 -0.1478
   48MOL   C11934993   4.208   7.281   5.982  1.0156  0.2979 -0.7816
   48MOL   C12034994   4.127   7.203   5.877  0.1538 -0.0215 -0.5115
   48MOL   C12134995   4.112   7.054   5.894  0.7694 -0.3899  0.1493
   48MOL   C12234996   4.030   6.985   5.781  0.8203  0.1217  0.0734
   48MOL   C12334997   3.891   7.034   5.762 -0.7227 -0.3087  0.1695
   48MOL   C12434998   3.792   7.026   5.881 -0.2778  0.2446  0.2058
   48MOL   C12534999   3.645   7.067   5.847 -0.2764 -0.1475  0.1171
   48MOL   N12635000   3.557   7.031   5.958  0.1117 -0.4472  0.4038
   48MOL   H12735001   3.751   7.300   6.300  2.1783 -0.7464 -0.4019
   48MOL   H12835002   3.765   7.443   6.388 -0.6058  0.2719 -0.5734
   48MOL   H12935003   3.988   7.489   6.287 -1.7906 -0.2781  2.7137
   48MOL   H13035004   3.965   7.316   6.333  1.6129  0.2287  0.4745
   48MOL   H13135005   3.977   7.430   6.052 -0.2638  1.0666  0.8737
   48MOL   H13235006   3.938   7.261   6.066 -1.3848  0.7636  0.7738
   48MOL   H13335007   4.190   7.386   6.169  0.7907 -0.8819 -0.4276
   48MOL   H13435008   4.149   7.215   6.176  3.9280  0.3936 -0.2643
   48MOL   H13535009   4.302   7.227   5.990 -0.2507 -2.0065 -1.0412
   48MOL   H13635010   4.220   7.378   5.933  1.4699  0.3886 -0.4939
   48MOL   H13735011   4.182   7.229   5.787 -0.7875  0.7300 -0.8775
   48MOL   H13835012   4.029   7.251   5.875  0.4113  0.6474  1.6900
   48MOL   H13935013   4.062   7.026   5.987  1.0394  0.2883  0.5038
   48MOL   H14035014   4.212   7.012   5.905 -0.0964 -2.6858 -0.3743
   48MOL   H14135015   4.033   6.880   5.813  0.3942 -0.5225 -1.9556
   48MOL   H14235016   4.086   6.996   5.688  0.5438  0.6788 -0.0263
   48MOL   H14335017   3.846   6.983   5.677  1.1409 -2.0273  0.1661
   48MOL   H14435018   3.896   7.136   5.723  0.3187 -0.2139  0.5356
   48MOL   H14535019   3.838   7.087   5.959  1.7660 -1.4632  0.3861
   48MOL   H14635020   3.792   6.925   5.921 -0.3220 -0.1398 -0.7542
   48MOL   H14735021   3.619   7.021   5.752  0.8642 -0.4679 -0.0492
   48MOL   H14835022   3.634   7.175   5.835  0.5027 -0.0649  0.1511
   48MOL   H14935023   3.463   7.014   5.926 -0.1860  0.5335  0.7407
   48MOL   C15035024   3.556   7.094   6.080 -0.0074 -0.8198  0.3088
   48MOL   O15135025   3.648   7.168   6.111 -0.6927  0.0302  0.1855
   48MOL   C15235026   3.432   7.075   6.165  0.2342 -0.1986  0.1178
   48MOL   C15335027   3.368   7.201   6.231  0.4681 -0.2969 -0.8598
   48MOL   C15435028   3.306   7.307   6.141 -0.0521  0.2832  0.1822
   48MOL   C15535029   3.189   7.387   6.209 -0.6744 -0.0057 -1.0577
   48MOL   C15635030   3.134   7.506   6.130  0.9153 -0.6283  0.3428
   48MOL   C15735031   3.238   7.607   6.076 -0.4055 -0.4765  0.1900
   48MOL   C15835032   3.184   0.047   6.026  0.6880  0.3647  0.3497
   48MOL   C15935033   3.296   0.130   5.958 -0.7588  0.1867 -0.1171
   48MOL   C16035034   3.372   0.218   6.052  0.0168  0.0783  0.2043
   48MOL   C16135035   3.494   0.156   6.135  0.5591 -0.2423  0.5000
   48MOL   C16235036   3.589   0.271   6.187 -0.5828  0.1200 -0.2114
   48MOL   N16335037   3.704   0.211   6.248 -0.6502 -0.0316 -0.5697
   48MOL   H16435038   3.464   7.015   6.250 -2.4488 -0.0419  1.3015
   48MOL   H16535039   3.355   7.024   6.107  1.7654 -1.0435 -1.2252
   48MOL   H16635040   3.293   7.158   6.298 -0.7767  0.1215 -1.9678
   48MOL   H16735041   3.447   7.241   6.294  0.3708  0.2760 -1.1065
   48MOL   H16835042   3.271   7.255   6.051  0.2067 -0.9392  0.7702
   48MOL   H16935043   3.376   7.388   6.121 -0.9820  0.8898 -0.6971
   48MOL   H17035044   3.106   7.321   6.235  0.7306 -1.1022  0.7018
   48MOL   H17135045   3.233   7.418   6.303  0.2416 -3.7423 -0.1925
   48MOL   H17235046   3.070   7.562   6.198  1.0707 -0.3119  0.2320
   48MOL   H17335047   3.072   7.468   6.049  0.4614 -3.4683  1.9570
   48MOL   H17435048   3.295   7.553   6.000  3.9336  0.8642  2.3197
   48MOL   H17535049   3.307   7.632   6.157 -0.9500  1.3788  0.1028
   48MOL   H17635050   3.136   0.105   6.106  1.8648  0.8874  0.6840
   48MOL   H17735051   3.104   0.034   5.954  0.3121  0.1450  0.7999
   48MOL   H17835052   3.247   0.192   5.884 -0.3962  0.7395  0.1004
   48MOL   H17935053   3.370   0.065   5.910  1.1816  1.2250  1.3909
   48MOL   H18035054   3.308   0.277   6.117 -0.6141  0.4153 -0.7081
   48MOL   H18135055   3.413   0.290   5.982 -0.1767 -0.1272 -0.1214
   48MOL   H18235056   3.548   0.088   6.070  1.9822 -0.7289  2.1471
   48MOL   H18335057   3.457   0.096   6.218 -3.0043 -0.6775 -1.3295
   48MOL   H18435058   3.542   0.341   6.256 -0.9005 -0.5765  0.2799
   48MOL   H18535059   3.613   0.333   6.100 -2.3381  1.5010  0.2570
   48MOL   H18635060   3.697   0.112   6.233 -1.8943 -0.2052  1.0362
   48MOL   C18735061   3.790   0.268   6.338  0.2792 -0.6036 -0.0661
   48MOL   O18835062   3.800   0.386   6.355 -0.3389  0.1481 -0.0257
   48MOL   C18935063   3.862   0.168   6.424 -0.5019  0.7218 -0.1598
   48MOL   C19035064   4.004   0.124   6.379 -0.4244  0.2378  0.0276
   48MOL   C19135065   4.098   0.239   6.350 -0.7863  0.1286 -0.2041
   48MOL   C19235066   4.223   0.177   6.278 -0.0423 -0.0532 -0.3485
   48MOL   C19335067   4.301   0.065   6.354 -0.4399  0.0314 -0.3409
   48MOL   C19435068   4.397   7.692   6.256 -0.3470  0.4101  0.2286
   48MOL   C19535069   4.507   7.603   6.329 -0.0650  0.7614 -0.2693
   48MOL   C19635070   4.450   7.464   6.366  0.1741 -0.0308  0.3792
   48MOL   C19735071   4.555   7.380   6.455 -0.4861 -0.0345 -0.1536
   48MOL   C19835072   4.508   7.254   6.506 -0.0741  0.1128  0.4637
   48MOL   C19935073   4.615   7.161   6.563  0.1705 -0.5268 -0.6400
   48MOL   N20035074   4.565   7.047   6.636  1.0464  0.0436 -0.0887
   48MOL   H20135075   3.803   0.077   6.418  1.4198 -0.4275 -2.4539
   48MOL   H20235076   3.854   0.211   6.524  1.8086 -0.0456  0.3831
   48MOL   H20335077   4.049   0.070   6.463 -0.1003  0.7831  0.2063
   48MOL   H20435078   3.983   0.062   6.292  0.1504 -1.4289  1.0511
   48MOL   H20535079   4.133   0.276   6.446 -0.4866 -5.0909  1.9055
   48MOL   H20635080   4.044   0.307   6.284 -2.7711 -1.4317 -0.2236
   48MOL   H20735081   4.192   0.137   6.182  1.2661  0.5664 -1.0366
   48MOL   H20835082   4.290   0.261   6.263  0.3509 -0.0918  1.0658
   48MOL   H20935083   4.244   7.692   6.418  0.2557  0.0102  0.2753
   48MOL   H21035084   4.362   0.120   6.426 -0.4494  1.9775 -1.7600
   48MOL   H21135085   4.449   0.077   6.203 -1.9291  0.3517 -1.4744
   48MOL   H21235086   4.356   7.626   6.180  0.8304 -0.1621  0.0841
   48MOL   H21335087   4.540   7.655   6.420  2.3652  1.4833 -1.5242
   48MOL   H21435088   4.597   7.589   6.270  0.5201  1.6591  0.3871
   48MOL   H21535089   4.415   7.410   6.277  1.2552  0.1398 -0.1530
   48MOL   H21635090   4.366   7.494   6.429  2.0284 -0.1882  2.9925
   48MOL   H21735091   4.596   7.441   6.536  0.2083  0.5717 -0.9417
   48MOL   H21835092   4.636   7.352   6.388  0.7987 -0.2343  1.4413
   48MOL   H21935093   4.441   7.200   6.439  2.2436 -2.2117 -0.0634
   48MOL   H22035094   4.443   7.291   6.586  1.5436  0.2419  1.7429
   48MOL   H22135095   4.699   7.215   6.608 -0.8816  1.2447 -0.7824
   48MOL   H22235096   4.663   7.121   6.473  1.3463 -1.3488  0.3352
   48MOL   H22335097   4.499   6.999   6.578  0.5482 -0.0488  0.5503
   48MOL   C22435098   4.591   7.016   6.761  0.0740 -0.4455 -0.2402
   48MOL   O22535099   4.673   7.070   6.836 -0.6232  0.0963  0.5031
   48MOL   C22635100   4.521   6.889   6.808  0.8060  1.0566 -0.8559
   48MOL   C22735101   4.622   6.778   6.846 -0.9989 -0.0329 -0.6800
   48MOL   C22835102   4.678   6.693   6.727  0.4771  0.0037  0.6047
   48MOL   C22935103   4.783   6.595   6.788 -0.0833  0.8957  0.6327
   48MOL   C23035104   4.816   6.475   6.689 -0.6160  0.4814  1.0084
   48MOL   C23135105   4.934   6.375   6.720  0.2167 -0.4818  0.0043
   48MOL   C23235106   4.952   6.270   6.613 -1.1265 -0.1302  0.2970
   48MOL   C23335107   5.097   6.217   6.605 -0.3916 -0.3007  0.0393
   48MOL   C23435108   5.126   6.131   6.481 -0.7975  0.4944  0.3184
   48MOL   C23535109   5.270   6.115   6.440  0.3912 -0.9262 -0.5305
   48MOL   C23635110   5.371   6.045   6.547  0.2648  0.7836 -0.1079
   48MOL   N23735111   5.491   5.994   6.491  0.1858  0.1379 -0.0035
   48MOL   H23835112   4.448   6.854   6.736 -0.5001 -0.0681  0.9874
   48MOL   H23935113   4.464   6.907   6.899 -0.5017 -1.3047 -1.1887
   48MOL   H24035114   4.705   6.827   6.897 -0.9814  0.1833 -0.9175
   48MOL   H24135115   4.566   6.719   6.918 -1.2099  0.8249 -0.1434
   48MOL   H24235116   4.726   6.750   6.647  0.1190 -1.2017 -0.4839
   48MOL   H24335117   4.597   6.633   6.686  1.6445 -0.8901 -0.4299
   48MOL   H24435118   4.875   6.644   6.820  1.7115 -1.9587 -0.0122
   48MOL   H24535119   4.740   6.548   6.877  0.8904  0.3894  0.8384
   48MOL   H24635120   4.820   6.504   6.584  0.8998 -2.5652  0.1857
   48MOL   H24735121   4.731   6.410   6.673 -0.4959  0.9533 -1.9272
   48MOL   H24835122   4.919   6.327   6.817  2.0412 -0.6280  0.2257
   48MOL   H24935123   5.020   6.442   6.725  0.3792 -0.7629  1.3881
   48MOL   H25035124   4.928   6.309   6.515  3.0307 -0.2025 -0.8359
   48MOL   H25135125   4.891   6.180   6.620  0.8294 -1.6588 -1.6690
   48MOL   H25235126   5.123   6.163   6.696  0.0543  2.6843  1.7516
   48MOL   H25335127   5.162   6.304   6.607 -2.1654  1.0725 -0.9834
   48MOL   H25435128   5.085   6.182   6.394 -0.4511 -2.6625 -1.7669
   48MOL   H25535129   5.083   6.031   6.489 -3.0909  1.4221  0.1422
   48MOL   H25635130   5.305   6.213   6.409  0.1976 -0.4214  0.7975
   48MOL   H25735131   5.264   6.052   6.351  0.2933 -1.3106 -0.2502
   48MOL   H25835132   5.314   5.965   6.592  0.1877  0.8494 -0.0883
   48MOL   H25935133   5.401   6.118   6.622  0.3749  1.2644 -0.6129
   48MOL   H26035134   5.572   6.053   6.505  0.4405 -0.6698  2.1289
   48MOL   C26135135   5.509   5.881   6.424  0.5248  0.4045 -0.1574
   48MOL   O26235136   5.425   5.787   6.407 -0.1472 -0.0696  0.4696
   48MOL   C26335137   5.657   5.860   6.374 -0.6376 -0.4060  0.7711
   48MOL   C26435138   5.673   5.739   6.281  0.3114 -0.4890  0.6175
   48MOL   C26535139   5.636   5.740   6.132  0.0391 -0.0327  0.5394
   48MOL   C26635140   5.684   5.872   6.062  0.8163  0.4276 -0.0446
   48MOL   C26735141   5.674   5.863   5.912 -0.2035 -0.4133 -0.6941
   48MOL   C26835142   5.780   5.778   5.843 -0.3373 -0.0962  0.3151
   48MOL   C26935143   5.769   5.781   5.690 -0.0679 -0.0117  0.1258
   48MOL   C27035144   5.824   5.663   5.621 -0.3346  0.4096  0.1000
   48MOL   C27135145   5.811   5.670   5.464  0.2356 -0.5595  0.1473
   48MOL   C27235146   5.868   5.550   5.391  0.3509  0.1183 -0.3280
   48MOL   C27335147   5.801   5.412   5.417  0.4827  0.8634  0.4914
   48MOL   N27435148   5.657   5.422   5.406  0.2310  0.0419 -0.2048
   48MOL   H27535149   5.714   5.840   6.465 -0.9133 -4.0087  0.2122
   48MOL   H27635150   5.699   5.954   6.338  0.1947 -1.6743 -1.5757
   48MOL   H27735151   5.777   5.707   6.290  0.2297 -1.1038 -0.5507
   48MOL   H27835152   5.623   5.656   6.332  1.0312  0.4681  2.9443
   48MOL   H27935153   5.528   5.735   6.127  0.1236 -3.2552  1.0670
   48MOL   H28035154   5.684   5.655   6.084  2.0096  0.3454  1.7382
   48MOL   H28135155   5.631   5.958   6.103 -0.9711 -0.5719 -0.2642
   48MOL   H28235156   5.789   5.892   6.087  0.2863 -0.5110  2.9939
   48MOL   H28335157   5.677   5.962   5.867  0.8484  0.0915  0.4530
   48MOL   H28435158   5.574   5.834   5.880 -0.1365 -0.5923 -0.7407
   48MOL   H28535159   5.767   5.677   5.881 -1.1502  0.5773  1.8663
   48MOL   H28635160   5.881   5.804   5.875 -0.0409 -0.4867 -0.2859
   48MOL   H28735161   5.820   5.868   5.650  1.1775  0.5129  2.7921
   48MOL   H28835162   5.665   5.785   5.655 -0.8355  1.7034  2.5108
   48MOL   H28935163   5.762   5.575   5.640 -1.3335  0.8255 -1.1710
   48MOL   H29035164   5.920   5.621   5.649 -1.6057 -1.9669  1.0476
   48MOL   H29135165   5.864   5.760   5.432 -2.1968  1.6081  2.0595
   48MOL   H29235166   5.705   5.678   5.443  0.3173 -0.6976 -0.3235
   48MOL   H29335167   5.973   5.543   5.421 -0.1074  0.7806  1.4769
   48MOL   H29435168   5.882   5.573   5.285 -1.0219  2.2093 -0.0818
   48MOL   H29535169   5.823   5.378   5.519  0.3283 -3.1028 -0.6952
   48MOL   H29635170   5.836   5.339   5.344 -1.0821  0.4528  0.1371
   48MOL   H29735171   5.602   5.419   5.491  0.6851 -0.6394  0.0733
   48MOL   C29835172   5.586   5.426   5.293  0.1340  0.0722 -0.3233
   48MOL   O29935173   5.633   5.425   5.180  0.4369  0.2679 -0.6772
   48MOL   C30035174   5.437   5.439   5.308  0.0548  0.4536 -0.3920
   48MOL   C30135175   5.352   5.377   5.191 -0.4079  0.2440 -0.6103
   48MOL   C30235176   5.373   5.227   5.152  0.3296 -0.1982 -0.3798
   48MOL   C30335177   5.282   5.158   5.045  0.4535 -0.1276  0.2285
   48MOL   C30435178   5.309   5.202   4.902  0.4606 -0.4089  0.1935
   48MOL   C30535179   5.221   5.149   4.789 -0.1756  0.7634  0.1428
   48MOL   C30635180   5.090   5.227   4.787 -0.1016  0.8470 -0.4306
   48MOL   C30735181   4.973   5.168   4.706 -0.2130 -0.0100 -0.1502
   48MOL   C30835182   4.896   5.045   4.770 -0.7942  0.1331 -0.0015
   48MOL   C30935183   4.816   5.091   4.892 -0.3316 -0.1610 -0.1264
   48MOL   C31035184   4.739   4.984   4.967  0.5649 -0.6047 -0.4598
   48MOL   N31135185   4.670   5.050   5.071  1.4323 -0.0574 -0.3335
   48MOL   H31235186   5.402   5.541   5.325  0.3390  1.1026 -3.4631
   48MOL   H31335187   5.411   5.396   5.404  1.4567  2.7690  1.0640
   48MOL   H31435188   5.247   5.386   5.220 -0.0509 -1.0757  1.1894
   48MOL   H31535189   5.357   5.445   5.106 -3.1092  0.6328 -0.5012
   48MOL   H31635190   5.360   5.161   5.238 -0.2424  0.3935 -0.0069
   48MOL   H31735191   5.479   5.211   5.129  0.3150 -2.2112  0.8088
   48MOL   H31835192   5.289   5.049   5.046  3.7402  0.0461  0.7295
   48MOL   H31935193   5.176   5.163   5.069  0.4758 -0.0011  0.2985
   48MOL   H32035194   5.407   5.182   4.859  0.6860 -0.4007  0.7003
   48MOL   H32135195   5.314   5.311   4.894 -0.6165 -0.3844 -0.2915
   48MOL   H32235196   5.196   5.044   4.803  3.1066  0.3068  3.1734
   48MOL   H32335197   5.266   5.138   4.690 -0.9503 -0.9884 -0.0380
   48MOL   H32435198   5.109   5.327   4.748  3.2944  0.2008 -0.5688
   48MOL   H32535199   5.055   5.231   4.890  1.1288  0.9839 -0.0130
   48MOL   H32635200   5.019   5.129   4.616  1.7407  0.9099  0.4458
   48MOL   H32735201   4.905   5.247   4.674  0.7978  1.0321  0.2493
   48MOL   H32835202   4.973   4.969   4.779 -0.6320  0.1122 -1.3934
   48MOL   H32935203   4.830   4.997   4.697  0.2808  0.1493 -0.9910
   48MOL   H33035204   4.751   5.171   4.856 -0.0574 -1.1391 -2.9028
   48MOL   H33135205   4.885   5.151   4.952  0.5852  0.2471 -1.5735
   48MOL   H33235206   4.803   4.903   5.001 -1.3385 -1.6669  0.6760
   48MOL   H33335207   4.669   4.936   4.898  1.0156 -1.0248 -0.6329
   48MOL   H33435208   4.708   5.041   5.164  1.0030  0.6234 -0.0889
   48MOL   C33535209   4.548   5.101   5.074 -0.7655 -0.4845  0.0514
   48MOL   O33635210   4.483   5.108   4.973  0.0947  0.1484 -0.0237
   48MOL   C33735211   4.483   5.143   5.203  0.4562  0.2103 -0.1613
   48MOL   C33835212   4.519   5.284   5.253  0.2409 -0.5996  0.3300
   48MOL   C33935213   4.424   5.401   5.206 -0.0610 -0.6797 -0.4343
   48MOL   C34035214   4.466   5.539   5.271  0.1026 -0.3986 -0.0987
   48MOL   C34135215   4.339   5.624   5.292  0.3862  0.4216 -0.0069
   48MOL   C34235216   4.379   5.762   5.355  0.3627  0.1126 -0.1841
   48MOL   C34335217   4.250   5.841   5.400  0.6501  0.0237  0.3143
   48MOL   C34435218   4.251   5.980   5.473 -0.5737 -0.3767  0.3694
   48MOL   C34535219   4.126   6.049   5.485  0.6349 -0.6019  0.6074
   48MOL   C34635220   4.148   6.180   5.572 -0.1197  0.1565 -0.4971
   48MOL   C34735221   4.015   6.249   5.619 -0.0085 -0.3130 -0.0349
   48MOL   N34835222   3.943   6.297   5.502 -0.1927  0.8650  0.4401
   48MOL   H34935223   4.507   5.061   5.271  0.1898  1.3491  1.3268
   48MOL   H35035224   4.375   5.135   5.189  0.5698  1.0705 -1.5869
   48MOL   H35135225   4.518   5.274   5.362 -0.4983  0.7340  0.4514
   48MOL   H35235226   4.622   5.305   5.224 -0.2992  0.2962 -0.9904
   48MOL   H35335227   4.326   5.374   5.245  0.0019 -1.1812 -0.6062
   48MOL   H35435228   4.412   5.411   5.098  0.3388  1.6979 -0.2761
   48MOL   H35535229   4.521   5.525   5.364  0.2409 -0.6672 -0.2186
   48MOL   H35635230   4.537   5.592   5.207 -0.3221  1.9164  1.2997
   48MOL   H35735231   4.287   5.575   5.373 -0.2196  1.3130  0.1553
   48MOL   H35835232   4.272   5.638   5.207 -2.0055 -1.9720  1.4492
   48MOL   H35935233   4.439   5.822   5.287 -0.5407  1.2731  0.0417
   48MOL   H36035234   4.443   5.743   5.441  0.7518  1.9138 -0.0541
   48MOL   H36135235   4.171   5.773   5.432 -0.5686  0.3708 -1.8496
   48MOL   H36235236   4.218   5.869   5.299  1.7458 -1.6822 -0.5265
   48MOL   H36335237   4.325   6.044   5.425 -1.0259 -0.3923 -0.3632
   48MOL   H36435238   4.284   5.971   5.577  0.7630  0.3926  0.0188
   48MOL   H36535239   4.054   5.982   5.532  0.1832 -0.6387 -0.1286
   48MOL   H36635240   4.088   6.076   5.387 -0.3538  0.6851  1.3330
   48MOL   H36735241   4.217   6.244   5.517  1.8252 -0.2985  1.3244
   48MOL   H36835242   4.196   6.146   5.664 -1.4523 -0.4956 -0.0146
   48MOL   H36935243   4.037   6.323   5.697  2.7983 -1.1189 -0.0101
   48MOL   H37035244   3.949   6.181   5.672 -0.5019  0.5650  0.4878
   48MOL   H37135245   3.992   6.316   5.416 -0.0796  0.2962  0.3755
   48MOL   C37235246   3.811   6.295   5.492 -0.2068 -0.3876 -0.6252
   48MOL   O37335247   3.736   6.257   5.584 -0.3047 -0.8823  0.1979
   48MOL   C37435248   3.742   6.336   5.358 -0.5189  0.0177 -0.8968
   48MOL   C37535249   3.591   6.372   5.365  0.5134  0.1848  0.7113
   48MOL   C37635250   3.558   6.443   5.237 -0.5099 -0.3324 -0.0081
   48MOL   C37735251   3.417   6.508   5.240 -0.6394 -0.0190 -0.9676
   48MOL   C37835252   3.351   6.537   5.102 -0.2820  1.2722  0.5284
   48MOL   C37935253   3.403   6.673   5.049  0.2103  0.2953 -0.4609
   48MOL   C38035254   3.337   6.720   4.917  0.0680 -0.5595 -0.2118
   48MOL   C38135255   3.430   6.821   4.853  0.0726  0.0978  0.0047
   48MOL   C38235256   3.454   6.945   4.937 -0.0568  0.5427  0.2641
   48MOL   C38335257   3.522   7.057   4.854 -0.2182  0.3347 -0.1474
   48MOL   C38435258   3.581   7.167   4.938  0.1651 -0.2804 -0.2372
   48MOL   N38535259   3.618   7.282   4.864  0.5245  0.2221 -0.1558
   48MOL   H38635260   3.765   6.249   5.296 -2.3883 -0.0087 -1.5854
   48MOL   H38735261   3.801   6.416   5.314 -0.6904  0.6384 -0.0016
   48MOL   H38835262   3.531   6.281   5.374  1.3321 -0.4463 -0.1076
   48MOL   H38935263   3.565   6.419   5.460  3.5163 -0.5010  1.9193
   48MOL   H39035264   3.571   6.380   5.149 -1.7265 -0.9916  0.2736
   48MOL   H39135265   3.633   6.520   5.219 -0.5626 -0.5241 -1.0899
   48MOL   H39235266   3.349   6.437   5.288  0.9825 -0.5240  0.6342
   48MOL   H39335267   3.419   6.596   5.304 -0.8525 -0.2450 -0.6491
   48MOL   H39435268   3.242   6.536   5.106 -0.2814  0.0291  0.3807
   48MOL   H39535269   3.377   6.451   5.041 -1.5638  0.0373  1.6794
   48MOL   H39635270   3.509   6.654   5.029  0.1716  0.6584 -1.0032
   48MOL   H39735271   3.401   6.748   5.128 -2.2950  0.2662 -0.4763
   48MOL   H39835272   3.239   6.767   4.928 -0.4080 -1.7876  0.9934
   48MOL   H39935273   3.316   6.642   4.844  0.5454  0.1517 -1.1216
   48MOL   H40035274   3.387   6.845   4.756  0.0396  3.2721  0.7711
   48MOL   H40135275   3.525   6.769   4.842 -1.3228 -2.7542  0.9633
   48MOL   H40235276   3.522   6.928   5.021 -0.2336  2.5666  0.8588
   48MOL   H40335277   3.358   6.982   4.972 -0.8592 -1.1582 -0.1269
   48MOL   H40435278   3.442   7.102   4.795  2.0531  3.3738 -1.0480
   48MOL   H40535279   3.582   7.006   4.779 -1.4459 -0.8643 -0.3302
   48MOL   H40635280   3.674   7.126   4.978  1.2910  0.3898 -2.1200
   48MOL   H40735281   3.529   7.195   5.029 -0.1448  1.7559 -1.0212
   48MOL   H40835282   3.569   7.368   4.884 -0.8932 -0.6625  0.2834
   48MOL   C40935283   3.721   7.293   4.776  0.5376  0.4572 -0.3049
   48MOL   O41035284   3.804   7.201   4.763  0.9059  0.4954 -0.2575
   48MOL   C41135285   3.734   7.427   4.701 -0.7062 -0.5167  0.9673
   48MOL   C41235286   3.636   7.446   4.585 -0.2065 -0.3245  0.6972
   48MOL   C41335287   3.646   7.350   4.470 -0.1318 -0.6143  0.5935
   48MOL   C41435288   3.563   7.225   4.484  0.6588 -0.3427  0.2951
   48MOL   C41535289   3.585   7.145   4.352 -0.1785  0.3023 -0.6046
   48MOL   C41635290   3.521   7.011   4.363  0.6994  0.3351  0.1732
   48MOL   C41735291   3.599   6.917   4.459 -0.2806  0.0855 -0.5273
   48MOL   C41835292   3.668   6.819   4.378 -0.1615  0.1169  0.5700
   48MOL   C41935293   3.747   6.724   4.462 -0.6954  0.3037 -0.5910
   48MOL   C42035294   3.818   6.612   4.386 -0.0253  0.0622  0.5741
   48MOL   C42135295   3.932   6.540   4.461  0.6186 -0.2083  0.6315
   48MOL   N42235296   4.044   6.635   4.473  0.5899  0.3036 -0.5249
   48MOL   H42335297   3.835   7.427   4.659 -0.6541  0.7028  1.0711
   48MOL   H42435298   3.732   7.507   4.775 -1.7230 -2.1008  2.6970
   48MOL   H42535299   3.535   7.445   4.627 -0.6306 -0.8214 -0.3350
   48MOL   H42635300   3.638   7.550   4.553 -1.1112 -0.9668 -1.5129
   48MOL   H42735301   3.748   7.327   4.440 -0.2398 -2.2584  1.3999
   48MOL   H42835302   3.609   7.402   4.382  2.0492  1.5704  0.9260
   48MOL   H42935303   3.605   7.168   4.566  2.3029  0.5291  0.0865
   48MOL   H43035304   3.460   7.253   4.502  0.5572  0.2238 -1.1128
   48MOL   H43135305   3.689   7.139   4.319  0.1618 -2.7884  0.8486
   48MOL   H43235306   3.536   7.193   4.267  0.7073  2.2705 -0.0353
   48MOL   H43335307   3.497   6.961   4.269 -0.4552 -1.5764  1.4310
   48MOL   H43435308   3.423   7.023   4.409  1.2268  0.3452  1.3009
   48MOL   H43535309   3.523   6.867   4.518  1.1586 -0.5394  0.8101
   48MOL   H43635310   3.669   6.966   4.527  0.7402 -0.6962 -1.0047
   48MOL   H43735311   3.739   6.850   4.301 -1.0604 -1.5217 -0.9523
   48MOL   H43835312   3.593   6.761   4.324 -2.0876  3.1775 -0.1284
   48MOL   H43935313   3.681   6.683   4.539 -0.7438  0.2285 -0.6741
   48MOL   H44035314   3.824   6.777   4.518 -0.9427  0.0409 -0.0005
   48MOL   H44135315   3.865   6.649   4.295  0.2306 -0.0086  0.6796
   48MOL   H44235316   3.741   6.540   4.359 -1.1580  0.5833  2.2897
   48MOL   H44335317   3.955   6.443   4.416  1.4174 -0.2172  1.0465
   48MOL   H44435318   3.899   6.506   4.559  2.6512 -2.5710  0.5702
   48MOL   H44535319   4.064   6.670   4.565 -1.4178 -1.1913  0.5254
   48MOL   C44635320   4.141   6.650   4.381  0.3191  0.5236  0.1688
   48MOL   O44735321   4.237   6.720   4.402 -0.0889 -0.1831  0.5423
   48MOL   C44835322   4.125   6.586   4.250 -0.0358  0.9710 -0.2533
   48MOL   C44935323   4.256   6.606   4.160 -0.0490 -0.3594 -0.4423
   48MOL   C45035324   4.253   6.550   4.014 -0.1120  0.0547  0.1092
   48MOL   C45135325   4.231   6.401   3.994  0.3188 -0.8037  0.1577
   48MOL   C45235326   4.350   6.313   4.037 -0.2774  0.8470  0.1984
   48MOL   C45335327   4.340   6.161   4.008  0.6071 -0.0730  0.2858
   48MOL   C45435328   4.457   6.085   4.070  0.4597 -1.0359  0.2571
   48MOL   C45535329   4.427   5.932   4.059 -0.3625 -0.0923 -0.3575
   48MOL   C45635330   4.545   5.850   4.094  0.1119  0.0593  0.5642
   48MOL   C45735331   4.593   5.861   4.242  0.1475  0.0939  0.2143
   48MOL   C45835332   4.703   5.762   4.276 -0.4249  0.3937 -0.1696
   48MOL   N45935333   4.751   5.781   4.406  0.5599  0.1501  0.6923
   48MOL   H46035334   4.043   6.629   4.192  0.3540  1.2216 -0.6230
   48MOL   H46135335   4.108   6.479   4.264 -0.5205  1.2087  0.9738
   48MOL   H46235336   4.270   6.714   4.148  2.5147 -0.9126 -3.1088
   48MOL   H46335337   4.340   6.560   4.211 -1.1923 -0.5450  1.3088
   48MOL   H46435338   4.350   6.571   3.969  0.2229 -1.7470 -0.0711
   48MOL   H46535339   4.184   6.613   3.959  0.0188 -0.3123 -0.4815
   48MOL   H46635340   4.142   6.369   4.047  0.3998 -0.9391  0.2123
   48MOL   H46735341   4.218   6.379   3.888  0.5180 -1.4046  0.2552
   48MOL   H46835342   4.374   6.323   4.143  2.9992 -0.7662 -0.3132
   48MOL   H46935343   4.438   6.353   3.986  0.6279 -1.1266  0.1540
   48MOL   H47035344   4.322   6.144   3.902 -0.1686 -2.9592  0.8412
   48MOL   H47135345   4.258   6.119   4.066  0.4302 -1.3711 -0.8753
   48MOL   H47235346   4.462   6.121   4.173  1.5424 -1.4148  0.3446
   48MOL   H47335347   4.552   6.117   4.026  0.0590 -0.0278  0.1313
   48MOL   H47435348   4.399   5.913   3.955 -0.1035  3.1961 -1.1076
   48MOL   H47535349   4.339   5.901   4.116 -0.1983 -1.4394 -0.8281
   48MOL   H47635350   4.624   5.887   4.027 -1.9575  0.0368 -1.9564
   48MOL   H47735351   4.519   5.747   4.073 -0.0021  0.4314 -1.2532
   48MOL   H47835352   4.510   5.842   4.310 -0.4416 -0.0936 -0.5596
   48MOL   H47935353   4.616   5.966   4.261 -0.1596  0.1685  0.1712
   48MOL   H48035354   4.784   5.773   4.203  0.3935 -1.0710  0.5030
   48MOL   H48135355   4.659   5.662   4.275  1.3109 -0.4384  1.8215
   48MOL   H48235356   4.696   5.848   4.457 -0.1977 -0.5181  0.7555
   48MOL   C48335357   4.846   5.708   4.471 -0.1229  0.3358 -0.1790
   48MOL   O48435358   4.887   5.746   4.577  0.3209  0.3985 -0.7335
   48MOL   C48535359   4.901   5.579   4.409 -0.0380  0.1806  0.5318
   48MOL   C48635360   5.052   5.585   4.379 -0.7136 -0.5038 -0.4559
   48MOL   C48735361   5.096   5.684   4.268 -0.2266 -0.0619  0.8642
   48MOL   C48835362   5.049   5.652   4.119  0.7614  0.3054  0.2392
   48MOL   C48935363   5.083   5.766   4.017 -0.0220  0.3834 -1.4110
   48MOL   C49035364   5.047   5.728   3.869  0.1045 -0.6209  0.1335
   48MOL   C49135365   5.120   5.819   3.768 -0.1750 -0.5284  0.1779
   48MOL   C49235366   5.230   5.747   3.685  0.0243 -0.9448 -0.1243
   48MOL   C49335367   5.289   5.829   3.566  0.0126 -0.0977  0.8558
   48MOL   C49435368   5.380   5.742   3.477  0.0119  0.1903  0.8246
   48MOL   C49535369   5.477   5.819   3.382  0.2120  0.2148 -0.1595
   48MOL   N49635370   5.567   5.726   3.321 -0.0974 -0.8991 -0.6723
   48MOL   H49735371   4.842   5.556   4.320 -1.2510  1.6257  0.9484
   48MOL   H49835372   4.875   5.503   4.482  0.5072 -1.4256 -0.9134
   48MOL   H49935373   5.104   5.600   4.474  1.0575  1.9545 -1.7267
   48MOL   H50035374   5.064   5.483   4.343  1.5374 -1.0146  1.6269
   48MOL   H50135375   5.201   5.711   4.275 -0.6577  1.7591  0.5591
   48MOL   H50235376   5.043   5.774   4.296  1.9082  1.2158  0.8709
   48MOL   H50335377   5.090   5.558   4.084  0.7320  0.0487  0.8852
   48MOL   H50435378   4.942   5.629   4.117  0.9547 -0.7258  1.0665
   48MOL   H50535379   5.190   5.786   4.016 -0.0860  0.9301  0.3750
   48MOL   H50635380   5.054   5.862   4.059  2.2430  0.5194 -0.0831
   48MOL   H50735381   4.941   5.724   3.846 -0.4645  0.5397  2.3576
   48MOL   H50835382   5.082   5.626   3.859  3.3829  0.3800  0.7033
   48MOL   H50935383   5.159   5.910   3.812  0.1130 -1.2123  1.3586
   48MOL   H51035384   5.046   5.867   3.704  0.5895 -0.1883 -0.4606
   48MOL   H51135385   5.186   5.658   3.640 -0.8275 -1.2811  1.3437
   48MOL   H51235386   5.300   5.706   3.758  1.4344  0.9981 -0.3392
   48MOL   H51335387   5.353   5.912   3.597 -0.2499  0.5959 -0.3980
   48MOL   H51435388   5.213   5.885   3.511 -1.2370 -2.8740 -0.3480
   48MOL   H51535389   5.323   5.663   3.426  1.3887 -0.3394  0.0791
   48MOL   H51635390   5.435   5.687   3.553 -1.6218 -1.3459  0.9299
   48MOL   H51735391   5.537   5.889   3.440  0.7552 -1.0137  0.8022
   48MOL   H51835392   5.418   5.872   3.308  0.4328 -0.0672 -0.5399
   48MOL   H51935393   5.560   5.632   3.357  0.4911 -0.6030  0.2405
   48MOL   C52035394   5.663   5.763   3.240 -0.7563  0.0278  0.2822
   48MOL   O52135395   5.667   5.874   3.179 -0.1422  0.4879 -0.1145
   48MOL   C52235396   5.774   5.661   3.236 -0.0658  0.2025 -0.0380
   48MOL   C52335397   5.907   5.719   3.189  0.3659  0.3593 -0.5511
   48MOL   C52435398   5.966   5.811   3.298 -0.1549 -0.1915  0.0335
   48MOL   C52535399   6.119   5.812   3.286  0.1085 -0.6194  0.2324
   48MOL   C52635400   6.182   5.880   3.163  0.0530  0.0042  0.2343
   48MOL   C52735401   6.336   5.879   3.166 -0.8224  0.4686 -0.3157
   48MOL   C52835402   6.411   5.945   3.046  0.7022 -0.0763  0.2286
   48MOL   C52935403   6.566   5.955   3.070 -0.3427 -0.5300 -0.0212
   48MOL   C53035404   6.631   6.019   2.947 -0.8964  0.1645 -0.1176
   48MOL   C53135405   6.782   6.033   2.957 -0.6381  0.4658 -0.6383
   48MOL   C53235406   6.841   6.096   2.830  0.4411  0.1346 -0.2434
   48MOL   N53335407   6.987   6.105   2.828 -0.0607 -0.9352 -0.1396
   48MOL   H53435408   5.752   5.584   3.162 -1.4140 -0.4027  0.9631
   48MOL   H53535409   5.787   5.608   3.331 -1.5515  1.7797  1.0829
   48MOL   H53635410   5.973   5.634   3.178 -0.6201 -0.5892  0.5630
   48MOL   H53735411   5.899   5.765   3.091 -0.9076 -1.7638 -1.4711
   48MOL   H53835412   5.933   5.764   3.391 -1.8932  0.1569 -0.3879
   48MOL   H53935413   5.917   5.908   3.291  2.1071  0.9912  0.3455
   48MOL   H54035414   6.164   5.859   3.373  1.9107 -1.0728 -0.4297
   48MOL   H54135415   6.162   5.715   3.311 -2.3245 -1.3911  1.6060
   48MOL   H54235416   6.143   5.980   3.146  0.9119  0.4466  0.8355
   48MOL   H54335417   6.157   5.817   3.077  1.7535 -2.0733  1.2302
   48MOL   H54435418   6.365   5.775   3.180  0.1660  0.6800 -0.7441
   48MOL   H54535419   6.358   5.934   3.258 -0.6418  3.3433 -2.0146
   48MOL   H54635420   6.360   6.039   3.025 -0.6732 -0.7391  0.5779
   48MOL   H54735421   6.388   5.883   2.959 -1.3562 -1.1723  1.5296
   48MOL   H54835422   6.611   5.858   3.091  0.6842 -0.1239 -0.3054
   48MOL   H54935423   6.573   6.018   3.158  0.7003  1.2533 -1.3551
   48MOL   H55035424   6.589   6.119   2.934  0.8959  0.6803 -2.2459
   48MOL   H55135425   6.608   5.969   2.853 -2.4644 -0.1808  0.4496
   48MOL   H55235426   6.834   5.943   2.989 -1.3787 -0.5933 -2.3459
   48MOL   H55335427   6.806   6.097   3.042 -1.0496  1.5516 -1.3237
   48MOL   H55435428   6.788   6.189   2.809 -1.8129 -1.1108 -0.1787
   48MOL   H55535429   6.817   6.043   2.739 -0.1606  0.2877 -0.1774
   48MOL   H55635430   7.039   6.034   2.878  0.6857 -0.2542  0.0546
   48MOL   C55735431   7.061   6.197   2.758 -0.1848  0.3480 -0.9783
   48MOL   O55835432   7.015   6.289   2.700 -0.5893 -0.5973 -0.2822
   48MOL   C55935433   7.213   6.173   2.769 -0.3556 -0.1621  0.4007
   48MOL   C56035434   7.307   6.283   2.721  0.7529  0.6066 -0.0355
   48MOL   C56135435   7.461   6.259   2.754  0.3155  0.2181 -1.2694
   48MOL   C56235436   7.549   6.377   2.709  0.2513  0.1727  0.2967
   48MOL   C56335437   0.008   6.356   2.715 -0.1177  0.2792  0.0738
   48MOL   C56435438   0.055   6.364   2.856 -0.1251 -0.1099  0.4143
   48MOL   C56535439   0.204   6.373   2.876 -0.0912  0.6752  0.6002
   48MOL   C56635440   0.252   6.230   2.893  0.2126 -0.1173 -0.4888
   48MOL   C56735441   0.401   6.220   2.887  0.4248 -0.4776 -0.1521
   48MOL   C56835442   0.451   6.080   2.893 -0.3323  1.0130  0.1223
   48MOL   C56935443   0.611   6.085   2.874  0.2934  0.4731  0.7893
   48MOL   N57035444   0.671   5.960   2.902 -1.0439  0.1381  0.3664
   48MOL   H57135445   7.237   6.080   2.717  0.8575  0.4133 -0.0926
   48MOL   H57235446   7.237   6.154   2.873  4.0140  0.2671 -0.4214
   48MOL   H57335447   7.314   6.289   2.612 -0.3078 -0.8344 -0.1906
   48MOL   H57435448   7.272   6.374   2.770  0.8870  0.2700  0.6826
   48MOL   H57535449   7.503   6.172   2.704  0.7506  0.3127 -1.0728
   48MOL   H57635450   7.480   6.240   2.860 -0.0935  2.0866 -0.8368
   48MOL   H57735451   7.524   6.389   2.604  1.3509 -2.2718 -0.2930
   48MOL   H57835452   7.517   6.468   2.760 -0.3454  0.4583 -0.5665
   48MOL   H57935453   0.053   6.441   2.663  0.7812 -0.5173 -0.4714
   48MOL   H58035454   0.038   6.260   2.673 -2.7198 -0.2972 -0.5177
   48MOL   H58135455   0.010   6.279   2.908 -2.2221  0.8272  0.1787
   48MOL   H58235456   0.008   6.450   2.903  1.1661  1.1233 -0.5489
   48MOL   H58335457   0.229   6.434   2.964 -1.4193  2.0669  0.0417
   48MOL   H58435458   0.258   6.405   2.787 -1.5704 -0.8139 -0.8719
   48MOL   H58535459   0.208   6.167   2.815 -1.8296  0.6250  0.0206
   48MOL   H58635460   0.226   6.189   2.991 -0.4229  0.7715 -0.2840
   48MOL   H58735461   0.452   6.269   2.970 -0.3918 -1.0889  0.7151
   48MOL   H58835462   0.439   6.283   2.806  1.7255  0.2898  1.0360
   48MOL   H58935463   0.405   6.013   2.821 -2.2454  1.2376  1.1125
   48MOL   H59035464   0.433   6.032   2.989 -1.2062 -0.4300 -0.7510
   48MOL   H59135465   0.650   6.154   2.949  2.1376  1.4809 -1.0538
   48MOL   H59235466   0.646   6.111   2.774  1.8362  1.3833  1.5509
   48MOL   H59335467   0.709   5.954   2.995 -0.6059 -0.7423  0.1401
   48MOL   C59435468   0.675   5.847   2.829  0.1625  0.2944  0.3258
   48MOL   O59535469   0.610   5.849   2.724 -0.3619  0.1691  0.2750
   48MOL   C59635470   0.760   5.729   2.878 -0.4577  0.2084  0.7456
   48MOL   C59735471   0.699   5.652   2.997 -0.1704 -0.1743 -0.0099
   48MOL   C59835472   0.727   5.497   3.005 -0.0953  0.7243 -0.0221
   48MOL   C59935473   0.633   5.436   3.108  0.1184 -0.1258  1.1014
   48MOL   C60035474   0.595   5.289   3.089 -0.3242 -0.5473  0.1301
   48MOL   C60135475   0.706   5.187   3.087 -0.3841  0.2355  0.2501
   48MOL   C60235476   0.766   5.142   3.220  0.4888 -0.6193  0.3695
   48MOL   C60335477   0.892   5.064   3.192  0.6096  0.5185  0.1118
   48MOL   C60435478   0.958   5.002   3.313 -0.4529 -0.4636 -0.4793
   48MOL   C60535479   1.099   4.941   3.274 -0.2292 -0.0750  0.1110
   48MOL   C60635480   1.103   4.798   3.213 -0.8169 -0.0582  0.0938
   48MOL   N60735481   1.237   4.734   3.230 -0.1814 -0.4383  0.6170
   48MOL   H60835482   0.862   5.766   2.893  0.9085 -2.8912 -0.2966
   48MOL   H60935483   0.782   5.669   2.790  0.0621  1.5754 -0.0709
   48MOL   H61035484   0.718   5.708   3.089  1.2665  0.4105 -0.6501
   48MOL   H61135485   0.592   5.661   2.983 -0.1335 -1.0353 -0.9046
   48MOL   H61235486   0.833   5.477   3.017 -0.3591 -0.5788  0.1987
   48MOL   H61335487   0.717   5.454   2.905  2.9892  2.8941 -1.3411
   48MOL   H61435488   0.672   5.456   3.208  1.0496  0.5071  0.6175
   48MOL   H61535489   0.540   5.493   3.104 -0.5259 -1.2222  0.2063
   48MOL   H61635490   0.553   5.282   2.989 -0.2396 -1.6558  0.1709
   48MOL   H61735491   0.520   5.271   3.165 -1.9386  1.4231 -0.9511
   48MOL   H61835492   0.783   5.233   3.025 -0.3026 -0.1651  0.0527
   48MOL   H61935493   0.669   5.100   3.033 -2.4966  1.6864 -0.6674
   48MOL   H62035494   0.690   5.078   3.265  0.9375 -2.2180 -1.0878
   48MOL   H62135495   0.782   5.224   3.290  1.6809  0.2777 -0.9521
   48MOL   H62235496   0.970   5.121   3.143  1.9321  0.6342  2.2857
   48MOL   H62335497   0.858   4.978   3.135 -0.6296  0.4584  0.9029
   48MOL   H62435498   0.894   4.923   3.352  1.0892 -1.4062  0.1951
   48MOL   H62535499   0.975   5.074   3.393  2.2007 -1.4979 -0.0635
   48MOL   H62635500   1.158   4.956   3.364  0.2114  0.9166 -0.3261
   48MOL   H62735501   1.145   5.002   3.196 -2.1782  1.5227  0.1685
   48MOL   H62835502   1.075   4.807   3.108 -0.7147  3.6678  0.3275
   48MOL   H62935503   1.032   4.731   3.262  0.2957 -0.1644  1.5913
   48MOL   H63035504   1.300   4.727   3.152 -1.9912 -1.5393 -0.7774
   48MOL   C63135505   1.280   4.676   3.341  0.6097 -0.0392 -0.7236
   48MOL   O63235506   1.211   4.648   3.438  0.0440  0.6804 -0.0041
   48MOL   C63335507   1.428   4.642   3.334 -0.3968  0.6243  0.2015
   48MOL   C63435508   1.501   4.694   3.455 -0.0454 -0.6417  0.0498
   48MOL   C63535509   1.528   4.847   3.462 -0.5778  0.1911  1.2450
   48MOL   C63635510   1.573   4.894   3.599 -0.0948  0.7486 -0.1740
   48MOL   C63735511   1.635   5.034   3.607  0.7915  0.3690 -0.2812
   48MOL   C63835512   1.667   5.082   3.748 -0.2275 -0.3298  0.6569
   48MOL   C63935513   1.748   5.219   3.746 -0.2810 -0.2074  0.1180
   48MOL   C64035514   1.722   5.297   3.874  0.8603  0.4805  0.4829
   48MOL   C64135515   1.769   5.221   4.002  0.1999 -0.0042  0.1294
   48MOL   C64235516   1.811   5.321   4.112 -1.2033  1.1537 -0.2149
   48MOL   C64335517   1.965   5.349   4.090  0.3276 -0.6636  0.0005
   48MOL   N64435518   2.007   5.441   4.196  0.5585 -0.1607 -0.1604
   48MOL   H64535519   1.476   4.667   3.239 -0.5207  0.9927  0.2337
   48MOL   H64635520   1.422   4.533   3.341 -2.6259  0.6680 -0.5852
   48MOL   H64735521   1.457   4.652   3.545 -0.2523 -0.8748 -0.1598
   48MOL   H64835522   1.596   4.641   3.457  0.5824  0.0790 -4.7127
   48MOL   H64935523   1.437   4.904   3.441 -0.3251  0.2620  0.3348
   48MOL   H65035524   1.601   4.875   3.386  1.0764  0.1148  2.7641
   48MOL   H65135525   1.483   4.881   3.659 -1.5805  0.5717 -2.3782
   48MOL   H65235526   1.642   4.822   3.643 -0.6730  0.4809  0.2910
   48MOL   H65335527   1.561   5.099   3.559 -0.3657 -1.4435 -0.9858
   48MOL   H65435528   1.723   5.023   3.544  2.1462 -0.4129  1.7251
   48MOL   H65535529   1.714   5.013   3.817  0.1217  1.0498  1.8306
   48MOL   H65635530   1.570   5.096   3.795 -1.5063 -0.4341 -1.8284
   48MOL   H65735531   1.711   5.276   3.660 -2.8804  0.0369  1.3538
   48MOL   H65835532   1.855   5.201   3.736 -0.1430  0.7846 -0.3625
   48MOL   H65935533   1.617   5.327   3.879 -0.0035 -2.2164 -0.1315
   48MOL   H66035534   1.782   5.387   3.864  1.1339 -0.0301 -3.2255
   48MOL   H66135535   1.857   5.162   3.981 -0.3027 -0.7206  0.0105
   48MOL   H66235536   1.676   5.169   4.027  0.0524  1.3833  2.7090
   48MOL   H66335537   1.783   5.280   4.209  1.3538 -0.2900 -0.0605
   48MOL   H66435538   1.755   5.415   4.105 -1.0496  1.1942 -0.9862
   48MOL   H66535539   1.978   5.392   3.991 -2.0653  0.3423  0.0898
   48MOL   H66635540   2.024   5.258   4.095  1.0346 -0.1017  2.3129
   48MOL   H66735541   1.984   5.421   4.292 -0.4463 -2.4540 -0.8429
   48MOL   C66835542   2.043   5.565   4.183 -0.4167  0.7287 -0.1817
   48MOL   O66935543   2.088   5.606   4.079 -0.5361  0.0019 -0.6134
   48MOL   C67035544   2.056   5.641   4.317 -0.9066  0.2826  0.0522
   48MOL   C67135545   2.175   5.594   4.403  0.6722 -0.4790  0.0906
   48MOL   C67235546   2.193   5.674   4.529 -0.0083 -0.2528  0.2940
   48MOL   C67335547   2.239   5.818   4.505  0.0494 -0.2180  0.2793
   48MOL   C67435548   2.228   5.911   4.626  0.0638  0.2260 -0.5245
   48MOL   C67535549   2.311   6.040   4.615 -0.9287  0.3674 -0.3539
   48MOL   C67635550   2.249   6.157   4.551 -0.2311  0.1565 -0.2462
   48MOL   C67735551   2.339   6.281   4.565  0.5144  0.5536 -0.2578
   48MOL   C67835552   2.279   6.408   4.500 -0.3330 -0.5321  0.5335
   48MOL   C67935553   2.235   6.391   4.350 -0.8669  0.4209 -0.5415
   48MOL   C68035554   2.340   6.387   4.238  0.0798  0.0382  0.5630
   48MOL   N68135555   2.410   6.263   4.250  0.2929 -0.2959  0.4475
   48MOL   H68235556   1.961   5.629   4.368 -1.8820  1.5864 -1.4066
   48MOL   H68335557   2.061   5.749   4.301 -2.8739  1.0921  4.2584
   48MOL   H68435558   2.161   5.490   4.433  0.8783 -0.1289  1.4433
   48MOL   H68535559   2.263   5.594   4.339 -0.0925 -1.7497 -0.9910
   48MOL   H68635560   2.271   5.633   4.593 -0.0548 -0.4057  0.2528
   48MOL   H68735561   2.105   5.674   4.593 -0.5953  0.3097 -0.5030
   48MOL   H68835562   2.344   5.811   4.476  0.2025 -0.6363  0.9277
   48MOL   H68935563   2.183   5.864   4.424 -1.2997  0.8413  1.8139
   48MOL   H69035564   2.280   5.848   4.698 -0.2995 -1.2394 -1.5305
   48MOL   H69135565   2.121   5.924   4.644  0.3722 -0.5993  2.0828
   48MOL   H69235566   2.401   6.014   4.559 -0.4366 -1.3805  1.1683
   48MOL   H69335567   2.343   6.060   4.717 -0.1908  0.5838 -0.6291
   48MOL   H69435568   2.154   6.183   4.598 -0.9301 -2.4391 -0.1183
   48MOL   H69535569   2.230   6.136   4.446 -0.1130 -0.7904 -0.0795
   48MOL   H69635570   2.440   6.264   4.527  0.1447 -1.2673 -0.4432
   48MOL   H69735571   2.355   6.305   4.670  0.4063 -1.3710  0.2043
   48MOL   H69835572   2.349   6.491   4.509 -0.5422 -0.4741  1.7785
   48MOL   H69935573   2.197   6.436   4.566 -0.5433  0.1550 -0.0262
   48MOL   H70035574   2.159   6.459   4.313 -3.6145 -3.2242 -1.9533
   48MOL   H70135575   2.188   6.292   4.346 -1.0443  0.5335 -1.2870
   48MOL   H70235576   2.410   6.469   4.254 -0.7167  1.3115 -2.1414
   48MOL   H70335577   2.304   6.399   4.136 -1.3039 -2.3356  0.7417
   48MOL   H70435578   2.499   6.284   4.293 -0.7587  1.3791  1.8546
   48MOL   C70535579   2.383   6.151   4.187 -0.2124 -0.5607 -0.0783
   48MOL   O70635580   2.287   6.138   4.116  0.8739 -0.4934 -0.1434
   48MOL   C70735581   2.494   6.045   4.187 -0.5689  0.0317  0.2064
   48MOL   C70835582   2.573   6.055   4.059 -0.0225 -0.2236  0.1214
   48MOL   C70935583   2.660   6.182   4.047 -0.9425  0.9093 -0.3475
   48MOL   C71035584   2.771   6.162   3.939 -0.3659 -0.2025  0.5856
   48MOL   C71135585   2.723   6.127   3.796  0.2262  0.1882 -0.2087
   48MOL   C71235586   2.649   6.246   3.725  0.5321 -1.4623 -0.2769
   48MOL   C71335587   2.498   6.254   3.752  0.1643 -0.3864 -0.1112
   48MOL   C71435588   2.441   6.392   3.731  0.0573  0.0882 -0.6062
   48MOL   C71535589   2.437   6.475   3.856 -0.0971  0.0319  0.1479
   48MOL   C71635590   2.350   6.604   3.846  0.3708  0.1600  0.2368
   48MOL   C71735591   2.357   6.697   3.966  0.7387 -0.2699 -0.0194
   48MOL   N71835592   2.467   6.781   3.942  0.1082 -0.5124 -0.2630
   48MOL   H71935593   2.447   5.947   4.201 -2.0023  0.6288 -0.2930
   48MOL   H72035594   2.569   6.057   4.265  0.4456  0.4078 -0.8112
   48MOL   H72135595   2.618   5.957   4.042 -0.7015 -0.7322  1.2699
   48MOL   H72235596   2.500   6.058   3.978  0.2309  1.5708 -0.0610
   48MOL   H72335597   2.718   6.198   4.138 -2.9027  0.1971  1.0449
   48MOL   H72435598   2.602   6.272   4.026 -1.6437  0.0145 -2.3457
   48MOL   H72535599   2.835   6.249   3.931  0.4115 -0.6587  1.5929
   48MOL   H72635600   2.846   6.090   3.974  0.0374 -0.0729 -0.0066
   48MOL   H72735601   2.672   6.031   3.803 -0.3119  0.5298  0.6854
   48MOL   H72835602   2.813   6.102   3.741  0.0604  0.6115 -0.6703
   48MOL   H72935603   2.667   6.240   3.618  0.5681 -4.0274 -0.1707
   48MOL   H73035604   2.689   6.340   3.763  2.5078 -2.9363  1.3950
   48MOL   H73135605   2.465   6.208   3.845  0.1993  1.4155  0.8116
   48MOL   H73235606   2.450   6.192   3.676  0.0564 -0.9728  0.4247
   48MOL   H73335607   2.337   6.373   3.702  0.0122 -0.9844  0.2104
   48MOL   H73435608   2.491   6.454   3.657 -0.7379 -0.1905 -1.4023
   48MOL   H73535609   2.539   6.494   3.889 -0.5992  1.1125  1.1300
   48MOL   H73635610   2.398   6.419   3.941 -0.9256 -0.4956 -0.5603
   48MOL   H73735611   2.248   6.567   3.854  0.2063  1.0597  2.5246
   48MOL   H73835612   2.358   6.654   3.749 -3.2202 -0.2568 -0.3561
   48MOL   H73935613   2.370   6.635   4.055 -0.8072  0.7019  0.9039
   48MOL   H74035614   2.272   6.763   3.987  1.6830  0.7078  0.8199
   48MOL   H74135615   2.485   6.833   4.026 -1.8288  1.5625 -1.0755
   48MOL   H74235616   2.436   6.854   3.878  0.0059  0.1120  0.4937
   49MOL     C135617   0.478   2.300   3.583  0.3906 -0.4133  0.2699
   49MOL     O235618   0.421   2.408   3.556 -0.1616 -0.5877  0.1705
   49MOL     C335619   0.579   2.287   3.694 -0.1471 -0.3121  0.1936
   49MOL     C435620   0.582   2.394   3.804  0.4158 -0.2068 -0.4300
   49MOL     C535621   0.664   2.522   3.771 -0.1135 -0.8723  0.0820
   49MOL     C635622   0.599   2.648   3.824 -0.1060  0.3446  1.0805
   49MOL     C735623   0.607   2.759   3.720 -0.7272  0.4051  0.2314
   49MOL     C835624   0.563   2.906   3.771  0.5303  0.1330 -0.1595
   49MOL     C935625   0.599   3.010   3.678  0.7045  0.1132 -0.5464
   49MOL    C1035626   0.543   3.143   3.731 -0.2469  0.3235  1.1457
   49MOL    C1135627   0.610   3.259   3.656 -0.4061  0.1173  0.3883
   49MOL    C1235628   0.553   3.396   3.713  0.1949  0.5443 -0.1273
   49MOL    C1335629   0.610   3.528   3.647 -0.4444  0.3774 -0.0128
   49MOL    N1435630   0.535   3.634   3.714 -0.2010  0.6752 -0.0789
   49MOL    H1535631   0.675   2.287   3.644  0.2470 -2.9874  0.8460
   49MOL    H1635632   0.567   2.187   3.736  0.6879  0.6012  2.6480
   49MOL    H1735633   0.480   2.429   3.817  0.7987  0.2142  1.5822
   49MOL    H1835634   0.609   2.350   3.900 -0.7800  0.5913  0.2774
   49MOL    H1935635   0.682   2.512   3.664 -0.1664 -0.9488  0.0800
   49MOL    H2035636   0.769   2.502   3.792  0.1074 -1.2544 -1.3559
   49MOL    H2135637   0.499   2.628   3.862 -1.2216 -1.2401 -2.5215
   49MOL    H2235638   0.653   2.674   3.915 -0.4043  1.8878  0.8217
   49MOL    H2335639   0.571   2.719   3.625  2.2515 -1.4273 -0.1713
   49MOL    H2435640   0.712   2.770   3.696  0.1532 -2.3180  2.5592
   49MOL    H2535641   0.600   2.916   3.873 -0.2458  0.6792  0.0733
   49MOL    H2635642   0.456   2.889   3.787  0.7064  1.3702  2.6044
   49MOL    H2735643   0.552   2.992   3.581 -1.2633  2.5010 -0.0733
   49MOL    H2835644   0.707   3.019   3.660  1.2795 -1.1534  1.9715
   49MOL    H2935645   0.566   3.136   3.838 -1.2359  0.6257  1.3789
   49MOL    H3035646   0.437   3.135   3.707  0.2524  2.1542 -1.7871
   49MOL    H3135647   0.589   3.251   3.549  0.3632 -1.6275  0.3390
   49MOL    H3235648   0.719   3.258   3.660 -0.4476  0.5016  1.5251
   49MOL    H3335649   0.588   3.387   3.816 -1.1370 -2.9833  0.0946
   49MOL    H3435650   0.445   3.397   3.716  0.1761  0.0213 -0.4668
   49MOL    H3535651   0.607   3.529   3.538 -0.9099  1.8697 -0.0004
   49MOL    H3635652   0.716   3.525   3.670 -0.2232 -2.4063 -1.1358
   49MOL    H3735653   0.436   3.630   3.693  0.3612 -2.6309 -2.4810
   49MOL    H3835654   0.463   2.210   3.523 -1.4257  0.8374 -1.1889
   49MOL    C3935655   0.581   3.744   3.772 -0.2382 -0.5130  0.0701
   49MOL    O4035656   0.698   3.768   3.774 -0.7993 -0.0258 -0.2552
   49MOL    C4135657   0.472   3.833   3.829 -0.1683 -0.0086 -0.1296
   49MOL    C4235658   0.504   3.861   3.984 -0.5772  0.1603  0.7293
   49MOL    C4335659   0.466   3.746   4.081  0.1510 -0.2384  0.7996
   49MOL    C4435660   0.569   3.630   4.090 -0.8451  0.9103 -0.1876
   49MOL    C4535661   0.509   3.516   4.181 -0.5827 -0.4016 -0.2039
   49MOL    C4635662   0.603   3.400   4.213  0.6847  0.0442  0.3100
   49MOL    C4735663   0.677   3.353   4.085 -0.0120  0.4768 -0.5408
   49MOL    C4835664   0.758   3.224   4.115 -0.0643  0.3105  0.7869
   49MOL    C4935665   0.885   3.227   4.033 -0.2889  0.4030  0.3180
   49MOL    C5035666   0.869   3.231   3.873  0.2034  0.3232 -0.4474
   49MOL    C5135667   1.007   3.239   3.806 -0.1128 -0.4778  0.5679
   49MOL    N5235668   0.998   3.225   3.660  0.3890  0.4016  0.4606
   49MOL    H5335669   0.373   3.792   3.807  0.2436 -2.8601  2.7917
   49MOL    H5435670   0.480   3.929   3.778 -3.6453  0.1785 -0.4653
   49MOL    H5535671   0.611   3.880   3.989 -0.7943  1.4750  0.6324
   49MOL    H5635672   0.452   3.946   4.028 -2.5358 -1.1330  1.0055
   49MOL    H5735673   0.370   3.700   4.060  0.5494 -1.6747  2.0514
   49MOL    H5835674   0.456   3.784   4.183  1.8966 -0.7832  1.1977
   49MOL    H5935675   0.589   3.587   3.992 -1.9536  0.0668 -0.0580
   49MOL    H6035676   0.661   3.671   4.131 -1.1264 -0.0189  1.4110
   49MOL    H6135677   0.408   3.498   4.145 -0.3055 -0.0791 -1.1710
   49MOL    H6235678   0.490   3.556   4.281 -1.1344  0.2549 -0.5694
   49MOL    H6335679   0.538   3.329   4.266 -0.7951  0.6885 -0.6007
   49MOL    H6435680   0.674   3.420   4.293  0.0301 -1.1448  1.2032
   49MOL    H6535681   0.749   3.431   4.060  1.7079 -0.6032  0.9618
   49MOL    H6635682   0.603   3.332   4.008 -0.0655 -0.9057 -0.1214
   49MOL    H6735683   0.705   3.132   4.090 -0.9992  0.9802  0.2916
   49MOL    H6835684   0.778   3.206   4.221 -0.8688 -0.2998  0.8414
   49MOL    H6935685   0.961   3.155   4.063  0.1880 -0.1271 -2.0808
   49MOL    H7035686   0.937   3.321   4.050 -0.9739  1.0933 -1.2750
   49MOL    H7135687   0.814   3.318   3.839 -1.0147 -0.5766 -0.8024
   49MOL    H7235688   0.816   3.140   3.844 -0.7993  0.8678 -0.3552
   49MOL    H7335689   1.069   3.157   3.842  2.6846  1.9519  1.5271
   49MOL    H7435690   1.063   3.329   3.833  0.0936  0.0141 -1.4117
   49MOL    H7535691   0.973   3.134   3.625  0.3749  0.1460  1.1421
   49MOL    C7635692   1.030   3.308   3.562 -0.1963  1.0931 -0.3682
   49MOL    O7735693   1.067   3.423   3.590 -0.4172 -0.5682  0.1327
   49MOL    C7835694   1.027   3.254   3.423 -0.2495 -0.4399 -0.2155
   49MOL    C7935695   0.889   3.283   3.361  0.3828  0.4877 -0.5655
   49MOL    C8035696   0.858   3.242   3.223 -0.1969 -0.5091 -0.1969
   49MOL    C8135697   0.716   3.259   3.168  1.1313 -0.0484  0.1186
   49MOL    C8235698   0.621   3.138   3.187  1.1311  0.7193 -0.6583
   49MOL    C8335699   0.506   3.127   3.083  0.2795 -0.6978 -0.0441
   49MOL    C8435700   0.432   2.991   3.099 -0.5822 -0.2061 -0.4476
   49MOL    C8535701   0.329   2.962   2.992 -0.0790 -0.2082  0.5564
   49MOL    C8635702   0.392   2.931   2.860 -0.0837  0.4715  0.9368
   49MOL    C8735703   0.291   2.926   2.743 -0.0994 -0.3114 -0.2653
   49MOL    C8835704   0.327   2.843   2.628 -0.2044 -0.3137 -1.3208
   49MOL    N8935705   0.446   2.904   2.564 -0.5734 -0.0047  0.4118
   49MOL    H9035706   1.047   3.146   3.424 -2.1683 -0.8046  0.5963
   49MOL    H9135707   1.111   3.306   3.377  2.5304 -0.8614  4.0873
   49MOL    H9235708   0.819   3.235   3.431  0.9120 -0.9005 -0.9799
   49MOL    H9335709   0.859   3.386   3.383 -1.9827 -0.5455  1.3833
   49MOL    H9435710   0.880   3.136   3.205 -2.1520 -0.7533 -1.3351
   49MOL    H9535711   0.914   3.302   3.152  0.8434 -1.9356 -0.6002
   49MOL    H9635712   0.674   3.354   3.202  0.0437 -0.1821 -0.8262
   49MOL    H9735713   0.720   3.264   3.059  1.4464  0.6015  0.1552
   49MOL    H9835714   0.601   3.117   3.292  1.7717  1.6805 -0.3479
   49MOL    H9935715   0.688   3.058   3.154  1.4837  0.8245 -0.1982
   49MOL   H10035716   0.541   3.150   2.982  0.0696 -1.9642 -0.4040
   49MOL   H10135717   0.429   3.200   3.110  0.8613 -0.2352  0.3934
   49MOL   H10235718   0.385   2.979   3.197  1.5471  0.0053  0.6393
   49MOL   H10335719   0.503   2.909   3.112 -2.7451 -2.1404 -0.6080
   49MOL   H10435720   0.254   3.040   2.977  0.1923 -0.3910 -2.0948
   49MOL   H10535721   0.277   2.880   3.041 -1.1801  1.0714  1.5584
   49MOL   H10635722   0.443   2.834   2.859 -1.0453 -0.0351 -0.0099
   49MOL   H10735723   0.461   3.010   2.830  0.5471 -0.1642  0.6721
   49MOL   H10835724   0.261   3.026   2.714  0.3309 -0.5652 -1.6236
   49MOL   H10935725   0.201   2.878   2.782 -0.3603  3.1100  3.6104
   49MOL   H11035726   0.245   2.840   2.556  1.0300 -1.0182 -2.7061
   49MOL   H11135727   0.345   2.743   2.667 -1.9912  0.5843  2.0107
   49MOL   H11235728   0.539   2.867   2.576 -0.1468  1.4533  1.7822
   49MOL   C11335729   0.436   3.003   2.479  0.3701 -0.4494  0.8884
   49MOL   O11435730   0.330   3.063   2.456 -0.5240  0.2745  0.2008
   49MOL   C11535731   0.562   3.040   2.394 -0.0509 -0.2865  0.2122
   49MOL   C11635732   0.583   3.183   2.372  0.6970 -0.2348 -0.4917
   49MOL   C11735733   0.639   3.280   2.477 -0.1852 -0.0775  0.2412
   49MOL   C11835734   0.608   3.425   2.427  0.3862 -0.4161 -0.2012
   49MOL   C11935735   0.709   3.522   2.491 -0.1359  0.2861 -0.1895
   49MOL   C12035736   0.737   3.516   2.644  0.7192  0.7799 -0.3257
   49MOL   C12135737   0.609   3.530   2.720  0.1365  0.6367 -0.6261
   49MOL   C12235738   0.633   3.536   2.872  0.1959 -0.2283 -0.5022
   49MOL   C12335739   0.735   3.646   2.922 -0.2820  0.1348  0.0942
   49MOL   C12435740   0.694   3.783   2.870 -0.0794 -0.2642  0.3543
   49MOL   C12535741   0.795   3.888   2.920 -0.5746 -0.6599  0.2962
   49MOL   N12635742   0.764   4.019   2.867 -0.0902 -0.5259 -0.0659
   49MOL   H12735743   0.536   2.993   2.299  2.0615  1.0713 -1.0778
   49MOL   H12835744   0.652   2.996   2.438  0.7857  1.4606  0.2736
   49MOL   H12935745   0.661   3.186   2.296 -0.2977 -2.5714 -1.6437
   49MOL   H13035746   0.500   3.236   2.325  1.4125  2.4849  1.2068
   49MOL   H13135747   0.744   3.253   2.484  0.5713  2.5399 -0.6227
   49MOL   H13235748   0.601   3.254   2.575 -0.6244 -3.3257 -0.7098
   49MOL   H13335749   0.634   3.436   2.322  0.9532  0.0183 -0.0160
   49MOL   H13435750   0.502   3.451   2.429  0.7843  1.7857 -3.5048
   49MOL   H13535751   0.689   3.627   2.467  2.3611  0.6767 -0.6696
   49MOL   H13635752   0.801   3.491   2.442 -0.5182  1.1721 -1.5012
   49MOL   H13735753   0.815   3.590   2.665 -0.2730  2.0329 -1.0098
   49MOL   H13835754   0.780   3.420   2.674 -2.7775 -1.3412 -1.7628
   49MOL   H13935755   0.535   3.451   2.705  0.2576  0.4707 -0.3607
   49MOL   H14035756   0.558   3.621   2.691 -2.6861  0.2399  2.7412
   49MOL   H14135757   0.671   3.439   2.904 -1.3934 -1.4260 -2.1780
   49MOL   H14235758   0.536   3.546   2.920  0.8693  0.8443  0.6858
   49MOL   H14335759   0.836   3.616   2.894 -1.7085 -3.3180 -1.6239
   49MOL   H14435760   0.727   3.639   3.030 -2.3677 -1.9850 -0.1661
   49MOL   H14535761   0.597   3.815   2.909  0.8438  1.6082  1.1750
   49MOL   H14635762   0.706   3.777   2.762  0.7594 -0.4230  0.4539
   49MOL   H14735763   0.898   3.864   2.892 -0.3810 -0.1271  0.5369
   49MOL   H14835764   0.801   3.905   3.027  0.5442 -1.8408  0.4330
   49MOL   H14935765   0.686   4.065   2.911  0.7239  0.7496  0.0759
   49MOL   C15035766   0.833   4.082   2.767 -1.0032  0.3915 -0.1526
   49MOL   O15135767   0.914   4.028   2.689 -0.1554 -0.6313 -0.4631
   49MOL   C15235768   0.804   4.229   2.759 -0.2381  0.2843 -0.0006
   49MOL   C15335769   0.930   4.313   2.796  0.1393 -0.7034  0.1193
   49MOL   C15435770   1.056   4.303   2.713  0.0119  0.0094 -0.4955
   49MOL   C15535771   1.180   4.392   2.764 -0.3381 -0.6328 -0.5196
   49MOL   C15635772   1.305   4.375   2.674  0.0736  0.7495  0.1793
   49MOL   C15735773   1.392   4.249   2.718  0.1128  0.2526  0.5506
   49MOL   C15835774   1.514   4.213   2.632  0.2737 -0.3480  0.5322
   49MOL   C15935775   1.613   4.127   2.715  0.1295 -0.2903 -0.3831
   49MOL   C16035776   1.738   4.092   2.637  0.5713 -0.0297  0.7395
   49MOL   C16135777   1.853   4.018   2.714 -0.1955 -0.2547 -0.1753
   49MOL   C16235778   1.809   3.926   2.823  0.0796 -0.4200 -0.4264
   49MOL   N16335779   1.728   3.815   2.774 -0.3374  0.5743 -0.1425
   49MOL   H16435780   0.726   4.259   2.828  1.0639  0.2508  1.5159
   49MOL   H16535781   0.766   4.242   2.658 -1.5504  0.3259  0.4950
   49MOL   H16635782   0.890   4.414   2.791  1.9777  0.1661  2.3498
   49MOL   H16735783   0.964   4.299   2.898 -0.3804 -0.8175  0.2796
   49MOL   H16835784   1.024   4.332   2.613  1.3410  1.2811 -0.5563
   49MOL   H16935785   1.094   4.201   2.704  0.2051 -0.0358  0.8620
   49MOL   H17035786   1.164   4.499   2.778  1.2288 -0.2266 -1.7464
   49MOL   H17135787   1.200   4.349   2.862  0.8871 -3.5397 -1.9948
   49MOL   H17235788   1.359   4.469   2.683 -1.0952  1.4929 -0.4352
   49MOL   H17335789   1.284   4.357   2.568 -1.5730  0.6414  0.5200
   49MOL   H17435790   1.336   4.157   2.729  1.4468 -0.6319  0.0551
   49MOL   H17535791   1.425   4.278   2.818  1.5118  1.7925 -0.3171
   49MOL   H17635792   1.562   4.304   2.595  1.1470 -0.2557  1.8462
   49MOL   H17735793   1.468   4.153   2.555 -0.5025 -0.1668  0.8453
   49MOL   H17835794   1.563   4.035   2.746 -1.0646  0.7339  0.7901
   49MOL   H17935795   1.644   4.177   2.807 -0.4869 -0.8008  0.1060
   49MOL   H18035796   1.780   4.180   2.589  2.7809 -0.5297  1.6837
   49MOL   H18135797   1.696   4.032   2.556  1.5585  0.7372 -0.3650
   49MOL   H18235798   1.923   4.089   2.757 -0.1810 -0.2959 -0.1305
   49MOL   H18335799   1.922   3.960   2.651  0.5534 -0.0942  0.4896
   49MOL   H18435800   1.755   3.980   2.900 -0.1930 -0.5110 -0.5513
   49MOL   H18535801   1.893   3.891   2.884  2.9331  2.0635 -2.7439
   49MOL   H18635802   1.722   3.799   2.674 -0.7190 -1.6820  0.2224
   49MOL   C18735803   1.660   3.740   2.854 -0.1434 -0.0809 -0.1828
   49MOL   O18835804   1.664   3.756   2.976 -0.6086  0.5953  0.2575
   49MOL   C18935805   1.581   3.615   2.795 -1.0558 -0.0392  0.9560
   49MOL   C19035806   1.655   3.479   2.804  0.3809  0.0003 -0.1521
   49MOL   C19135807   1.739   3.449   2.685  0.3416 -0.0647  0.6769
   49MOL   C19235808   1.802   3.309   2.678 -0.0821 -0.4613 -0.2968
   49MOL   C19335809   1.909   3.282   2.572  0.3446  0.3056  0.3496
   49MOL   C19435810   1.835   3.270   2.440  0.1225 -0.0662  0.2112
   49MOL   C19535811   1.945   3.225   2.346 -0.9880  1.1824  0.2988
   49MOL   C19635812   1.898   3.201   2.210 -0.0697 -0.5521  0.5785
   49MOL   C19735813   1.856   3.316   2.129 -0.1474 -0.0925  0.1058
   49MOL   C19835814   1.793   3.279   1.997 -0.4813 -0.2364  0.0507
   49MOL   C19935815   1.719   3.383   1.923 -0.1717  0.1669  0.1463
   49MOL   N20035816   1.764   3.514   1.954  0.4620  0.5815 -0.2379
   49MOL   H20135817   1.539   3.640   2.698 -0.7520 -2.1784  0.2476
   49MOL   H20235818   1.500   3.609   2.868 -0.6389 -0.4334  1.3956
   49MOL   H20335819   1.716   3.476   2.894  4.4761  0.7122 -2.7711
   49MOL   H20435820   1.582   3.400   2.821  0.9005 -0.3649  0.3959
   49MOL   H20535821   1.818   3.523   2.697 -0.3252  0.6961  0.4927
   49MOL   H20635822   1.688   3.477   2.592  1.5651  1.0569  0.3157
   49MOL   H20735823   1.855   3.297   2.773  1.7265 -0.0680 -1.2274
   49MOL   H20835824   1.717   3.245   2.655 -0.2179  0.4593 -2.4121
   49MOL   H20935825   1.979   3.201   2.590  0.2872 -0.0640 -1.0495
   49MOL   H21035826   1.969   3.373   2.565  0.8317 -0.0340  0.1013
   49MOL   H21135827   1.793   3.369   2.426 -1.2282 -0.6083  0.2896
   49MOL   H21235828   1.755   3.196   2.450  0.7430 -0.6455  0.9997
   49MOL   H21335829   1.981   3.128   2.380 -1.0539  1.1827  0.3702
   49MOL   H21435830   2.028   3.295   2.345  1.2240 -1.3498  0.8543
   49MOL   H21535831   1.830   3.116   2.205 -0.6872 -0.0429  0.2597
   49MOL   H21635832   1.980   3.152   2.159  1.5815  0.0976  2.5186
   49MOL   H21735833   1.943   3.381   2.119 -1.3802  1.4651 -0.8194
   49MOL   H21835834   1.781   3.364   2.192  1.1510 -0.0295  1.6628
   49MOL   H21935835   1.729   3.192   2.016 -0.1971 -0.3237  0.6006
   49MOL   H22035836   1.872   3.245   1.929 -0.3598 -1.8873  0.9831
   49MOL   H22135837   1.615   3.365   1.951 -0.1412 -0.8447 -0.3615
   49MOL   H22235838   1.738   3.348   1.821 -0.4442  0.6145 -0.0606
   49MOL   H22335839   1.703   3.556   2.023 -1.3527 -1.4810 -0.5186
   49MOL   C22435840   1.857   3.581   1.882  0.1959  0.1103 -0.0017
   49MOL   O22535841   1.919   3.535   1.788  0.4157  0.1405  0.0443
   49MOL   C22635842   1.890   3.723   1.923 -0.3166 -0.0083  0.4059
   49MOL   C22735843   2.012   3.792   1.859  0.1478  0.1924  0.1093
   49MOL   C22835844   2.035   3.938   1.896  0.2421 -0.5085  0.1410
   49MOL   C22935845   2.072   3.957   2.044 -0.5205 -0.0273 -0.2483
   49MOL   C23035846   2.087   4.100   2.093 -0.6435  0.0949  0.1757
   49MOL   C23135847   1.964   4.174   2.115 -0.2380  0.4037  0.6040
   49MOL   C23235848   1.890   4.131   2.244 -0.6403 -0.4644  0.0441
   49MOL   C23335849   1.735   4.146   2.246 -0.2944 -0.0823  0.4444
   49MOL   C23435850   1.676   4.031   2.174  0.2616  0.2428  0.3608
   49MOL   C23535851   1.520   4.038   2.174 -0.7897  0.5898 -0.1242
   49MOL   C23635852   1.451   3.919   2.105  0.1444  0.4954 -0.5779
   49MOL   N23735853   1.446   3.803   2.199 -0.2907 -0.4041  0.5287
   49MOL   H23835854   1.918   3.713   2.028  1.0666 -1.0031 -0.0302
   49MOL   H23935855   1.816   3.802   1.913  2.0802  2.7091  2.8241
   49MOL   H24035856   2.104   3.732   1.860 -0.5963 -1.0755 -2.6815
   49MOL   H24135857   2.003   3.792   1.751  2.7725  0.4528 -0.1499
   49MOL   H24235858   1.956   4.008   1.871  1.7705  2.1057  2.4167
   49MOL   H24335859   2.120   3.968   1.835  1.1838 -2.1225  0.6197
   49MOL   H24435860   1.995   3.914   2.107  0.4732 -1.1717  0.2071
   49MOL   H24535861   2.152   3.888   2.072 -0.6334 -0.2086 -0.3682
   49MOL   H24635862   2.161   4.147   2.028  0.5429 -3.0459 -0.8354
   49MOL   H24735863   2.131   4.084   2.192 -3.0440 -2.9107  0.8388
   49MOL   H24835864   1.896   4.175   2.030 -1.5015  1.2108  1.6070
   49MOL   H24935865   1.996   4.277   2.130 -1.2691  0.9295 -0.7235
   49MOL   H25035866   1.935   4.178   2.331 -1.5319  4.2099 -1.9112
   49MOL   H25135867   1.897   4.022   2.256  0.6719 -0.2326  1.5170
   49MOL   H25235868   1.710   4.246   2.210 -1.1922 -0.2397  0.5996
   49MOL   H25335869   1.705   4.141   2.351  1.6788 -1.0265  0.9892
   49MOL   H25435870   1.709   3.933   2.209  2.7863  0.6806 -0.7195
   49MOL   H25535871   1.708   4.042   2.070 -0.5062 -0.8786 -0.0095
   49MOL   H25635872   1.496   4.132   2.125 -0.1210  0.5101 -0.6227
   49MOL   H25735873   1.484   4.051   2.276  1.7147  2.4445  0.5726
   49MOL   H25835874   1.492   3.906   2.005  1.9831  0.5628  0.1425
   49MOL   H25935875   1.348   3.940   2.080 -0.0135 -1.2458 -1.4555
   49MOL   H26035876   1.370   3.811   2.265  0.0439  0.4948  0.8158
   49MOL   C26135877   1.513   3.689   2.203  0.0093  0.2525 -2.0558
   49MOL   O26235878   1.624   3.666   2.151 -0.2312  0.1408  0.7681
   49MOL   C26335879   1.436   3.584   2.277  0.1644 -0.0981 -0.2124
   49MOL   C26435880   1.495   3.445   2.255 -0.1050  0.3072  0.3977
   49MOL   C26535881   1.421   3.335   2.327 -0.0387  0.1979 -0.9874
   49MOL   C26635882   1.429   3.338   2.485  0.6304  0.4419  0.3874
   49MOL   C26735883   1.303   3.271   2.549 -0.5173 -0.0284 -0.4547
   49MOL   C26835884   1.316   3.261   2.703  0.2068  0.5252  0.1931
   49MOL   C26935885   1.206   3.170   2.775 -0.0444 -0.5096  0.1558
   49MOL   C27035886   1.063   3.231   2.762 -0.0950  0.2277 -0.3162
   49MOL   C27135887   0.958   3.163   2.848 -0.2581 -0.0397  0.6758
   49MOL   C27235888   0.907   3.026   2.795  0.3001 -0.1421  0.0218
   49MOL   C27335889   0.815   2.948   2.890 -0.0405 -0.2907  0.6089
   49MOL   N27435890   0.809   2.809   2.854  0.1397  0.0759 -0.3717
   49MOL   H27535891   1.332   3.591   2.247  0.2031 -3.0265 -1.1112
   49MOL   H27635892   1.442   3.615   2.381 -1.7115 -0.4612  0.0191
   49MOL   H27735893   1.512   3.417   2.151  0.2609  0.0649  0.5260
   49MOL   H27835894   1.597   3.441   2.291 -0.7248  1.7847  2.3972
   49MOL   H27935895   1.446   3.236   2.290 -0.2818 -0.1805 -0.1615
   49MOL   H28035896   1.319   3.347   2.291 -0.3901  0.9893  0.2142
   49MOL   H28135897   1.528   3.320   2.525  0.5584  0.0963  0.4115
   49MOL   H28235898   1.422   3.439   2.525 -2.0218 -0.3510  2.1046
   49MOL   H28335899   1.289   3.175   2.501  1.6226  0.8107 -2.8513
   49MOL   H28435900   1.217   3.332   2.522 -0.4546  0.4257  0.3472
   49MOL   H28535901   1.318   3.357   2.754 -2.1105  0.9638 -0.4892
   49MOL   H28635902   1.415   3.219   2.718 -0.3537 -0.9837 -0.2133
   49MOL   H28735903   1.242   3.153   2.876  0.8927  0.1087 -0.0653
   49MOL   H28835904   1.216   3.074   2.725  0.6507 -0.2541 -0.2068
   49MOL   H28935905   1.031   3.231   2.658  1.4381 -2.2846 -0.8106
   49MOL   H29035906   1.080   3.333   2.797 -0.1028  0.1842 -0.1837
   49MOL   H29135907   0.862   3.215   2.838 -0.5813 -0.7606 -0.0242
   49MOL   H29235908   0.969   3.167   2.956  1.0974 -1.1497  0.5832
   49MOL   H29335909   1.001   2.976   2.772  0.1441  0.5702 -2.2331
   49MOL   H29435910   0.864   3.048   2.698 -0.0954 -0.6548  0.0751
   49MOL   H29535911   0.716   2.994   2.895  0.2476  0.8161 -2.6157
   49MOL   H29635912   0.849   2.960   2.993 -1.0747 -1.4700  1.0966
   49MOL   H29735913   0.875   2.746   2.897  0.6613 -0.0536 -1.3510
   49MOL   C29835914   0.733   2.771   2.754  0.6877  0.1054  0.1422
   49MOL   O29935915   0.679   2.848   2.670 -0.7662  0.0618  0.6842
   49MOL   C30035916   0.712   2.623   2.744  0.7576 -0.0773  0.0124
   49MOL   C30135917   0.645   2.577   2.611  0.6247  0.5897  0.6367
   49MOL   C30235918   0.745   2.583   2.489 -0.9584  0.2297 -0.3556
   49MOL   C30335919   0.693   2.506   2.368  0.3329  0.0174 -0.2048
   49MOL   C30435920   0.787   2.506   2.237  0.2915  0.1425 -0.6093
   49MOL   C30535921   0.798   2.653   2.187  0.2938  0.6696 -0.0428
   49MOL   C30635922   0.664   2.710   2.128 -0.2858  0.1690  0.2295
   49MOL   C30735923   0.691   2.848   2.065  0.5224 -0.7891 -0.3449
   49MOL   C30835924   0.791   2.862   1.954  0.3221 -0.3438 -0.0028
   49MOL   C30935925   0.802   3.014   1.915 -0.3176 -0.3770  0.2392
   49MOL   C31035926   0.898   3.037   1.798  0.0200  0.5290  0.0939
   49MOL   N31135927   0.905   3.175   1.752  0.1921 -0.5429 -0.0967
   49MOL   H31235928   0.644   2.595   2.825  1.2084 -0.4931  0.2494
   49MOL   H31335929   0.809   2.577   2.766 -0.1190 -2.7163 -1.3684
   49MOL   H31435930   0.593   2.482   2.623  0.2478  0.9281  1.6825
   49MOL   H31535931   0.559   2.642   2.598 -0.5393 -1.5150 -3.0659
   49MOL   H31635932   0.836   2.546   2.534  0.5950  0.6100 -3.0704
   49MOL   H31735933   0.764   2.687   2.464  0.6979  0.5326  2.0176
   49MOL   H31835934   0.675   2.403   2.399 -0.7106  0.8833  2.2047
   49MOL   H31935935   0.598   2.544   2.333  0.7726 -0.5791 -2.1032
   49MOL   H32035936   0.734   2.460   2.153  0.1643 -0.1775 -0.3544
   49MOL   H32135937   0.879   2.450   2.253  1.4887  2.0919 -0.5983
   49MOL   H32235938   0.864   2.630   2.104 -2.4309 -2.3945 -1.5058
   49MOL   H32335939   0.849   2.721   2.255 -1.0911 -1.2170  3.0392
   49MOL   H32435940   0.585   2.733   2.200 -0.3191 -0.0477  0.2601
   49MOL   H32535941   0.630   2.638   2.055 -3.3141 -0.6905  2.3763
   49MOL   H32635942   0.716   2.910   2.151  2.0517 -1.8381 -0.0052
   49MOL   H32735943   0.593   2.878   2.028  0.5904 -1.8406 -1.4351
   49MOL   H32835944   0.764   2.800   1.868 -0.7898 -1.5377  1.1884
   49MOL   H32935945   0.887   2.828   1.993  0.0803  0.5707  1.4033
   49MOL   H33035946   0.830   3.070   2.004 -0.7982  1.1110 -0.5236
   49MOL   H33135947   0.702   3.047   1.887 -0.1243 -0.5001 -0.6068
   49MOL   H33235948   0.875   2.970   1.715 -1.0466  0.1735  0.6679
   49MOL   H33335949   1.000   3.004   1.820  0.0919 -0.1025 -1.1129
   49MOL   H33435950   0.869   3.243   1.819  0.1507 -1.1358  0.4875
   49MOL   C33535951   0.925   3.228   1.628 -0.6943 -0.2823 -0.1001
   49MOL   O33635952   0.958   3.165   1.528 -0.0635 -0.2971 -0.2665
   49MOL   C33735953   0.894   3.380   1.610  0.3753 -0.4543  0.4120
   49MOL   C33835954   0.807   3.414   1.489 -0.1056 -0.7429  0.1973
   49MOL   C33935955   0.759   3.566   1.495 -0.1746 -0.2230  0.1780
   49MOL   C34035956   0.649   3.599   1.590 -0.0145  0.0429 -0.3300
   49MOL   C34135957   0.624   3.756   1.606  0.1297 -0.7238 -0.7721
   49MOL   C34235958   0.513   3.779   1.715 -0.3432 -0.8984  0.1496
   49MOL   C34335959   0.456   3.921   1.732  0.4060 -0.1695  0.3526
   49MOL   C34435960   0.550   4.024   1.806  0.6580  0.3511  0.2638
   49MOL   C34535961   0.593   3.977   1.947  0.0092  0.5730  0.3600
   49MOL   C34635962   0.722   3.903   1.953  0.0189  0.2497  0.0637
   49MOL   C34735963   0.849   3.986   1.948 -0.1101  0.6214 -0.2191
   49MOL   N34835964   0.963   3.894   1.948 -0.8180  0.2213  0.1791
   49MOL   H34935965   0.984   3.437   1.588 -0.1022  0.4276  0.7360
   49MOL   H35035966   0.854   3.420   1.703  3.0637  2.3591  0.4318
   49MOL   H35135967   0.873   3.388   1.406 -1.9436 -3.3121 -0.5381
   49MOL   H35235968   0.713   3.359   1.492 -0.5130 -0.1517 -1.2624
   49MOL   H35335969   0.719   3.587   1.396  0.6096  0.6628  0.0368
   49MOL   H35435970   0.841   3.636   1.514  0.1713 -0.4958 -0.2844
   49MOL   H35535971   0.554   3.555   1.561  0.2738 -0.0112 -1.2077
   49MOL   H35635972   0.679   3.557   1.686  0.1523 -0.3740 -0.5601
   49MOL   H35735973   0.596   3.798   1.509 -1.3376 -1.1969 -0.5601
   49MOL   H35835974   0.720   3.803   1.630 -0.5791  0.0115  0.6882
   49MOL   H35935975   0.545   3.745   1.813 -0.6453  1.7998  1.2180
   49MOL   H36035976   0.421   3.727   1.688 -0.0282 -1.1824 -0.3900
   49MOL   H36135977   0.357   3.928   1.778  0.8638  1.9622  1.1135
   49MOL   H36235978   0.420   3.954   1.635 -1.4311 -0.4682  0.9168
   49MOL   H36335979   0.490   4.115   1.815 -0.7255 -0.3822 -1.1422
   49MOL   H36435980   0.638   4.045   1.746  1.0559 -1.7328  0.0719
   49MOL   H36535981   0.519   3.913   1.995  0.1347  0.7808  0.8388
   49MOL   H36635982   0.605   4.064   2.012  0.1550 -0.1105  1.2544
   49MOL   H36735983   0.729   3.827   1.875  0.7407 -2.4656  2.6702
   49MOL   H36835984   0.720   3.837   2.039 -0.0691  1.6534  1.1516
   49MOL   H36935985   0.853   4.043   2.041 -2.4476  1.2398 -0.4545
   49MOL   H37035986   0.849   4.050   1.860  2.3990  2.7790  1.2657
   49MOL   H37135987   0.984   3.848   2.035  1.0246  0.0478 -0.3366
   49MOL   C37235988   1.043   3.872   1.840 -0.3848  0.2225  0.1329
   49MOL   O37335989   1.033   3.910   1.723 -0.5392 -0.4516  0.1284
   49MOL   C37435990   1.164   3.785   1.864 -0.3572  0.0664  0.3308
   49MOL   C37535991   1.156   3.644   1.801  0.6965 -1.0777 -0.1423
   49MOL   C37635992   1.255   3.540   1.860  0.4067 -0.4003  0.6350
   49MOL   C37735993   1.236   3.400   1.788  0.6815 -0.1858  0.6902
   49MOL   C37835994   1.351   3.302   1.823  0.9177 -0.0098  0.5510
   49MOL   C37935995   1.311   3.164   1.774 -0.5154 -0.0858 -0.7293
   49MOL   C38035996   1.419   3.064   1.784  0.5389  0.1375 -0.2437
   49MOL   C38135997   1.505   3.064   1.661  0.3975 -0.3895  0.1343
   49MOL   C38235998   1.615   2.961   1.670 -1.0043  0.2350  0.5227
   49MOL   C38335999   1.737   2.997   1.587 -0.0833  0.1387 -0.3234
   49MOL   C38436000   1.851   2.893   1.589  0.5098  0.2185 -0.0220
   49MOL   N38536001   1.945   2.933   1.486 -0.1424  0.1975  0.3226
   49MOL   H38636002   1.179   3.767   1.970  1.3088  2.2366  0.4811
   49MOL   H38736003   1.260   3.829   1.839 -0.9254  1.1051 -0.0601
   49MOL   H38836004   1.051   3.615   1.806  0.2329  0.3897 -1.0026
   49MOL   H38936005   1.170   3.654   1.693 -1.4905  3.5140 -0.1358
   49MOL   H39036006   1.258   3.539   1.969 -0.3264 -1.3393  0.6492
   49MOL   H39136007   1.352   3.585   1.839 -0.5479  1.3601 -0.1815
   49MOL   H39236008   1.139   3.355   1.809  1.5545 -1.2604  2.5180
   49MOL   H39336009   1.235   3.421   1.681  2.1766  1.4570  0.9758
   49MOL   H39436010   1.350   3.306   1.932  0.4768 -0.2449  0.5532
   49MOL   H39536011   1.450   3.337   1.794  0.4069  1.1415  0.1961
   49MOL   H39636012   1.260   3.171   1.678  0.1372  1.7797 -0.9535
   49MOL   H39736013   1.232   3.125   1.839 -0.2361  0.5895  0.0201
   49MOL   H39836014   1.388   2.962   1.808  0.0637  0.7146  1.6921
   49MOL   H39936015   1.470   3.081   1.879 -0.5942 -2.7480  0.9784
   49MOL   H40036016   1.552   3.160   1.642  0.5823 -0.1640  1.6143
   49MOL   H40136017   1.445   3.032   1.576 -0.3238 -1.3639  0.9889
   49MOL   H40236018   1.568   2.864   1.650 -1.1357  0.3534  0.2572
   49MOL   H40336019   1.659   2.942   1.768 -0.3195  1.6655  0.4934
   49MOL   H40436020   1.781   3.091   1.621  1.5764 -1.1712  1.3109
   49MOL   H40536021   1.711   3.017   1.484 -0.8046  0.0863 -0.1524
   49MOL   H40636022   1.812   2.793   1.571 -0.9148  0.1904  2.8749
   49MOL   H40736023   1.898   2.903   1.687 -0.1009  0.2151  0.2673
   49MOL   H40836024   1.940   3.030   1.458 -1.7627  0.4273  1.4109
   49MOL   C40936025   2.046   2.857   1.446 -0.0036  0.2664  0.7093
   49MOL   O41036026   2.063   2.742   1.491 -0.4200 -0.1251  0.4206
   49MOL   C41136027   2.162   2.920   1.370 -0.1345  0.3362 -0.4792
   49MOL   C41236028   2.304   2.850   1.374 -0.0244 -0.2362  0.9314
   49MOL   C41336029   2.309   2.728   1.281 -0.1090  0.4496 -0.4168
   49MOL   C41436030   2.331   2.756   1.136 -0.1346 -0.2362 -0.2099
   49MOL   C41536031   2.429   2.866   1.098  0.2138  0.0057  0.0600
   49MOL   C41636032   2.571   2.830   1.119  0.7023  0.9453 -0.1734
   49MOL   C41736033   2.658   2.950   1.104  0.7998  0.3209  0.0851
   49MOL   C41836034   2.804   2.904   1.078 -0.4044 -0.0481  0.0073
   49MOL   C41936035   2.900   3.026   1.076  0.0041 -0.3286  0.7726
   49MOL   C42036036   2.938   3.081   0.934 -0.1688  0.3948  0.5807
   49MOL   C42136037   3.071   3.155   0.927 -0.5152  0.4474  0.0583
   49MOL   N42236038   3.174   3.055   0.930 -0.6794 -0.5368  0.2013
   49MOL   H42336039   2.181   3.022   1.403  0.2414 -0.3437  1.4288
   49MOL   H42436040   2.124   2.926   1.268 -1.2727  1.3899 -0.0100
   49MOL   H42536041   2.383   2.924   1.364 -1.8595  1.6470  0.0254
   49MOL   H42636042   2.321   2.827   1.479  1.0341 -2.3117  0.3357
   49MOL   H42736043   2.228   2.658   1.300  1.6111 -1.0908  1.5342
   49MOL   H42836044   2.394   2.666   1.310 -0.9784  0.4344  2.3222
   49MOL   H42936045   2.371   2.664   1.094  0.9780 -0.0741  0.4833
   49MOL   H43036046   2.234   2.780   1.091 -1.0691 -1.7071  0.9929
   49MOL   H43136047   2.402   2.959   1.148 -0.6813 -0.4112  0.3674
   49MOL   H43236048   2.417   2.877   0.990 -0.6856  1.9768  0.3516
   49MOL   H43336049   2.594   2.760   1.038 -3.4960 -0.9087  0.1294
   49MOL   H43436050   2.589   2.794   1.221 -2.8658  1.7697  0.8111
   49MOL   H43536051   2.650   3.005   1.197  0.5561 -2.6932  1.9066
   49MOL   H43636052   2.617   3.012   1.024  0.5393  1.0873  0.8030
   49MOL   H43736053   2.820   2.840   0.991 -0.3337 -0.7560  0.5395
   49MOL   H43836054   2.837   2.833   1.154  1.9227  1.6859  0.6743
   49MOL   H43936055   2.995   2.994   1.119  0.5511  0.7231  0.3842
   49MOL   H44036056   2.862   3.105   1.142 -0.4422  0.3637 -0.2973
   49MOL   H44136057   2.868   3.156   0.897  2.0331  2.8396  1.1990
   49MOL   H44236058   2.946   3.002   0.859 -1.2639  0.8684 -0.0470
   49MOL   H44336059   3.084   3.225   1.009  0.0309 -0.0756  0.4233
   49MOL   H44436060   3.074   3.214   0.836  1.6504  1.1110  0.5436
   49MOL   H44536061   3.156   2.980   0.864  0.1039 -0.9881  0.4980
   49MOL   C44636062   3.290   3.062   0.980  0.0853 -0.0126  1.0489
   49MOL   O44736063   3.338   3.157   1.037  0.6495 -0.2767 -0.3611
   49MOL   C44836064   3.372   2.934   0.979 -0.3245  0.4544 -0.0893
   49MOL   C44936065   3.521   2.955   0.933 -0.2711 -0.0098 -0.6218
   49MOL   C45036066   3.618   2.997   1.049 -0.3121  0.2191  0.0556
   49MOL   C45136067   3.769   2.991   1.000  0.4317  0.0230 -0.1387
   49MOL   C45236068   3.791   3.042   0.858 -0.3912 -0.6884 -0.2393
   49MOL   C45336069   3.740   3.187   0.829  0.1755 -0.0320  0.2640
   49MOL   C45436070   3.746   3.226   0.681 -0.6089  0.0793  0.7286
   49MOL   C45536071   3.707   3.373   0.670  0.5388 -0.4629  0.4648
   49MOL   C45636072   3.724   3.426   0.525 -0.0339 -0.8936  0.2389
   49MOL   C45736073   3.717   3.584   0.520  0.3199  0.3884 -0.6728
   49MOL   C45836074   3.853   3.649   0.558 -0.4409  0.6279 -0.7913
   49MOL   N45936075   3.847   3.796   0.532 -0.2895  0.5296 -0.6312
   49MOL   H46036076   3.323   2.858   0.918 -1.5039  0.6697  0.5928
   49MOL   H46136077   3.352   2.886   1.075 -1.0348  1.3597  0.2229
   49MOL   H46236078   3.559   2.861   0.893 -1.3483 -0.6361 -0.2047
   49MOL   H46336079   3.524   3.033   0.857 -0.1837  1.0064  0.4093
   49MOL   H46436080   3.610   2.926   1.131  1.3204 -2.0214 -1.6439
   49MOL   H46536081   3.581   3.094   1.081  0.2643  0.0962  1.1157
   49MOL   H46636082   3.827   3.066   1.055  0.2933 -0.3067  0.4560
   49MOL   H46736083   3.810   2.891   1.013  0.4149  0.2188  1.4421
   49MOL   H46836084   3.754   2.968   0.787 -0.0091  0.1148 -1.3033
   49MOL   H46936085   3.898   3.051   0.844 -0.5641 -0.4747 -1.5279
   49MOL   H47036086   3.798   3.267   0.876 -0.6910  0.6031  0.2703
   49MOL   H47136087   3.645   3.215   0.876  0.9073 -0.1844  1.8589
   49MOL   H47236088   3.680   3.168   0.617  0.4041 -0.0824 -0.1958
   49MOL   H47336089   3.847   3.202   0.648 -0.7056  1.3610 -0.5353
   49MOL   H47436090   3.776   3.430   0.732 -0.1951  0.0432  0.8226
   49MOL   H47536091   3.604   3.392   0.699  0.0712 -1.6113 -0.4070
   49MOL   H47636092   3.645   3.392   0.459  1.1321 -0.4443 -1.4279
   49MOL   H47736093   3.821   3.395   0.486  0.4460  1.0863 -0.1780
   49MOL   H47836094   3.649   3.629   0.592  0.3354 -0.7191  0.0402
   49MOL   H47936095   3.689   3.613   0.419  2.8317 -0.6524 -1.7227
   49MOL   H48036096   3.931   3.605   0.495 -1.1034 -1.2045 -0.3662
   49MOL   H48136097   3.876   3.634   0.663  0.9608  1.9329 -0.8827
   49MOL   H48236098   3.803   3.856   0.601 -2.5441 -1.4199 -0.2874
   49MOL   C48336099   3.863   3.847   0.413 -0.1720  0.0718  0.0057
   49MOL   O48436100   3.894   3.779   0.319 -0.4616 -0.1580 -0.4825
   49MOL   C48536101   3.831   3.996   0.392  0.8606 -0.3497 -0.1317
   49MOL   C48636102   3.735   4.021   0.282 -0.7283  0.3915  0.3391
   49MOL   C48736103   3.728   4.173   0.250 -1.1957  0.9239  0.0159
   49MOL   C48836104   3.660   4.202   0.113 -0.3959 -0.0383  0.2727
   49MOL   C48936105   3.517   4.236   0.123 -0.1671 -0.2152 -0.1723
   49MOL   C49036106   3.454   4.273   7.678  0.6338 -0.1184 -0.5989
   49MOL   C49136107   3.309   4.315   7.693 -0.4044 -0.5315  0.7641
   49MOL   C49236108   3.241   4.371   7.568  0.4588 -0.2666  0.2274
   49MOL   C49336109   3.086   4.384   7.589  0.5050 -0.1937 -0.5935
   49MOL   C49436110   3.021   4.430   7.454 -0.0685 -0.3026  0.1728
   49MOL   C49536111   2.868   4.421   7.472  0.3390  0.2088  0.0928
   49MOL   N49636112   2.792   4.465   7.353 -0.4503  0.5582  0.1589
   49MOL   H49736113   3.927   4.042   0.368  0.7571  0.1149  0.3185
   49MOL   H49836114   3.788   4.034   0.485 -0.9650  2.4581 -2.0220
   49MOL   H49936115   3.769   3.967   0.194 -3.3427  0.5500 -0.8022
   49MOL   H50036116   3.636   3.984   0.307 -0.3615  0.3496  1.7439
   49MOL   H50136117   3.828   4.218   0.255 -1.5144  1.4431  2.4638
   49MOL   H50236118   3.682   4.222   0.336 -0.0147 -0.2405  1.3174
   49MOL   H50336119   3.702   4.288   0.062 -2.0965  0.9979  0.5829
   49MOL   H50436120   3.698   4.125   0.045 -0.3817 -0.2687  0.5390
   49MOL   H50536121   3.515   4.320   0.192 -0.9888  0.2888 -0.8039
   49MOL   H50636122   3.467   4.151   0.169 -0.3795 -0.1984 -0.3658
   49MOL   H50736123   3.471   4.180   7.625 -0.9829 -0.1955 -1.0012
   49MOL   H50836124   3.519   4.344   7.626 -0.2432  0.5925 -0.7434
   49MOL   H50936125   3.299   4.395   0.072  1.8913  1.5850 -1.1682
   49MOL   H51036126   3.255   4.229   0.040 -1.6363  0.4054  1.1296
   49MOL   H51136127   3.264   4.324   7.472 -0.0524 -0.0845  0.0174
   49MOL   H51236128   3.288   4.468   7.550  2.4936 -0.8828  2.0023
   49MOL   H51336129   3.066   4.447   7.676  0.5694 -2.3397  1.0058
   49MOL   H51436130   3.045   4.286   7.614 -0.2560  0.0195 -0.9969
   49MOL   H51536131   3.044   4.351   7.382  0.2393 -0.1691  0.1234
   49MOL   H51636132   3.052   4.532   7.433 -0.6614  0.0053  0.7761
   49MOL   H51736133   2.851   4.492   7.552 -0.3939  0.7420 -0.5347
   49MOL   H51836134   2.835   4.322   7.504  0.8695  0.3477  1.1048
   49MOL   H51936135   2.845   4.522   7.288  1.5918 -1.3331  0.0995
   49MOL   C52036136   2.661   4.470   7.349 -0.1528 -0.1041 -0.5787
   49MOL   O52136137   2.590   4.412   7.428 -0.1108  0.3280  0.2396
   49MOL   C52236138   2.605   4.555   7.237 -0.4267  0.1853  0.9085
   49MOL   C52336139   2.464   4.604   7.264  0.4609  0.2347  0.4820
   49MOL   C52436140   2.467   4.743   7.331 -0.1350 -0.1404 -0.5787
   49MOL   C52536141   2.363   4.771   7.438  0.4179 -0.1990 -0.1733
   49MOL   C52636142   2.401   4.702   7.562 -0.3420  0.4790 -0.0040
   49MOL   C52736143   2.516   4.752   7.649  0.3562 -0.8831  0.0470
   49MOL   C52836144   2.495   4.716   0.105  0.5581 -0.4766  0.2120
   49MOL   C52936145   2.612   4.763   0.199  0.0910  0.0015 -0.3220
   49MOL   C53036146   2.632   4.921   0.193 -0.0710  0.6826 -0.1499
   49MOL   C53136147   2.749   4.978   0.276  0.2754  0.8906  0.4834
   49MOL   C53236148   2.786   5.125   0.223  0.9979 -0.0966 -0.4174
   49MOL   N53336149   2.838   5.206   0.334 -0.2544 -0.5422 -0.6388
   49MOL   H53436150   2.595   4.510   7.138 -0.6823 -0.6416  1.3090
   49MOL   H53536151   2.671   4.640   7.219 -0.7205 -0.2105 -2.4554
   49MOL   H53636152   2.417   4.625   7.168  0.2725  2.4244  1.0169
   49MOL   H53736153   2.401   4.548   7.332 -0.7565  2.5436  1.3042
   49MOL   H53836154   2.447   4.814   7.250 -2.5168  1.3837  1.2549
   49MOL   H53936155   2.562   4.760   7.382 -0.9689  1.1210  0.6029
   49MOL   H54036156   2.339   4.875   7.460  0.2566 -0.4195  0.7013
   49MOL   H54136157   2.270   4.739   7.391  0.4621  0.8345 -1.0006
   49MOL   H54236158   2.428   4.598   7.544 -0.8693 -0.1696  2.7626
   49MOL   H54336159   2.317   4.693   7.631  0.0691 -1.2080  0.3011
   49MOL   H54436160   2.520   4.860   7.634 -0.8183 -0.9767 -1.1100
   49MOL   H54536161   2.613   4.724   7.608  0.8007 -1.7007  1.6483
   49MOL   H54636162   2.493   4.607   0.112  0.3372 -0.5789 -1.2835
   49MOL   H54736163   2.398   4.748   0.144  0.2232 -1.8585  0.5279
   49MOL   H54836164   2.704   4.721   0.158  0.0889 -0.4663  0.1548
   49MOL   H54936165   2.597   4.714   0.295  1.4042  0.4362  0.1161
   49MOL   H55036166   2.540   4.975   0.218 -0.1208  1.3637 -1.7287
   49MOL   H55136167   2.655   4.943   0.089 -0.5494  1.2889 -0.1336
   49MOL   H55236168   2.837   4.914   0.279 -0.3178  0.0677  0.6454
   49MOL   H55336169   2.715   4.976   0.379 -1.7849  0.3351 -0.1823
   49MOL   H55436170   2.702   5.180   0.182  0.6460  0.4205  0.9564
   49MOL   H55536171   2.869   5.126   0.152  2.1594  0.7994  0.9261
   49MOL   H55636172   2.939   5.210   0.332 -0.2281 -0.8986 -0.0633
   49MOL   C55736173   2.774   5.253   0.442  0.0132  0.3372  0.3428
   49MOL   O55836174   2.655   5.242   0.453  0.4226 -0.0121 -0.3812
   49MOL   C55936175   2.848   5.326   0.545 -0.0262  0.0354 -0.4454
   49MOL   C56036176   2.791   5.460   0.598  0.4227 -0.3874  0.3700
   49MOL   C56136177   2.834   5.592   0.527  0.0422  0.6347  0.2015
   49MOL   C56236178   2.781   5.601   0.383  0.3052  0.3280 -0.0367
   49MOL   C56336179   2.631   5.627   0.382  0.1081 -1.0160 -0.0650
   49MOL   C56436180   2.573   5.673   0.247  0.4030 -0.6893 -0.4602
   49MOL   C56536181   2.423   5.664   0.250  0.6348 -0.2631  0.2057
   49MOL   C56636182   2.362   5.740   0.136 -0.3436 -0.3664 -0.1247
   49MOL   C56736183   2.246   5.669   0.080  0.2876  0.7921  0.1129
   49MOL   C56836184   2.126   5.676   0.172  0.4971 -1.1156 -0.1044
   49MOL   C56936185   2.003   5.595   0.134  0.9626 -0.8249  0.6103
   49MOL   N57036186   1.884   5.656   0.195  0.1161 -0.3485 -0.6666
   49MOL   H57136187   2.947   5.359   0.513  0.4394  1.5355  2.4150
   49MOL   H57236188   2.871   5.259   0.628 -0.1316  2.2332  1.3865
   49MOL   H57336189   2.683   5.446   0.599  0.3325  0.2508  2.3572
   49MOL   H57436190   2.818   5.459   0.704 -1.9575  1.4405  1.0519
   49MOL   H57536191   2.942   5.607   0.519 -0.1842  2.2856 -0.1373
   49MOL   H57636192   2.789   5.669   0.590  0.0071 -1.2086  2.4639
   49MOL   H57736193   2.837   5.688   0.347  2.2288 -0.4186  1.0809
   49MOL   H57836194   2.813   5.520   0.317 -0.7214  2.0982 -2.7904
   49MOL   H57936195   2.605   5.696   0.462 -0.8442 -0.6686 -0.6613
   49MOL   H58036196   2.593   5.526   0.399  1.0377 -1.3067  0.3387
   49MOL   H58136197   2.610   5.609   0.167  1.8700 -0.1445 -0.2258
   49MOL   H58236198   2.596   5.779   0.231 -0.8261 -0.3252  0.1223
   49MOL   H58336199   2.397   5.696   0.350  0.7030 -0.3409  0.2485
   49MOL   H58436200   2.393   5.559   0.244 -5.4153  1.2679  1.1572
   49MOL   H58536201   2.426   5.761   0.050 -1.0572 -1.2895 -0.8905
   49MOL   H58636202   2.325   5.835   0.175 -0.3268 -0.4805  0.1696
   49MOL   H58736203   2.264   5.564   0.057  0.5088  1.0568 -0.9028
   49MOL   H58836204   2.225   5.729   7.686 -1.3420 -1.1718 -0.8853
   49MOL   H58936205   2.101   5.780   0.188  2.0400 -0.4496 -1.9069
   49MOL   H59036206   2.161   5.629   0.264 -2.6373  0.0758  1.7570
   49MOL   H59136207   2.006   5.489   0.161 -1.3497 -0.9897  0.3207
   49MOL   H59236208   1.985   5.605   0.026 -0.0542  1.7128  0.9832
   49MOL   H59336209   1.896   5.754   0.217 -2.1135  0.1170 -1.4693
   49MOL   C59436210   1.768   5.598   0.216  0.4477  0.3351  0.0265
   49MOL   O59536211   1.761   5.475   0.199 -0.1719  0.0092  0.4911
   49MOL   C59636212   1.646   5.675   0.261 -0.2260 -0.2279 -0.3466
   49MOL   C59736213   1.533   5.638   0.163  0.1447 -0.7095 -0.0226
   49MOL   C59836214   1.532   5.731   0.043  0.5569  0.2238  0.8834
   49MOL   C59936215   1.490   5.666   7.605 -0.0490  0.1166  0.4818
   49MOL   C60036216   1.590   5.556   7.550 -0.7649 -0.5560  0.9603
   49MOL   C60136217   1.737   5.614   7.510 -1.3247 -0.7893  0.4026
   49MOL   C60236218   1.834   5.506   7.459  0.3952  0.3799 -0.0757
   49MOL   C60336219   1.962   5.578   7.409 -0.0309  0.5683  0.0918
   49MOL   C60436220   2.059   5.475   7.353  0.1776 -0.5257 -0.3170
   49MOL   C60536221   2.160   5.422   7.448 -0.7325  0.4347  0.2151
   49MOL   C60636222   2.266   5.334   7.374 -0.1366  0.3792  0.3460
   49MOL   N60736223   2.365   5.301   7.479 -0.6730 -0.0053  0.0355
   49MOL   H60836224   1.661   5.778   0.293 -1.9714 -0.5367  1.5116
   49MOL   H60936225   1.632   5.633   0.360 -3.6568 -1.1138 -1.1372
   49MOL   H61036226   1.541   5.535   0.128  0.1017 -1.5214  2.2746
   49MOL   H61136227   1.443   5.644   0.224  0.9537 -0.6375  1.1803
   49MOL   H61236228   1.628   5.782   0.036  0.6770  0.1736  2.1405
   49MOL   H61336229   1.461   5.812   0.060  2.7510  2.6364 -0.8811
   49MOL   H61436230   1.399   5.608   7.623  0.5253 -0.5385  1.2559
   49MOL   H61536231   1.469   5.746   7.533 -1.4944 -0.3649  0.3530
   49MOL   H61636232   1.552   5.506   7.461  1.3950 -0.1303 -0.2329
   49MOL   H61736233   1.596   5.481   7.628  2.3703 -0.8784  0.4739
   49MOL   H61836234   1.779   5.665   7.597  1.4891 -2.3701  0.0421
   49MOL   H61936235   1.721   5.693   7.437 -0.9103 -1.3562 -0.3099
   49MOL   H62036236   1.783   5.449   7.381 -1.3298  3.0611 -0.9956
   49MOL   H62136237   1.862   5.431   7.533 -1.6399 -2.2960 -1.9374
   49MOL   H62236238   2.017   5.630   7.487  0.4988 -0.8711  0.7070
   49MOL   H62336239   1.926   5.651   7.337  0.2584  1.7670  1.1423
   49MOL   H62436240   2.110   5.531   7.274 -0.3827  0.0992 -0.2403
   49MOL   H62536241   2.001   5.394   7.309 -1.0772  0.9610 -1.4550
   49MOL   H62636242   2.112   5.376   7.534  2.7676 -0.7219  1.6606
   49MOL   H62736243   2.209   5.512   7.484  0.3342 -1.2727  3.2526
   49MOL   H62836244   2.310   5.377   7.285 -1.5421 -0.0259 -0.5505
   49MOL   H62936245   2.221   5.235   7.362  1.4737 -0.3477  0.1097
   49MOL   H63036246   2.325   5.272   7.567 -1.0385  1.6558  0.4256
   49MOL   C63136247   2.496   5.328   7.468 -0.0817 -0.2007  0.0954
   49MOL   O63236248   2.545   5.394   7.368  0.2203  0.2663 -0.1883
   49MOL   C63336249   2.586   5.282   7.583 -0.0144 -0.2426  1.2419
   49MOL   C63436250   2.709   5.194   7.551  0.3089 -0.5397  0.0769
   49MOL   C63536251   2.684   5.073   7.447  0.5561 -0.0888  0.6969
   49MOL   C63636252   2.810   4.989   7.425  0.3560  0.3688  0.1747
   49MOL   C63736253   2.863   4.922   7.556  0.3900  0.4180 -0.5498
   49MOL   C63836254   2.978   4.832   7.513 -0.2089 -0.4030  0.3289
   49MOL   C63936255   3.019   4.734   7.626  0.4627  0.4089  0.0241
   49MOL   C64036256   3.072   4.786   0.068  0.2207 -0.2938 -0.5179
   49MOL   C64136257   3.103   4.680   0.163 -0.0527  0.3738 -0.3230
   49MOL   C64236258   3.182   4.726   0.289  0.2023 -1.2165  0.8697
   49MOL   C64336259   3.210   4.610   0.386 -0.0747  0.4512  0.4849
   49MOL   N64436260   3.277   4.666   0.500  0.1547 -0.4979 -0.3764
   49MOL   H64536261   2.517   5.241   7.657 -0.3572  1.0649  1.6661
   49MOL   H64636262   2.620   5.377   7.624  1.3614 -0.1702 -0.0301
   49MOL   H64736263   2.782   5.263   7.508 -1.0839  0.0052 -1.4680
   49MOL   H64836264   2.741   5.151   7.646 -1.6343 -1.4836  0.3285
   49MOL   H64936265   2.661   5.120   7.351  0.0796  1.3124  1.4878
   49MOL   H65036266   2.596   5.015   7.471  1.2163 -1.5231 -0.2390
   49MOL   H65136267   2.787   4.914   7.349  2.3858  0.7299 -0.8077
   49MOL   H65236268   2.881   5.057   7.378 -0.0598 -0.7838 -2.1814
   49MOL   H65336269   2.780   4.866   7.599 -0.4620  2.8144  1.0588
   49MOL   H65436270   2.891   4.996   7.631  0.1261  0.2732 -0.3071
   49MOL   H65536271   3.062   4.890   7.476  0.0978 -0.5158  0.8329
   49MOL   H65636272   2.931   4.768   7.439  0.1077 -3.2591  2.4932
   49MOL   H65736273   3.083   4.656   7.586  1.2069  0.9050  0.2246
   49MOL   H65836274   2.931   4.674   7.648 -1.0506  1.8044 -1.9326
   49MOL   H65936275   2.999   4.857   0.107  1.1623  0.3412  0.1192
   49MOL   H66036276   3.150   4.857   0.040  0.5677  0.1787  1.5668
   49MOL   H66136277   3.166   4.602   0.120 -1.2324 -0.6419 -0.2330
   49MOL   H66236278   3.010   4.625   0.181  0.2229  0.0855  0.2251
   49MOL   H66336279   3.119   4.791   0.350  0.7211 -1.3970  1.5982
   49MOL   H66436280   3.272   4.780   0.263  0.5782 -1.4082  1.7531
   49MOL   H66536281   3.282   4.540   0.344  0.4611  1.5074 -0.3686
   49MOL   H66636282   3.117   4.562   0.416 -0.4587  0.6376 -0.3668
   49MOL   H66736283   3.224   4.721   0.565  2.7307  0.3868  1.0448
   49MOL   C66836284   3.411   4.673   0.518  0.0945  0.0272 -0.5001
   49MOL   O66936285   3.484   4.618   0.440 -0.8328 -0.2105  0.3900
   49MOL   C67036286   3.463   4.741   0.649  0.0806  0.5367  0.5823
   49MOL   C67136287   3.614   4.761   0.659 -0.1801 -0.6028 -0.0049
   49MOL   C67236288   3.668   4.890   0.588 -0.5841  0.3623 -0.1669
   49MOL   C67336289   3.824   4.884   0.554  0.3975 -0.3010  0.2266
   49MOL   C67436290   3.869   5.001   0.462  0.2394 -0.0367 -0.4427
   49MOL   C67536291   3.879   5.141   0.522 -0.2109  1.2841  0.5667
   49MOL   C67636292   3.911   5.249   0.422  1.0779  0.2499  0.0739
   49MOL   C67736293   4.057   5.260   0.371  0.0908 -0.3823  0.4398
   49MOL   C67836294   4.084   5.362   0.261 -0.2471 -0.0074 -0.1555
   49MOL   C67936295   4.241   5.370   0.240 -0.4832 -0.3517 -0.2159
   49MOL   C68036296   4.300   5.472   0.141  0.4382 -0.5325 -0.1201
   49MOL   N68136297   4.232   5.596   0.159 -0.0843 -0.1695 -0.1212
   49MOL   H68236298   3.420   4.677   0.726 -0.8903 -0.7267 -0.9713
   49MOL   H68336299   3.407   4.832   0.673  0.3899  0.7994  0.3096
   49MOL   H68436300   3.634   4.764   0.766 -0.7352 -2.3290  0.1664
   49MOL   H68536301   3.667   4.680   0.609  0.5302 -0.2765  0.2179
   49MOL   H68636302   3.656   4.980   0.648  0.3097  0.4074 -0.0466
   49MOL   H68736303   3.623   4.899   0.489 -0.4667 -0.0534 -0.2577
   49MOL   H68836304   3.896   4.884   0.636 -0.0213  2.3248  0.6391
   49MOL   H68936305   3.858   4.792   0.505 -0.5899 -0.8946  0.6448
   49MOL   H69036306   3.803   4.996   0.375  0.0997  0.5945 -0.3789
   49MOL   H69136307   3.964   4.975   0.415 -0.2925 -0.2043 -1.4484
   49MOL   H69236308   3.951   5.145   0.604 -0.4889 -1.6608  1.0205
   49MOL   H69336309   3.789   5.171   0.577 -0.7145  0.9087 -0.0499
   49MOL   H69436310   3.896   5.342   0.477 -3.0516 -0.2776 -0.0086
   49MOL   H69536311   3.839   5.257   0.341  1.0895 -0.9141 -0.0490
   49MOL   H69636312   4.101   5.165   0.340  0.9000  0.1794 -0.1407
   49MOL   H69736313   4.111   5.282   0.463  0.1296 -2.4485  0.9385
   49MOL   H69836314   4.032   5.455   0.282 -3.2057 -1.0501 -2.6005
   49MOL   H69936315   4.032   5.333   0.170 -0.5635  0.2876 -0.0704
   49MOL   H70036316   4.289   5.276   0.216 -1.5126 -0.5301 -1.6738
   49MOL   H70136317   4.277   5.406   0.336  0.7740 -0.0985 -0.7831
   49MOL   H70236318   4.297   5.447   0.035  0.3870  2.7563 -0.9456
   49MOL   H70336319   4.407   5.490   0.152  0.0661  3.1470 -1.7463
   49MOL   H70436320   4.175   5.603   0.243  0.3084  2.0546 -0.0014
   49MOL   C70536321   4.221   5.691   0.067  0.2769 -0.7237 -0.4282
   49MOL   O70636322   4.280   5.695   7.658  0.1123 -0.1716 -0.0794
   49MOL   C70736323   4.122   5.799   0.107  0.2475  1.0491 -0.4263
   49MOL   C70836324   4.141   5.924   0.019  0.4222 -0.0372 -0.1706
   49MOL   C70936325   4.087   5.917   7.571  0.0630 -0.0009 -0.1654
   49MOL   C71036326   4.075   6.053   7.510 -0.5156 -0.2426  0.3345
   49MOL   C71136327   4.016   6.050   7.370  0.7454 -0.9923 -0.2608
   49MOL   C71236328   4.000   6.183   7.300  0.1153 -0.8799 -0.6714
   49MOL   C71336329   3.915   6.159   7.175 -0.5738 -0.1923 -0.6140
   49MOL   C71436330   3.917   6.287   7.101 -0.3127 -0.2458  0.5381
   49MOL   C71536331   3.819   6.296   6.984 -0.1094  0.0461  0.3895
   49MOL   C71636332   3.826   6.429   6.909  0.2510  0.7042 -0.0681
   49MOL   C71736333   3.724   6.441   6.801  0.3029  0.1650 -0.2038
   49MOL   N71836334   3.609   6.518   6.845 -0.0417  0.5368  0.1780
   49MOL   H71936335   4.133   5.822   0.213  3.1103 -3.5485  0.4399
   49MOL   H72036336   4.020   5.761   0.105 -0.0077  1.7655 -1.0339
   49MOL   H72136337   4.089   6.008   0.064 -2.1894  0.4800 -3.9218
   49MOL   H72236338   4.247   5.946   0.010  0.6379 -0.7430  0.6385
   49MOL   H72336339   3.991   5.866   7.574  1.4174 -2.7913 -2.3546
   49MOL   H72436340   4.154   5.848   7.520  1.1072 -1.8179  3.4362
   49MOL   H72536341   4.018   6.119   7.576 -1.9576 -1.4529  0.3079
   49MOL   H72636342   4.174   6.096   7.493 -0.4067 -0.7466 -0.3326
   49MOL   H72736343   3.926   5.990   7.382 -0.0225  0.6274  2.6008
   49MOL   H72836344   4.077   5.980   7.312 -0.6732 -1.9129 -0.6601
   49MOL   H72936345   4.100   6.221   7.283  0.2605 -0.2711  1.3976
   49MOL   H73036346   3.953   6.261   7.360  1.8509 -0.9025  0.7535
   49MOL   H73136347   3.818   6.121   7.208  0.5618 -1.4404  1.3666
   49MOL   H73236348   3.969   6.083   7.117  0.5815  0.0124  0.1858
   49MOL   H73336349   4.017   6.311   7.065  0.2709 -2.8802  0.2913
   49MOL   H73436350   3.891   6.364   7.174 -0.1534 -0.7001  1.0762
   49MOL   H73536351   3.719   6.289   7.025  0.9557 -0.1814  3.0452
   49MOL   H73636352   3.839   6.214   6.915  1.0070  1.3608 -0.9058
   49MOL   H73736353   3.925   6.428   6.864  0.6600  1.3819  0.8056
   49MOL   H73836354   3.821   6.503   6.990 -2.8179  2.0270 -1.3898
   49MOL   H73936355   3.674   6.352   6.762  2.4913 -2.0337  1.8494
   49MOL   H74036356   3.768   6.492   6.715 -1.3514  2.2702  0.1447
   49MOL   H74136357   3.533   6.517   6.778  0.2895  2.2784 -0.2645
   49MOL   H74236358   3.570   6.490   6.933 -1.5272  1.6024 -0.1162
   50MOL     C136359   0.417   6.146   3.392  0.4766 -0.0685 -0.4018
   50MOL     O236360   0.440   6.141   3.268 -0.3107  0.2464 -0.0140
   50MOL     C336361   0.290   6.083   3.467 -0.2043 -0.2972  0.5018
   50MOL     C436362   0.169   6.094   3.376  0.2429  0.2625 -0.4874
   50MOL     C536363   0.157   5.997   3.264  0.3057 -0.9644  0.5459
   50MOL     C636364   0.032   6.037   3.183 -0.4798  0.2828  0.5933
   50MOL     C736365   7.691   5.936   3.074 -0.4243 -0.4696  0.1651
   50MOL     C836366   7.564   5.954   2.993  0.1817 -0.3406 -0.9946
   50MOL     C936367   7.543   5.860   2.877  0.5035  0.2931  0.3557
   50MOL    C1036368   7.641   5.871   2.763  0.1030 -0.1278 -0.2082
   50MOL    C1136369   7.590   5.805   2.642  0.2312  0.1180 -0.3231
   50MOL    C1236370   0.013   5.791   2.542 -0.2525 -0.5556 -0.7821
   50MOL    C1336371   0.000   5.700   2.416 -0.2110 -0.4136  0.4801
   50MOL    N1436372   0.108   5.708   2.322  0.2269 -0.6869  0.7375
   50MOL    H1536373   0.274   6.128   3.565  2.2420  2.8391 -0.4269
   50MOL    H1636374   0.302   5.976   3.479 -0.0940 -0.2568  0.7436
   50MOL    H1736375   0.084   6.090   3.445  0.4468 -0.7948 -0.2804
   50MOL    H1836376   0.159   6.195   3.338  1.4081 -0.2122 -2.1294
   50MOL    H1936377   0.149   5.892   3.291 -0.0799 -1.4741 -1.4207
   50MOL    H2036378   0.242   5.997   3.195 -0.7097  0.0865 -0.7318
   50MOL    H2136379   7.636   6.045   3.245 -1.4272 -1.8270 -0.4336
   50MOL    H2236380   0.053   6.136   3.143  0.3378  0.0745  0.4899
   50MOL    H2336381   7.691   5.833   3.110  1.7845 -0.4873  0.1804
   50MOL    H2436382   0.087   5.943   3.012 -1.6338  0.1329 -1.5640
   50MOL    H2536383   7.560   6.062   2.979 -0.2243 -0.0666  1.1205
   50MOL    H2636384   7.472   5.931   3.047 -0.0047 -1.7684 -1.8812
   50MOL    H2736385   7.444   5.889   2.843  0.2606 -1.8163 -0.8245
   50MOL    H2836386   7.538   5.756   2.908  0.3111 -0.1904 -1.2412
   50MOL    H2936387   0.040   5.826   2.798  1.4148  2.6882  0.0517
   50MOL    H3036388   7.681   5.971   2.747  1.0153 -0.2654  1.1119
   50MOL    H3136389   7.502   5.852   2.598 -0.3042 -0.6255 -0.0607
   50MOL    H3236390   7.566   5.705   2.676 -0.2019 -0.1343 -1.3389
   50MOL    H3336391   0.090   5.733   2.593 -0.9615  1.0913  2.2531
   50MOL    H3436392   0.057   5.888   2.521 -0.4653  0.0101  1.3207
   50MOL    H3536393   7.609   5.739   2.360  0.5288  1.1641  0.4241
   50MOL    H3636394   7.678   5.596   2.443  1.6520 -0.7196  0.4823
   50MOL    H3736395   0.196   5.660   2.337  0.5667  0.0062  0.9568
   50MOL    H3836396   0.487   6.195   3.460  0.8008 -0.5065 -0.4186
   50MOL    C3936397   0.107   5.767   2.201 -0.5431  0.7025 -0.5770
   50MOL    O4036398   0.006   5.818   2.153 -0.1116 -0.1094 -0.4567
   50MOL    C4136399   0.237   5.771   2.122  0.2524 -0.1749 -0.6928
   50MOL    C4236400   0.246   5.896   2.034  0.1027 -0.0691 -0.5321
   50MOL    C4336401   0.391   5.927   1.980  0.3051 -0.6377 -0.0678
   50MOL    C4436402   0.394   6.074   1.912  0.2407 -0.4018  0.1701
   50MOL    C4536403   0.531   6.093   1.853  0.1155  0.1636 -0.3870
   50MOL    C4636404   0.534   6.228   1.782 -0.3813 -0.1194 -0.3347
   50MOL    C4736405   0.534   6.350   1.878  0.2723 -0.6035 -0.3444
   50MOL    C4836406   0.489   6.482   1.804 -0.7406  0.5798 -0.2494
   50MOL    C4936407   0.595   6.547   1.703  0.1792 -0.7418 -0.4285
   50MOL    C5036408   0.710   6.608   1.778 -0.2607  0.1293 -0.3165
   50MOL    C5136409   0.807   6.684   1.698 -0.0935 -0.5473  0.6694
   50MOL    N5236410   0.751   6.798   1.633  0.2952 -0.5214 -0.2844
   50MOL    H5336411   0.249   5.688   2.053 -1.6303  1.2526 -2.8184
   50MOL    H5436412   0.325   5.775   2.187 -0.6780  0.2024  0.5757
   50MOL    H5536413   0.177   5.865   1.955  0.2742 -1.3371 -0.1976
   50MOL    H5636414   0.193   5.973   2.091  2.2863 -0.0897  1.6072
   50MOL    H5736415   0.411   5.849   1.907  0.9066 -1.4184  0.9082
   50MOL    H5836416   0.471   5.931   2.054  0.9702 -1.9458 -0.6988
   50MOL    H5936417   0.309   6.099   1.848 -0.0045 -0.1951  0.5738
   50MOL    H6036418   0.381   6.136   2.001  1.6166 -1.6660  1.2925
   50MOL    H6136419   0.549   6.033   1.764  0.5285  0.0370 -0.2225
   50MOL    H6236420   0.611   6.074   1.925 -0.1693  2.9596  0.7530
   50MOL    H6336421   0.459   6.244   1.704 -1.8926 -0.8061  0.9494
   50MOL    H6436422   0.626   6.230   1.724  0.3485 -1.8663  0.7034
   50MOL    H6536423   0.628   6.365   1.930 -0.0918  0.2597  0.0753
   50MOL    H6636424   0.471   6.346   1.966  0.2231 -1.3134 -0.4052
   50MOL    H6736425   0.453   6.558   1.873 -0.8486  1.8695 -1.6934
   50MOL    H6836426   0.401   6.465   1.743 -0.6354 -0.0835 -0.2160
   50MOL    H6936427   0.551   6.614   1.629  1.3745  0.5942  0.0253
   50MOL    H7036428   0.637   6.474   1.635 -0.5912  0.6790 -2.4794
   50MOL    H7136429   0.763   6.528   1.829  0.2699 -0.3433 -1.5938
   50MOL    H7236430   0.678   6.673   1.859  0.3648 -2.4716  2.0708
   50MOL    H7336431   0.854   6.620   1.623 -0.6147  1.8076 -1.7631
   50MOL    H7436432   0.887   6.715   1.765 -1.2456 -0.1434  1.8700
   50MOL    H7536433   0.651   6.798   1.630  0.3090  1.1848 -1.5109
   50MOL    C7636434   0.816   6.882   1.553 -0.8268  0.4197 -0.8579
   50MOL    O7736435   0.938   6.878   1.544 -0.5107 -0.0018 -0.1399
   50MOL    C7836436   0.727   6.981   1.478  0.6276 -0.3006 -0.1509
   50MOL    C7936437   0.780   7.132   1.474 -0.0266 -0.0006  0.6233
   50MOL    C8036438   0.669   7.222   1.413 -0.1573  0.4916 -0.1172
   50MOL    C8136439   0.729   7.359   1.381  0.8506 -0.4629  0.5777
   50MOL    C8236440   0.625   7.447   1.305  0.0117  0.0890  0.8883
   50MOL    C8336441   0.662   7.594   1.299  0.0776  0.5381 -0.2025
   50MOL    C8436442   0.559   7.680   1.220 -0.1824 -0.0994  0.1702
   50MOL    C8536443   0.593   0.135   1.191 -0.3272 -0.6483 -0.1273
   50MOL    C8636444   0.562   0.224   1.312 -0.4480  0.0233  0.5690
   50MOL    C8736445   0.413   0.274   1.349  0.2048  0.9002 -0.1687
   50MOL    C8836446   0.394   0.344   1.483 -0.1237  0.4850  0.1530
   50MOL    N8936447   0.254   0.382   1.504  0.5837  0.1533  0.1737
   50MOL    H9036448   0.630   6.986   1.528  0.9080 -1.7100  0.5588
   50MOL    H9136449   0.716   6.945   1.376  0.7472 -0.0539 -0.2498
   50MOL    H9236450   0.815   7.169   1.570  1.0228 -1.7149  0.9466
   50MOL    H9336451   0.875   7.133   1.419 -0.3513  1.4326  0.0838
   50MOL    H9436452   0.586   7.235   1.482 -1.3500 -1.3785 -1.1789
   50MOL    H9536453   0.631   7.171   1.325  2.2750 -0.3716 -0.7120
   50MOL    H9636454   0.749   7.400   1.480  0.4724  2.1068 -0.3667
   50MOL    H9736455   0.820   7.335   1.326 -1.4374 -0.0184 -3.6113
   50MOL    H9836456   0.531   7.447   1.362  0.8036  1.7672  2.2315
   50MOL    H9936457   0.591   7.415   1.206  2.4339  1.9614 -0.5880
   50MOL   H10036458   0.764   7.614   1.265  1.0742  1.5987  3.1505
   50MOL   H10136459   0.672   7.637   1.399 -1.8793 -1.8360  1.0613
   50MOL   H10236460   0.465   7.673   1.276 -0.5373 -2.5337 -0.6524
   50MOL   H10336461   0.533   7.638   1.123 -3.1038 -0.3516  1.0109
   50MOL   H10436462   0.540   0.177   1.105  0.5198  0.3064 -0.1983
   50MOL   H10536463   0.701   0.141   1.175 -0.0839 -0.8146  1.3765
   50MOL   H10636464   0.626   0.312   1.302  0.9994 -1.1524 -0.8048
   50MOL   H10736465   0.594   0.174   1.403  1.5532  0.8419  0.3361
   50MOL   H10836466   0.352   0.184   1.344 -0.2798  1.3293 -2.7710
   50MOL   H10936467   0.375   0.338   1.270 -3.6461 -0.3496  0.5522
   50MOL   H11036468   0.470   0.421   1.491  3.4553 -2.9521  0.9579
   50MOL   H11136469   0.416   0.271   1.561 -1.4666  0.4890  0.5459
   50MOL   H11236470   0.177   0.351   1.448  1.9698 -0.8804 -1.2098
   50MOL   C11336471   0.224   0.470   1.602  0.4306 -0.1673  0.3481
   50MOL   O11436472   0.312   0.516   1.676  1.0387 -0.0087 -0.5269
   50MOL   C11536473   0.078   0.512   1.610 -0.1680  0.3668  0.8751
   50MOL   C11636474   0.019   0.546   1.745  0.0370  0.1425  0.2358
   50MOL   C11736475   0.006   0.431   1.846  0.5605  0.1841  0.1434
   50MOL   C11836476   7.598   0.472   1.957  0.4243  0.5405  0.2210
   50MOL   C11936477   7.587   0.362   2.059 -0.8065  0.4168 -0.4461
   50MOL   C12036478   7.516   0.410   2.192  0.1633 -0.5569  0.3903
   50MOL   C12136479   7.533   0.303   2.300 -0.0058  0.7815 -0.1030
   50MOL   C12236480   7.489   0.340   2.436  0.3483  0.0299 -0.2088
   50MOL   C12336481   7.521   0.246   2.547  0.1076 -0.1119  0.2376
   50MOL   C12436482   7.470   0.287   2.684  0.5554 -0.3387 -0.4699
   50MOL   C12536483   7.493   0.180   2.793 -0.1590 -0.1045 -0.0065
   50MOL   N12636484   7.421   0.194   2.916 -0.4236 -0.9622  0.3419
   50MOL   H12736485   0.019   0.438   1.556  0.6871 -1.1667  2.0198
   50MOL   H12836486   0.060   0.600   1.547  2.4198 -0.2973 -0.8706
   50MOL   H12936487   0.079   0.623   1.795  0.6437 -1.1007  1.4619
   50MOL   H13036488   7.620   0.593   1.713  0.4337 -0.8255 -2.4453
   50MOL   H13136489   0.103   0.395   1.882  0.8585 -0.9264 -1.6918
   50MOL   H13236490   7.644   0.347   1.803  0.8853  0.2642 -0.4419
   50MOL   H13336491   7.630   0.562   2.011  3.4657 -0.0056 -0.5689
   50MOL   H13436492   7.504   0.492   1.906 -0.5238  0.0195  1.7296
   50MOL   H13536493   7.688   0.344   2.096 -0.9606  1.4995  0.5378
   50MOL   H13636494   7.554   0.269   2.013  1.2796 -0.3118 -0.5255
   50MOL   H13736495   7.410   0.434   2.189  0.1484 -0.4617  1.4767
   50MOL   H13836496   7.566   0.500   2.229  1.1084 -0.8183 -0.2349
   50MOL   H13936497   7.639   0.298   2.322 -0.4361 -0.9855  1.6514
   50MOL   H14036498   7.522   0.201   2.265  0.4215  0.3696  0.9376
   50MOL   H14136499   7.381   0.352   2.441  0.4109  0.6629 -0.2881
   50MOL   H14236500   7.532   0.434   2.469 -0.9403  1.1081 -1.5525
   50MOL   H14336501   7.630   0.248   2.556  0.0257  1.0206  1.0820
   50MOL   H14436502   7.494   0.145   2.516 -0.6286  0.0395  0.3896
   50MOL   H14536503   7.363   0.310   2.679  0.2067 -1.7827  0.1434
   50MOL   H14636504   7.514   0.379   2.723  1.8299 -1.9494  2.0157
   50MOL   H14736505   7.599   0.160   2.804  0.4797  1.0160 -3.3655
   50MOL   H14836506   7.452   0.093   2.742  2.1442 -0.6930 -0.8918
   50MOL   H14936507   7.320   0.198   2.903 -0.4606 -1.4118  0.5012
   50MOL   C15036508   7.461   0.155   3.036  0.5776 -0.2625  0.5801
   50MOL   O15136509   7.573   0.113   3.059  0.4131 -0.2396 -0.0196
   50MOL   C15236510   7.361   0.167   3.158 -0.3744 -0.0028  0.5612
   50MOL   C15336511   7.243   0.080   3.161  0.5413  0.9653  0.0593
   50MOL   C15436512   7.278   7.621   3.135  0.8652  0.0766 -0.1424
   50MOL   C15536513   7.147   7.544   3.121 -0.0234  0.4373  0.3823
   50MOL   C15636514   7.173   7.400   3.128 -0.1300  0.1373 -0.6908
   50MOL   C15736515   7.046   7.316   3.106  0.7112  0.0519 -0.7174
   50MOL   C15836516   7.034   7.271   2.962 -0.6570 -0.6667  0.0581
   50MOL   C15936517   6.924   7.171   2.927 -0.3282 -0.2458  0.1121
   50MOL   C16036518   6.905   7.148   2.769  0.5227 -0.5857  0.1025
   50MOL   C16136519   6.777   7.068   2.731 -0.5981  0.3801 -0.1748
   50MOL   C16236520   6.782   7.018   2.590 -0.1832 -0.4767  0.6476
   50MOL   N16336521   6.682   6.919   2.564 -0.9681 -0.3298 -0.5304
   50MOL   H16436522   7.334   0.272   3.154  0.6910  0.3332  1.6741
   50MOL   H16536523   7.416   0.147   3.250  0.0069  3.9017  1.2604
   50MOL   H16636524   7.195   0.094   3.258  2.0824  1.4126  0.7701
   50MOL   H16736525   7.171   0.112   3.085  0.5640 -0.8436 -0.7456
   50MOL   H16836526   7.345   7.576   3.208  0.6211 -0.7278 -0.4085
   50MOL   H16936527   7.334   7.607   3.043  0.1260 -0.7933 -0.4639
   50MOL   H17036528   7.084   7.566   3.207  1.6873  1.0133  1.4929
   50MOL   H17136529   7.090   7.569   3.031 -0.8898  1.5000  1.2103
   50MOL   H17236530   7.206   7.380   3.230 -0.6719 -1.0835 -0.7382
   50MOL   H17336531   7.254   7.366   3.063  0.5142  2.0982 -0.9519
   50MOL   H17436532   6.950   7.364   3.126 -0.1012 -2.2167  0.9707
   50MOL   H17536533   7.040   7.222   3.160  2.1511 -0.5930 -1.6551
   50MOL   H17636534   7.124   7.217   2.935 -1.8132 -2.3076 -0.5656
   50MOL   H17736535   7.010   7.351   2.892  2.6213 -0.8521 -1.3847
   50MOL   H17836536   6.826   7.216   2.945  0.6100  1.6758  0.5271
   50MOL   H17936537   6.942   7.079   2.982  2.4431  0.7419  0.9344
   50MOL   H18036538   6.997   7.103   2.734  0.9871 -1.0661  1.8873
   50MOL   H18136539   6.877   7.243   2.724 -0.9573 -0.9688  0.1570
   50MOL   H18236540   6.691   7.123   2.767  0.7280  1.4051  1.4995
   50MOL   H18336541   6.787   6.981   2.796 -1.8630  0.7688  0.5409
   50MOL   H18436542   6.873   6.963   2.564 -0.7211 -1.2822  0.4366
   50MOL   H18536543   6.769   7.103   2.523  1.9860 -1.4213 -1.0533
   50MOL   H18636544   6.722   6.827   2.552 -1.1023 -0.6222  1.1143
   50MOL   C18736545   6.561   6.934   2.515 -0.1362 -0.3348  0.8323
   50MOL   O18836546   6.505   7.043   2.518  0.6789 -0.2260 -0.0587
   50MOL   C18936547   6.503   6.806   2.463 -0.4062  0.4477  0.0990
   50MOL   C19036548   6.348   6.804   2.484  0.1968  0.0085  0.3739
   50MOL   C19136549   6.310   6.777   2.630 -0.3548 -0.5671  0.4897
   50MOL   C19236550   6.169   6.726   2.664 -0.4553  0.3194 -1.3635
   50MOL   C19336551   6.139   6.728   2.813  0.9446 -0.3043 -0.3700
   50MOL   C19436552   5.999   6.674   2.846  0.5330  0.3706 -0.2206
   50MOL   C19536553   5.955   6.526   2.826  0.1912  0.7674  0.1185
   50MOL   C19636554   5.808   6.502   2.853 -0.2701 -0.5323  0.4603
   50MOL   C19736555   5.759   6.354   2.822  0.5616 -0.1142 -0.0896
   50MOL   C19836556   5.771   6.318   2.672  0.3359  0.8347 -0.2871
   50MOL   C19936557   5.728   6.431   2.565 -0.4161  0.2421  0.5791
   50MOL   N20036558   5.765   6.377   2.435  0.1987 -0.2497  0.1348
   50MOL   H20136559   6.550   6.723   2.516 -1.7727 -0.9083 -0.7533
   50MOL   H20236560   6.530   6.795   2.358  0.5217  0.0388  0.3728
   50MOL   H20336561   6.297   6.895   2.453 -0.6492 -0.0615  1.5011
   50MOL   H20436562   6.301   6.725   2.426 -3.8369  0.2341  3.1121
   50MOL   H20536563   6.328   6.870   2.685 -2.1029 -0.6487  1.2634
   50MOL   H20636564   6.369   6.695   2.671  0.3090  0.6307  1.9815
   50MOL   H20736565   6.094   6.779   2.605 -2.7310 -2.1051 -0.7520
   50MOL   H20836566   6.151   6.623   2.633  0.0776 -0.5751  1.1732
   50MOL   H20936567   6.153   6.828   2.854 -2.9986 -0.0460  0.5672
   50MOL   H21036568   6.208   6.657   2.858  0.5888 -0.3191  0.1683
   50MOL   H21136569   5.930   6.736   2.789  0.1151  0.5486  0.4788
   50MOL   H21236570   5.985   6.687   2.953  2.5337  1.1454 -0.0383
   50MOL   H21336571   6.021   6.462   2.884  0.6523  0.8166 -0.3425
   50MOL   H21436572   5.969   6.495   2.722  0.5906  1.8306 -0.1458
   50MOL   H21536573   5.748   6.566   2.788 -1.7440 -0.7488  1.6062
   50MOL   H21636574   5.787   6.535   2.955 -1.7635  1.9510 -0.5929
   50MOL   H21736575   5.655   6.349   2.855  0.8880 -0.3684  0.9239
   50MOL   H21836576   5.815   6.283   2.883 -0.2700 -0.0079  0.8371
   50MOL   H21936577   5.708   6.230   2.670  0.0396  0.7185  5.3446
   50MOL   H22036578   5.869   6.277   2.650 -0.2042 -0.1085 -0.9386
   50MOL   H22136579   5.784   6.523   2.582  1.6874 -1.0326  0.7485
   50MOL   H22236580   5.621   6.449   2.574 -0.4177  0.1811  0.6799
   50MOL   H22336581   5.863   6.357   2.420  0.4564  0.0004  1.4952
   50MOL   C22436582   5.675   6.345   2.338 -0.2938  0.2218  0.4547
   50MOL   O22536583   5.553   6.351   2.355 -0.2472  0.1372  0.0811
   50MOL   C22636584   5.733   6.290   2.211 -0.4303 -0.1145 -0.1207
   50MOL   C22736585   5.703   6.373   2.090  0.2570  0.4048  0.3154
   50MOL   C22836586   5.788   6.502   2.081  0.6344  0.7842  0.0956
   50MOL   C22936587   5.746   6.601   1.968  0.3126 -0.5105 -0.0910
   50MOL   C23036588   5.770   6.541   1.825 -0.2074  0.0387 -0.5767
   50MOL   C23136589   5.764   6.647   1.710  0.1033 -0.5986  0.3235
   50MOL   C23236590   5.775   6.594   1.559  0.1740 -0.4311  0.2372
   50MOL   C23336591   5.737   6.702   1.460  0.0117 -0.2966 -0.0702
   50MOL   C23436592   5.685   6.641   1.330 -0.0717  0.6399  0.2299
   50MOL   C23536593   5.779   6.564   1.243 -0.3119  0.1153  0.3700
   50MOL   C23636594   5.712   6.495   1.134 -0.3550 -0.1029  0.3849
   50MOL   N23736595   5.800   6.403   1.069  0.1611  0.0385  0.0220
   50MOL   H23836596   5.690   6.192   2.192 -0.0777 -0.0584 -1.2441
   50MOL   H23936597   5.840   6.274   2.211  0.1795  3.4191 -0.4706
   50MOL   H24036598   5.722   6.311   2.002  0.4007 -1.8887  1.8978
   50MOL   H24136599   5.595   6.377   2.078  0.1070 -1.2068  0.9716
   50MOL   H24236600   5.896   6.487   2.074  0.2323 -1.7568 -1.4585
   50MOL   H24336601   5.767   6.547   2.178 -0.0599  1.4550 -0.3633
   50MOL   H24436602   5.640   6.618   1.981  0.8512  1.5384  1.8374
   50MOL   H24536603   5.794   6.698   1.979 -1.2340  0.3949 -1.2506
   50MOL   H24636604   5.709   6.455   1.799  0.0900 -0.1052 -0.8101
   50MOL   H24736605   5.864   6.487   1.837 -0.1548  0.5609  1.4855
   50MOL   H24836606   5.838   6.723   1.735 -0.3687 -0.3302  0.9201
   50MOL   H24936607   5.663   6.689   1.713  0.0978 -0.3335 -2.3137
   50MOL   H25036608   5.701   6.514   1.553  0.7407 -0.8353 -1.6244
   50MOL   H25136609   5.869   6.553   1.523  1.3982  2.8455 -0.5217
   50MOL   H25236610   5.815   6.777   1.456  0.3829 -0.7290 -1.2485
   50MOL   H25336611   5.655   6.757   1.506  0.3774  1.3278 -1.3068
   50MOL   H25436612   5.639   6.720   1.271  0.4123 -0.2154 -1.3144
   50MOL   H25536613   5.603   6.578   1.365 -0.7374  2.6372  2.4050
   50MOL   H25636614   5.808   6.476   1.301 -1.7889 -0.1587  0.6969
   50MOL   H25736615   5.867   6.623   1.216  2.6278 -3.0160  2.6081
   50MOL   H25836616   5.669   6.565   1.062  0.4896  0.1487  0.1241
   50MOL   H25936617   5.633   6.423   1.157  0.3258 -1.6704 -1.9792
   50MOL   H26036618   5.795   6.305   1.090 -0.6469 -0.3137 -1.6975
   50MOL   C26136619   5.919   6.433   1.005  0.4665  0.4013  0.2258
   50MOL   O26236620   5.951   6.544   0.981 -0.4686 -0.2849  0.3103
   50MOL   C26336621   5.999   6.309   0.964 -0.0002 -0.2171  0.5521
   50MOL   C26436622   6.137   6.299   1.032  0.9399  0.2496 -0.3775
   50MOL   C26536623   6.131   6.232   1.171 -0.6156 -0.2794  0.0600
   50MOL   C26636624   6.123   6.342   1.283  0.2167 -0.3311 -0.0244
   50MOL   C26736625   6.073   6.287   1.417 -0.3908  0.7888  0.5863
   50MOL   C26836626   6.141   6.353   1.545  0.6789  0.2689  0.8209
   50MOL   C26936627   6.078   6.292   1.669 -0.4850  0.1520  0.4100
   50MOL   C27036628   6.148   6.323   1.807 -0.4538  0.1481 -0.6030
   50MOL   C27136629   6.075   6.278   1.931  0.2331 -0.6919  0.0857
   50MOL   C27236630   6.114   6.136   1.972 -0.9201 -0.3443  0.1941
   50MOL   C27336631   6.263   6.100   1.961  0.4948 -0.1801  0.2601
   50MOL   N27436632   6.296   5.957   1.992 -0.0437  0.1764 -0.0206
   50MOL   H27536633   6.007   6.300   0.856  0.2607  1.3987  0.4217
   50MOL   H27636634   5.943   6.218   0.984 -0.5936  0.0316  0.0409
   50MOL   H27736635   6.196   6.225   0.978  1.3010 -0.2413  0.6775
   50MOL   H27836636   6.185   6.396   1.047 -0.0803  0.9318 -1.4228
   50MOL   H27936637   6.210   6.161   1.194 -0.1878 -0.0566 -0.7074
   50MOL   H28036638   6.047   6.163   1.177 -0.9008  0.1265  0.8039
   50MOL   H28136639   6.224   6.377   1.300 -0.2060  0.4778  0.8378
   50MOL   H28236640   6.065   6.432   1.259 -1.2425 -1.7286 -1.9129
   50MOL   H28336641   6.097   6.181   1.426 -3.1497 -0.1252 -1.8875
   50MOL   H28436642   5.964   6.293   1.423 -0.6727 -2.3241 -0.3925
   50MOL   H28536643   6.124   6.460   1.557 -0.1095  0.2305  0.0037
   50MOL   H28636644   6.248   6.330   1.548  0.6365 -0.0647 -0.3232
   50MOL   H28736645   6.062   6.185   1.658  1.7428 -0.2256  0.7029
   50MOL   H28836646   5.977   6.333   1.665 -0.7538 -0.5605 -0.1906
   50MOL   H28936647   6.123   6.429   1.812  1.3891  0.5544  0.0836
   50MOL   H29036648   6.255   6.306   1.800  0.2030  2.7502  2.3117
   50MOL   H29136649   5.969   6.293   1.915  0.9358  1.2039 -3.5474
   50MOL   H29236650   6.096   6.347   2.013 -0.9851 -0.9832  0.6469
   50MOL   H29336651   6.059   6.080   1.898  0.0433  0.8131 -1.4427
   50MOL   H29436652   6.075   6.125   2.073 -0.2498 -0.2425  0.4675
   50MOL   H29536653   6.316   6.172   2.024  1.8430 -0.1278 -0.8963
   50MOL   H29636654   6.299   6.114   1.859  1.5095  2.0712  0.8909
   50MOL   H29736655   6.288   5.890   1.917  4.1471 -1.4289  0.8035
   50MOL   C29836656   6.306   5.903   2.110  0.1321  0.6969 -0.3959
   50MOL   O29936657   6.305   5.965   2.213  0.3934  0.3570 -0.1656
   50MOL   C30036658   6.319   5.749   2.116 -0.7360  0.3645 -0.4512
   50MOL   C30136659   6.187   5.671   2.126 -0.2046  0.4015  0.4611
   50MOL   C30236660   6.089   5.709   2.015  0.5084 -0.1925  0.1728
   50MOL   C30336661   6.129   5.666   1.872  0.4232  0.5765 -0.2311
   50MOL   C30436662   6.051   5.735   1.767  0.2545 -0.0775 -0.0919
   50MOL   C30536663   6.083   5.676   1.629  0.2253  0.7783 -0.7552
   50MOL   C30636664   6.040   5.768   1.511 -0.5240 -0.0033  0.1440
   50MOL   C30736665   6.106   5.731   1.380 -0.2810  0.2400  0.1419
   50MOL   C30836666   6.061   5.820   1.262  0.1799 -0.1272 -0.4276
   50MOL   C30936667   6.164   5.800   1.146  0.1771 -0.1924  0.4320
   50MOL   C31036668   6.134   5.901   1.032 -0.6438  0.0034  0.0571
   50MOL   N31136669   6.232   5.892   0.924 -0.1220  0.7463  0.4116
   50MOL   H31236670   6.375   5.731   2.208 -1.0774  1.7987  0.0433
   50MOL   H31336671   6.376   5.716   2.029 -1.0284 -1.9354  0.1784
   50MOL   H31436672   6.217   5.568   2.109 -0.1855  0.3919  0.5570
   50MOL   H31536673   6.149   5.668   2.228  0.6744 -0.6789  0.7686
   50MOL   H31636674   6.064   5.814   2.020  2.9452  0.4926 -1.0471
   50MOL   H31736675   5.992   5.662   2.032 -0.9698  1.1839 -3.8899
   50MOL   H31836676   6.232   5.694   1.850  0.2831  0.5656 -0.9188
   50MOL   H31936677   6.119   5.557   1.872 -0.9559  0.6933 -0.7002
   50MOL   H32036678   6.073   5.840   1.782  1.0386 -0.4581  1.4458
   50MOL   H32136679   5.944   5.719   1.784 -0.2975  0.3654 -2.8126
   50MOL   H32236680   6.037   5.580   1.609 -0.2122  1.2055 -1.7988
   50MOL   H32336681   6.190   5.653   1.628  0.5788  2.1434  1.4336
   50MOL   H32436682   6.056   5.875   1.524 -1.2701  0.2899 -1.3510
   50MOL   H32536683   5.932   5.767   1.501 -0.6526  0.7416  1.2739
   50MOL   H32636684   6.083   5.624   1.378  0.7631  0.0226 -0.5873
   50MOL   H32736685   6.214   5.735   1.396 -0.2522 -2.6569  0.9689
   50MOL   H32836686   6.060   5.925   1.289 -1.6952  0.3207 -2.1402
   50MOL   H32936687   5.962   5.794   1.222 -0.1780  2.1466 -1.0620
   50MOL   H33036688   6.155   5.697   1.109 -1.1760  0.5902 -1.5209
   50MOL   H33136689   6.268   5.810   1.174  0.5863  0.7999 -1.3794
   50MOL   H33236690   6.118   6.004   1.063  1.6894  0.2449  0.5741
   50MOL   H33336691   6.037   5.875   0.990 -0.9501  1.1017  0.0699
   50MOL   H33436692   6.308   5.826   0.937 -0.0851  0.3944 -1.4404
   50MOL   C33536693   6.215   5.969   0.813 -0.4879  0.3010  0.0900
   50MOL   O33636694   6.127   6.055   0.797 -0.4549 -0.2922 -0.1619
   50MOL   C33736695   6.315   5.937   0.699  0.1608 -0.4090 -0.3451
   50MOL   C33836696   6.242   5.915   0.562  0.3239 -0.5511  0.0780
   50MOL   C33936697   6.343   5.882   0.446 -0.2556  0.0737 -0.0309
   50MOL   C34036698   6.434   6.001   0.408 -0.4514  0.4913  0.5317
   50MOL   C34136699   6.555   5.969   0.317 -0.2470  0.1182  0.5225
   50MOL   C34236700   6.615   6.104   0.259 -0.2274 -0.3548 -0.5620
   50MOL   C34336701   6.730   6.076   0.157  0.0842 -0.5692 -0.6359
   50MOL   C34436702   6.739   6.197   0.063  0.2282  0.1066 -0.2165
   50MOL   C34536703   6.853   6.189   7.659 -0.2013  0.3690  0.4512
   50MOL   C34636704   6.850   6.308   7.566  0.0044 -1.0197  0.1676
   50MOL   C34736705   6.942   6.296   7.442 -0.4934  0.0707  0.2239
   50MOL   N34836706   6.903   6.182   7.361  0.0402 -0.2357  0.0193
   50MOL   H34936707   6.383   5.854   0.720  0.8735  0.0122 -0.9903
   50MOL   H35036708   6.369   6.030   0.685 -2.6125  1.0484 -1.8552
   50MOL   H35136709   6.162   5.841   0.571 -2.4307  2.4110  0.7505
   50MOL   H35236710   6.176   5.994   0.527  1.0157 -1.5811 -3.7531
   50MOL   H35336711   6.287   5.852   0.357  0.3184  0.1722 -0.4254
   50MOL   H35436712   6.402   5.795   0.475 -1.1014 -2.0545 -4.2934
   50MOL   H35536713   6.373   6.077   0.360  2.2076  1.6979 -1.0294
   50MOL   H35636714   6.473   6.041   0.501  0.7816  1.2507 -0.2981
   50MOL   H35736715   6.539   5.900   0.234  2.7520 -1.3009  1.0381
   50MOL   H35836716   6.629   5.909   0.372  1.7498  3.1768  1.2734
   50MOL   H35936717   6.636   6.173   0.341 -2.4559 -0.7082  0.3527
   50MOL   H36036718   6.538   6.148   0.195 -0.2294  1.3314  0.5572
   50MOL   H36136719   6.700   5.990   0.096  0.0645 -0.8889 -0.1731
   50MOL   H36236720   6.821   6.061   0.214  0.2150  0.0898 -0.6679
   50MOL   H36336721   6.755   6.287   0.123 -1.8608  1.3387 -1.4454
   50MOL   H36436722   6.647   6.225   0.011 -1.0668  0.0364  1.9803
   50MOL   H36536723   6.847   6.095   7.603  1.5515  0.0788  0.7153
   50MOL   H36636724   6.951   6.190   0.014 -0.1170  0.1734  0.2915
   50MOL   H36736725   6.884   6.392   7.627 -0.0786 -1.3335  0.6543
   50MOL   H36836726   6.748   6.332   7.534  0.1829  0.4218  0.6158
   50MOL   H36936727   7.036   6.271   7.491 -0.9553  0.3055  1.2347
   50MOL   H37036728   6.935   6.390   7.388 -3.4412  0.1362  0.6394
   50MOL   H37136729   6.938   6.094   7.397 -1.2476 -0.9232 -0.3715
   50MOL   C37236730   6.871   6.189   7.230 -1.0199 -0.2430  0.1898
   50MOL   O37336731   6.862   6.295   7.166 -0.3583 -0.0816  0.4576
   50MOL   C37436732   6.845   6.057   7.166  0.2539  0.2550  0.5325
   50MOL   C37536733   6.911   6.059   7.023  0.7140 -0.2545  0.1034
   50MOL   C37636734   6.890   5.946   6.920 -0.0991 -0.0288  0.0609
   50MOL   C37736735   6.906   5.809   6.986  0.7273 -0.3089 -0.2294
   50MOL   C37836736   6.835   5.699   6.902 -0.2450  0.6372 -0.8138
   50MOL   C37936737   6.865   5.556   6.936  0.3544 -0.6123 -0.0489
   50MOL   C38036738   6.805   5.503   7.069 -0.8107  0.2501 -0.5287
   50MOL   C38136739   6.800   5.352   7.086  0.4879  0.7517  0.6269
   50MOL   C38236740   6.939   5.284   7.081  0.5850 -0.5709  0.5319
   50MOL   C38336741   6.946   5.146   7.147  0.0404 -0.3699 -0.0919
   50MOL   C38436742   7.067   5.049   7.116  0.8432 -0.3933 -0.0631
   50MOL   N38536743   7.040   4.913   7.172  0.4600 -0.2657 -0.1093
   50MOL   H38636744   6.744   6.017   7.160  0.6552 -0.4500 -2.5314
   50MOL   H38736745   6.901   5.985   7.226  1.0723  0.5760  0.1671
   50MOL   H38836746   6.882   6.150   6.970 -1.0613 -1.0834 -0.4040
   50MOL   H38936747   7.019   6.074   7.031  0.6172  0.0657  0.8002
   50MOL   H39036748   6.948   5.957   6.828 -1.9762  0.5410 -1.0777
   50MOL   H39136749   6.788   5.965   6.886 -0.2046 -1.3050 -0.3871
   50MOL   H39236750   7.008   5.792   7.022 -0.1476  0.5714  2.8074
   50MOL   H39336751   6.843   5.810   7.074  0.1818 -2.7670 -0.5614
   50MOL   H39436752   6.870   5.715   6.800 -1.2877 -1.3783 -1.5107
   50MOL   H39536753   6.727   5.714   6.903 -0.3930 -0.3413 -1.3766
   50MOL   H39636754   6.973   5.544   6.932  0.2666 -2.1972  1.5510
   50MOL   H39736755   6.830   5.486   6.860  0.8468 -3.0212  1.8741
   50MOL   H39836756   6.702   5.537   7.073 -0.6023  0.7182  1.2800
   50MOL   H39936757   6.855   5.548   7.154 -0.9133 -0.3404 -0.1549
   50MOL   H40036758   6.747   5.314   6.998  1.8272 -0.3314  0.2679
   50MOL   H40136759   6.757   5.316   7.180  1.1442 -0.3317  0.5258
   50MOL   H40236760   7.009   5.360   7.115  1.8474 -0.7171 -1.6560
   50MOL   H40336761   6.964   5.280   6.975 -0.2812  1.1844  0.2512
   50MOL   H40436762   6.857   5.092   7.113  0.5566 -0.4224 -1.4259
   50MOL   H40536763   6.927   5.159   7.253  1.4138 -0.8656  0.2272
   50MOL   H40636764   7.157   5.092   7.159 -0.8294  1.4219  1.6913
   50MOL   H40736765   7.080   5.042   7.007 -1.4764 -0.1115 -0.3880
   50MOL   H40836766   7.043   4.906   7.273  0.0435 -0.7186 -0.1268
   50MOL   C40936767   7.006   4.804   7.102  0.0935 -0.4844  0.2453
   50MOL   O41036768   6.994   4.795   6.979 -0.7138  0.2470 -0.4225
   50MOL   C41136769   6.966   4.684   7.185 -0.5436  0.4074 -0.3036
   50MOL   C41236770   6.817   4.653   7.184  0.7229  0.4643  0.3014
   50MOL   C41336771   6.728   4.765   7.237 -0.1286  0.3676 -0.4290
   50MOL   C41436772   6.576   4.731   7.240 -0.0035 -0.0213  0.3523
   50MOL   C41536773   6.493   4.839   7.305  0.5778  0.1575 -0.2295
   50MOL   C41636774   6.508   4.981   7.246 -0.1290  0.3029  0.5093
   50MOL   C41736775   6.459   5.001   7.103 -0.1197  0.7223  0.6936
   50MOL   C41836776   6.465   5.153   7.058 -0.0936 -0.3189  0.1885
   50MOL   C41936777   6.381   5.261   7.137 -0.3197 -0.5333 -0.1989
   50MOL   C42036778   6.228   5.246   7.130 -0.0455  0.3307 -0.2683
   50MOL   C42136779   6.155   5.345   7.222  0.3266 -0.1422  0.5318
   50MOL   N42236780   6.008   5.346   7.215  0.1216  0.0679 -0.1661
   50MOL   H42336781   7.006   4.693   7.286 -1.1537  2.5418 -0.2322
   50MOL   H42436782   7.024   4.601   7.144 -0.9678 -0.7058  1.2781
   50MOL   H42536783   6.784   4.625   7.084 -1.1695  2.4678  0.3297
   50MOL   H42636784   6.804   4.562   7.243 -2.3161  1.4841  1.3220
   50MOL   H42736785   6.751   4.842   7.164  1.4167 -2.6256 -3.2664
   50MOL   H42836786   6.760   4.784   7.340 -0.9751 -2.3433  0.3883
   50MOL   H42936787   6.539   4.718   7.138 -2.7010  0.6031  1.2151
   50MOL   H43036788   6.555   4.631   7.276  2.3492 -0.6229  0.1600
   50MOL   H43136789   6.517   4.838   7.411  1.7958 -3.3918 -0.4573
   50MOL   H43236790   6.385   4.823   7.297  0.2305  1.0499  2.2799
   50MOL   H43336791   6.608   5.020   7.262 -0.7003  1.9461  0.1651
   50MOL   H43436792   6.447   5.049   7.307  1.7799  2.2787  0.3029
   50MOL   H43536793   6.353   4.975   7.093 -0.1418  1.4933 -1.3889
   50MOL   H43636794   6.516   4.930   7.042  0.2100  1.7939 -0.2617
   50MOL   H43736795   6.419   5.155   6.959 -0.8906  0.7912  0.5660
   50MOL   H43836796   6.567   5.186   7.040 -0.4948  0.7898 -0.1372
   50MOL   H43936797   6.393   5.362   7.100 -0.1656 -0.0152  1.2370
   50MOL   H44036798   6.425   5.256   7.236  1.9713 -1.9973 -1.2506
   50MOL   H44136799   6.196   5.147   7.163 -2.7013  1.2436  0.0090
   50MOL   H44236800   6.207   5.257   7.023  1.2867  0.8639 -0.4775
   50MOL   H44336801   6.199   5.442   7.197  0.4392 -0.1791  0.5840
   50MOL   H44436802   6.187   5.327   7.325 -2.0412 -0.8156  1.1590
   50MOL   H44536803   5.962   5.257   7.204  2.8928 -1.2828 -1.6060
   50MOL   C44636804   5.939   5.452   7.189  0.0288  0.3652 -0.1966
   50MOL   O44736805   5.989   5.562   7.170 -0.7151 -0.1812 -0.6524
   50MOL   C44836806   5.786   5.432   7.174 -0.2229 -0.3715 -0.0110
   50MOL   C44936807   5.694   5.549   7.222  0.9810  0.3049 -0.0318
   50MOL   C45036808   5.545   5.514   7.237 -0.3214  0.4052 -0.7211
   50MOL   C45136809   5.480   5.637   7.293  0.1214 -0.4939 -0.8738
   50MOL   C45236810   5.320   5.626   7.300 -0.1112 -0.5154  0.2883
   50MOL   C45336811   5.263   5.764   7.349  0.3168 -0.5215 -0.3369
   50MOL   C45436812   5.136   5.741   7.430  0.0255 -0.7767 -0.3938
   50MOL   C45536813   5.082   5.873   7.503  0.6338 -0.0531 -0.3093
   50MOL   C45636814   5.003   5.967   7.408 -0.6900  0.0554  0.0596
   50MOL   C45736815   4.949   6.081   7.501  0.4725  0.5873  0.3853
   50MOL   C45836816   4.870   6.190   7.430  0.4176  0.0549 -0.0060
   50MOL   N45936817   4.944   6.263   7.328  0.2082 -0.5218 -0.4028
   50MOL   H46036818   5.763   5.342   7.231  2.0298 -0.0447  1.4837
   50MOL   H46136819   5.778   5.413   7.067 -1.4828 -2.4221  0.4107
   50MOL   H46236820   5.731   5.583   7.319 -2.1458 -0.0037  1.3319
   50MOL   H46336821   5.697   5.638   7.158 -0.3465  1.2806  1.2259
   50MOL   H46436822   5.525   5.429   7.302  2.7125 -0.5786 -1.0110
   50MOL   H46536823   5.500   5.495   7.140 -0.3635  1.4025 -0.9099
   50MOL   H46636824   5.526   5.650   7.391  1.0014  1.2151 -1.4955
   50MOL   H46736825   5.503   5.725   7.233 -0.1599  0.0588 -0.1768
   50MOL   H46836826   5.293   5.549   7.371  1.1244  0.6602  2.0748
   50MOL   H46936827   5.279   5.602   7.202 -1.2436 -2.8871  1.2929
   50MOL   H47036828   5.233   5.831   7.268  1.0335  0.3155  0.0904
   50MOL   H47136829   5.343   5.818   7.399  0.7528 -1.1656 -0.3275
   50MOL   H47236830   5.139   5.660   7.503 -0.2927  0.3739  0.9263
   50MOL   H47336831   5.057   5.716   7.359 -0.5221  0.7691 -0.3398
   50MOL   H47436832   5.171   5.925   7.539  0.4638 -1.0073  1.5061
   50MOL   H47536833   5.014   5.848   7.583  0.0134  2.3029 -0.0469
   50MOL   H47636834   4.928   5.905   7.358  0.3720  0.8595 -2.6339
   50MOL   H47736835   5.066   6.010   7.330 -0.7496  0.0031 -0.0185
   50MOL   H47836836   5.034   6.128   7.552  1.1097  0.2823 -0.3774
   50MOL   H47936837   4.889   6.029   7.575  1.2400 -0.5808  0.1983
   50MOL   H48036838   4.843   6.258   7.511  1.0607 -0.1609  0.3925
   50MOL   H48136839   4.776   6.151   7.391  1.2808 -1.3839 -0.6778
   50MOL   H48236840   5.034   6.302   7.352 -0.7201  4.5382 -4.2812
   50MOL   C48336841   4.891   6.318   7.224  0.0320 -0.6424 -0.1951
   50MOL   O48436842   4.772   6.322   7.211 -0.3968  0.0503 -0.6442
   50MOL   C48536843   4.982   6.407   7.132 -0.3492  0.0673 -0.4954
   50MOL   C48636844   4.967   6.554   7.166 -0.0963  0.8093 -0.8366
   50MOL   C48736845   5.072   6.641   7.088 -0.0860 -0.2022 -0.1017
   50MOL   C48836846   5.084   6.781   7.159 -0.5379  0.4306 -0.1842
   50MOL   C48936847   5.045   6.905   7.077 -0.1373 -0.9673 -0.0514
   50MOL   C49036848   5.018   7.040   7.156 -0.0326  0.2869  0.9547
   50MOL   C49136849   5.146   7.068   7.245  0.5001 -0.0194  0.4719
   50MOL   C49236850   5.136   7.203   7.311  0.0040  0.1072  0.5102
   50MOL   C49336851   5.265   7.281   7.344  0.0107  0.4246  0.3518
   50MOL   C49436852   5.237   7.426   7.383 -0.5285 -0.4562  0.0159
   50MOL   C49536853   5.357   7.514   7.410 -0.7524  0.0950 -0.9861
   50MOL   N49636854   5.449   7.522   7.295  0.3974  0.1415  0.6299
   50MOL   H49736855   4.963   6.377   7.029 -1.7923  1.1896 -0.5640
   50MOL   H49836856   5.084   6.380   7.159  0.1315  0.3146 -2.0395
   50MOL   H49936857   4.869   6.592   7.140 -0.0170  0.7694 -1.2093
   50MOL   H50036858   4.981   6.566   7.273  0.0724 -0.2351 -0.7385
   50MOL   H50136859   5.041   6.643   6.983  1.5486  1.5461 -0.5709
   50MOL   H50236860   5.171   6.597   7.095 -1.7988 -3.9967  1.4446
   50MOL   H50336861   5.034   6.788   7.255  0.9985 -1.2792  0.7821
   50MOL   H50436862   5.189   6.791   7.188 -0.8512  1.2002  0.7389
   50MOL   H50536863   4.960   6.893   7.010 -0.3560 -0.6819  0.1728
   50MOL   H50636864   5.136   6.926   7.022  0.2738  2.1628  1.6927
   50MOL   H50736865   4.922   7.032   7.208 -1.1119 -0.0302 -1.0592
   50MOL   H50836866   5.014   7.124   7.087  1.8223  2.6920  3.6131
   50MOL   H50936867   5.225   7.069   7.169  0.7591 -3.0595  0.6399
   50MOL   H51036868   5.161   6.987   7.316 -0.2388 -1.3670 -0.8792
   50MOL   H51136869   5.082   7.200   7.406  1.4360 -2.0316  1.2842
   50MOL   H51236870   5.080   7.270   7.246 -0.1120  1.3844  1.8793
   50MOL   H51336871   5.328   7.294   7.256 -2.2077  1.1974 -1.1665
   50MOL   H51436872   5.323   7.225   7.417  0.5684  1.6387  0.8474
   50MOL   H51536873   5.171   7.434   7.470  1.4037  0.0807  1.4578
   50MOL   H51636874   5.186   7.469   7.296 -0.8589 -0.1779  0.3464
   50MOL   H51736875   5.404   7.487   7.504 -0.4841 -0.4806 -1.2829
   50MOL   H51836876   5.316   7.614   7.426 -1.2630 -0.2204 -0.2882
   50MOL   H51936877   5.437   7.471   7.209 -1.1586  1.4373  0.0635
   50MOL   C52036878   5.559   7.605   7.299  0.9307 -0.0943  0.5802
   50MOL   O52136879   5.594   7.672   7.394  0.4125  0.8112  0.2494
   50MOL   C52236880   5.630   7.619   7.161 -0.9198 -0.2320 -0.0469
   50MOL   C52336881   5.732   0.041   7.140 -0.5152 -0.6172 -0.0795
   50MOL   C52436882   5.671   0.189   7.140 -0.2506  0.2023  0.4897
   50MOL   C52536883   5.587   0.230   7.015 -0.6851  0.1880  0.5297
   50MOL   C52636884   5.553   0.390   7.024 -0.7430  0.2059  0.5263
   50MOL   C52736885   5.470   0.439   6.901  0.4203  0.4404 -0.3991
   50MOL   C52836886   5.448   0.591   6.916 -0.4181  0.2518  0.1863
   50MOL   C52936887   5.376   0.649   6.800 -0.4624 -0.2654  0.2185
   50MOL   C53036888   5.466   0.661   6.681  0.5258  0.3526 -0.2151
   50MOL   C53136889   5.394   0.682   6.552 -0.2390  0.3201 -0.0414
   50MOL   C53236890   5.290   0.794   6.555 -0.0596 -0.2303 -0.2503
   50MOL   N53336891   5.252   0.837   6.416  0.3179  0.9203 -0.3418
   50MOL   H53436892   5.546   7.643   7.095  0.0532 -0.7247 -1.4935
   50MOL   H53536893   5.658   7.520   7.125  0.2819  0.1191 -0.0969
   50MOL   H53636894   5.812   0.019   7.210  0.6340 -2.1115 -1.8322
   50MOL   H53736895   5.783   0.025   7.045 -0.5408  0.1711 -0.2305
   50MOL   H53836896   5.754   0.256   7.162 -0.3208 -0.0237  1.4433
   50MOL   H53936897   5.601   0.196   7.223 -0.8955 -3.6916  0.3691
   50MOL   H54036898   5.640   0.212   6.922 -0.0839 -0.5395  1.0113
   50MOL   H54136899   5.496   0.170   7.011 -0.8209  0.3313  1.2925
   50MOL   H54236900   5.644   0.450   7.021 -0.9792  0.5405  0.0348
   50MOL   H54336901   5.496   0.425   7.109 -1.3535  3.4050 -1.1439
   50MOL   H54436902   5.378   0.381   6.902  0.3676  0.4937 -1.3840
   50MOL   H54536903   5.509   0.409   6.803 -0.5032 -2.1742  0.0104
   50MOL   H54636904   5.540   0.644   6.941 -0.6354  1.8827 -2.2543
   50MOL   H54736905   5.376   0.623   6.992 -1.7196  1.3589 -1.4717
   50MOL   H54836906   5.344   0.752   6.818 -1.8999 -0.7763  0.6573
   50MOL   H54936907   5.295   0.580   6.776 -0.3432 -0.5616  0.6588
   50MOL   H55036908   5.535   0.576   6.679 -0.2619 -0.2505 -3.3020
   50MOL   H55136909   5.514   0.755   6.706 -0.6572  0.4706  1.7735
   50MOL   H55236910   5.352   0.589   6.514 -0.4918  0.9711 -1.3988
   50MOL   H55336911   5.475   0.701   6.482  0.4998 -0.3195  0.6240
   50MOL   H55436912   5.324   0.885   6.603  1.4160 -0.9435  0.0904
   50MOL   H55536913   5.201   0.765   6.612 -0.4717  0.8860 -0.3176
   50MOL   H55636914   5.183   0.777   6.374  1.8182 -0.7045 -0.5567
   50MOL   C55736915   5.299   0.943   6.344  0.4656  0.8816  0.1219
   50MOL   O55836916   5.385   1.015   6.383  0.0374 -0.5584  0.4623
   50MOL   C55936917   5.230   0.980   6.202  0.2061 -0.4528 -0.8440
   50MOL   C56036918   5.317   0.961   6.078 -0.7291 -0.5889  0.0514
   50MOL   C56136919   5.396   0.820   6.080  0.2036 -0.7195 -0.1973
   50MOL   C56236920   5.303   0.705   6.085 -0.2600  0.1857  0.6236
   50MOL   C56336921   5.368   0.582   6.139 -0.0651  0.2971 -0.2785
   50MOL   C56436922   5.277   0.455   6.144  0.1086 -0.4285  0.2381
   50MOL   C56536923   5.342   0.334   6.217 -0.1372 -0.1846 -0.1550
   50MOL   C56636924   5.448   0.258   6.148 -0.0407 -0.5725 -0.0775
   50MOL   C56736925   5.495   0.134   6.234  0.3787 -0.5432 -0.2756
   50MOL   C56836926   5.621   0.064   6.179  0.0347  0.1753 -0.9242
   50MOL   C56936927   5.670   7.640   6.262  0.4262 -0.5333 -0.5346
   50MOL   N57036928   5.756   7.550   6.194 -0.8314 -0.1763  0.2987
   50MOL   H57136929   5.216   1.088   6.200 -0.9994 -0.5649  1.0757
   50MOL   H57236930   5.139   0.921   6.188  0.1316 -0.7843  0.9755
   50MOL   H57336931   5.255   0.971   5.990 -2.1111 -2.0142  0.8475
   50MOL   H57436932   5.391   1.041   6.082  0.5347 -1.7861  0.8037
   50MOL   H57536933   5.462   0.813   6.167 -0.1969 -1.5477  0.0373
   50MOL   H57636934   5.456   0.810   5.990  1.0425  0.6001  0.1942
   50MOL   H57736935   5.208   0.707   6.139  0.0725  1.3390  1.1637
   50MOL   H57836936   5.271   0.682   5.984 -1.6633  0.8144  0.9121
   50MOL   H57936937   5.409   0.596   6.239 -0.2074  0.1606 -0.1997
   50MOL   H58036938   5.455   0.549   6.083 -1.3728 -2.1144 -0.9687
   50MOL   H58136939   5.239   0.431   6.044  1.7561  0.2950 -0.5802
   50MOL   H58236940   5.186   0.477   6.200 -0.1597  1.3622 -0.8377
   50MOL   H58336941   5.261   0.266   6.243  1.2441 -2.4020 -1.5563
   50MOL   H58436942   5.381   0.362   6.315  0.3124  0.5086 -0.5235
   50MOL   H58536943   5.533   0.320   6.118  0.5667 -1.0138  0.7256
   50MOL   H58636944   5.403   0.214   6.059  1.1938 -0.7548 -0.6327
   50MOL   H58736945   5.417   0.061   6.256 -1.3677  0.7574 -1.9387
   50MOL   H58836946   5.519   0.185   6.327 -0.6146  0.7577 -0.7132
   50MOL   H58936947   5.705   0.133   6.182  0.2462 -0.0894 -0.6772
   50MOL   H59036948   5.610   0.032   6.075  0.1753  0.5373 -1.0506
   50MOL   H59136949   5.591   7.579   6.306  1.4614 -1.6813 -0.2549
   50MOL   H59236950   5.717   7.682   6.351 -2.5358  1.8432  0.0053
   50MOL   H59336951   5.719   7.460   6.165 -0.5451  0.2697 -1.5245
   50MOL   C59436952   5.889   7.573   6.192 -0.3176 -0.3756  0.5697
   50MOL   O59536953   5.945   7.681   6.228 -0.2932  0.6531 -0.8233
   50MOL   C59636954   5.976   7.456   6.133  0.3331  0.1755 -0.4428
   50MOL   C59736955   6.125   7.494   6.122 -0.2702  0.4726 -0.0160
   50MOL   C59836956   6.194   7.371   6.067 -0.2284 -0.1192  0.6944
   50MOL   C59936957   6.339   7.416   6.049  0.4530 -0.4677 -0.2712
   50MOL   C60036958   6.425   7.310   5.980 -0.0865 -0.3122 -0.1010
   50MOL   C60136959   6.540   7.363   5.902 -0.4454 -0.0962 -0.1578
   50MOL   C60236960   6.626   7.255   5.834  0.0373 -0.5494  0.4253
   50MOL   C60336961   6.745   7.306   5.759 -0.0342  0.2172 -0.6926
   50MOL   C60436962   6.827   7.192   5.706 -0.1714 -0.8078  0.4435
   50MOL   C60536963   6.949   7.239   5.619 -0.5440  0.0497  0.2007
   50MOL   C60636964   7.050   7.120   5.597  0.3439  0.1067  0.4305
   50MOL   N60736965   7.162   7.178   5.532  0.6061 -0.5897  0.3932
   50MOL   H60836966   5.930   7.424   6.039  2.6213  0.2341 -1.6105
   50MOL   H60936967   5.966   7.380   6.211 -1.5110  0.5460 -0.3070
   50MOL   H61036968   6.129   7.580   6.055  0.3518  0.8697  0.5200
   50MOL   H61136969   6.181   7.522   6.211 -0.7587 -1.2841  0.8591
   50MOL   H61236970   6.150   7.351   5.968  2.1088 -0.8508 -0.2286
   50MOL   H61336971   6.196   7.286   6.135 -0.0922 -0.9295 -0.3021
   50MOL   H61436972   6.355   7.510   5.996  1.4794 -0.0347  0.7842
   50MOL   H61536973   6.386   7.426   6.147  0.6517 -0.3328 -0.3790
   50MOL   H61636974   6.364   7.275   5.896 -0.1058 -0.1800 -0.1424
   50MOL   H61736975   6.455   7.223   6.039  2.2184 -1.0816 -2.2588
   50MOL   H61836976   6.598   7.435   5.961 -1.4006  0.8057 -0.3117
   50MOL   H61936977   6.505   7.434   5.827  2.2279  1.5417  0.0506
   50MOL   H62036978   6.557   7.203   5.768 -0.9850  0.2216  0.8779
   50MOL   H62136979   6.662   7.178   5.902  0.8524 -3.0026 -2.6421
   50MOL   H62236980   6.799   7.370   5.829  0.2354  0.4652 -1.1295
   50MOL   H62336981   6.715   7.376   5.682 -2.5431  1.1241  1.0343
   50MOL   H62436982   6.769   7.110   5.666 -2.6829 -0.3562  3.0246
   50MOL   H62536983   6.867   7.145   5.796  1.5076  2.0507  1.2529
   50MOL   H62636984   7.003   7.308   5.683 -0.6860  0.9636 -0.6659
   50MOL   H62736985   6.919   7.277   5.521  0.8628 -1.7186 -0.9736
   50MOL   H62836986   6.999   7.049   5.531  0.7237 -1.6432  1.9800
   50MOL   H62936987   7.082   7.070   5.688  2.4504 -0.4460 -0.6027
   50MOL   H63036988   7.197   7.269   5.555 -0.6624 -0.4154  1.6755
   50MOL   C63136989   7.230   7.115   5.435 -1.0113  0.1749 -0.2932
   50MOL   O63236990   7.196   7.010   5.377  0.0855 -0.7121 -0.6625
   50MOL   C63336991   7.369   7.174   5.399 -0.0135  0.4549 -0.3747
   50MOL   C63436992   7.391   7.177   5.243  0.6667  0.6454 -0.7352
   50MOL   C63536993   7.287   7.254   5.153 -0.0406 -0.1224 -0.8224
   50MOL   C63636994   7.294   7.409   5.170 -0.5446  0.3469 -0.2379
   50MOL   C63736995   7.241   7.488   5.054  0.1700 -0.0574  0.6611
   50MOL   C63836996   7.276   7.641   5.059 -0.0622  1.2715  0.6984
   50MOL   C63936997   7.173   0.047   4.989 -0.0017  0.2318  0.0210
   50MOL   C64036998   7.223   0.195   5.007 -0.2692 -0.4174 -0.0479
   50MOL   C64136999   7.156   0.261   5.124  0.2721 -0.2388 -0.1714
   50MOL   C64237000   7.239   0.380   5.173  0.1798 -0.7418  0.5506
   50MOL   C64337001   7.167   0.478   5.268  0.6717 -0.1121  0.1355
   50MOL   N64437002   7.247   0.583   5.317 -0.1030  0.3425  0.0976
   50MOL   H64537003   7.442   7.115   5.454  0.6252  2.0021  0.4734
   50MOL   H64637004   7.370   7.276   5.438 -0.8895  0.3684 -0.1068
   50MOL   H64737005   7.491   7.219   5.227  2.3961 -3.7869 -2.3037
   50MOL   H64837006   7.409   7.075   5.209  0.4245  0.2031  0.4315
   50MOL   H64937007   7.186   7.220   5.174  0.8077 -2.0810  0.2099
   50MOL   H65037008   7.311   7.220   5.052  0.5236 -0.6318 -0.5201
   50MOL   H65137009   7.239   7.428   5.262  0.9035 -1.2382  0.9805
   50MOL   H65237010   7.399   7.432   5.189 -0.5983  0.3110  0.1051
   50MOL   H65337011   7.133   7.477   5.046 -0.1804  3.0547  0.6458
   50MOL   H65437012   7.280   7.442   4.963 -0.0634 -0.4629  0.7634
   50MOL   H65537013   7.380   7.643   5.026  0.5638 -1.8627  2.3159
   50MOL   H65637014   7.279   7.660   5.166 -0.3730 -0.4284  1.0259
   50MOL   H65737015   7.078   0.033   5.039  0.3097  0.8068  0.7870
   50MOL   H65837016   7.157   0.018   4.885  0.1994 -0.3884  0.1592
   50MOL   H65937017   7.188   0.247   4.917 -0.3123  0.1192  0.2791
   50MOL   H66037018   7.330   0.209   5.021  0.2179 -3.5481 -0.4332
   50MOL   H66137019   7.146   0.192   5.208 -2.6947 -0.7425 -0.9107
   50MOL   H66237020   7.066   0.304   5.082  0.8345  0.2952 -0.8251
   50MOL   H66337021   7.266   0.426   5.078  0.5606 -1.3188  0.3785
   50MOL   H66437022   7.331   0.350   5.223  0.7060  2.2982  1.5101
   50MOL   H66537023   7.128   0.414   5.348  0.1313 -0.1861 -0.1875
   50MOL   H66637024   7.079   0.517   5.217 -0.1729 -1.2343  0.7185
   50MOL   H66737025   7.346   0.569   5.305  0.0866  0.3506  1.5026
   50MOL   C66837026   7.199   0.697   5.368 -1.1520 -0.1493 -0.2347
   50MOL   O66937027   7.090   0.716   5.403 -0.1504 -0.8802 -0.0754
   50MOL   C67037028   7.307   0.803   5.393  1.0134 -0.1564  0.2918
   50MOL   C67137029   7.244   0.933   5.433  0.8466  0.4012  0.2294
   50MOL   C67237030   7.359   1.031   5.479 -0.1329  0.0550 -0.5826
   50MOL   C67337031   7.311   1.160   5.526  0.6121  0.9169  0.1666
   50MOL   C67437032   7.427   1.244   5.587 -0.2889 -0.0884  0.4359
   50MOL   C67537033   7.382   1.389   5.621 -0.3812  0.2712 -0.0182
   50MOL   C67637034   7.479   1.479   5.701 -0.1395 -0.6334  0.2121
   50MOL   C67737035   7.416   1.622   5.726  0.2788  0.4624  0.3239
   50MOL   C67837036   7.487   1.693   5.842 -0.6030 -0.0068 -0.5320
   50MOL   C67937037   7.457   1.837   5.843 -0.7975  0.0062  0.5861
   50MOL   C68037038   7.502   1.908   5.967  0.1774 -0.7556  0.5879
   50MOL   N68137039   7.409   1.880   6.075  0.1364 -0.2283  0.0998
   50MOL   H68237040   7.367   0.814   5.303 -1.0874 -1.1270 -1.2477
   50MOL   H68337041   7.378   0.763   5.466  1.0755  0.6291  0.6670
   50MOL   H68437042   7.191   0.977   5.348 -1.8322 -1.5620  0.8313
   50MOL   H68537043   7.183   0.911   5.520  0.6782  0.2402  0.0696
   50MOL   H68637044   7.442   1.040   5.409  0.1837 -1.1551 -0.3789
   50MOL   H68737045   7.412   0.988   5.565  0.4287 -0.9697 -1.4245
   50MOL   H68837046   7.254   1.221   5.457 -0.8643  1.6504  1.9767
   50MOL   H68937047   7.239   1.140   5.606 -1.3196  1.3800 -1.3976
   50MOL   H69037048   7.511   1.253   5.518  0.6787  1.0773  1.7395
   50MOL   H69137049   7.472   1.199   5.675  0.2988 -0.1825  0.0855
   50MOL   H69237050   7.290   1.387   5.680  0.2931  2.3960  1.1728
   50MOL   H69337051   7.345   1.445   5.535  1.9044  1.6812 -0.1393
   50MOL   H69437052   7.574   1.485   5.646  0.2809  1.4255  1.1281
   50MOL   H69537053   7.476   1.446   5.805 -2.4310  2.6919  1.2762
   50MOL   H69637054   7.315   1.594   5.754  0.2970 -2.2437 -2.0142
   50MOL   H69737055   7.423   1.674   5.630  2.7416  0.7541  0.6301
   50MOL   H69837056   7.595   1.679   5.846 -0.5517  0.6203  0.2944
   50MOL   H69937057   7.461   1.651   5.939  1.1398  0.6742  0.2535
   50MOL   H70037058   7.348   1.847   5.835 -0.9553 -1.3000  0.9625
   50MOL   H70137059   7.502   1.874   5.751  0.8227 -3.8646 -0.2810
   50MOL   H70237060   7.503   2.014   5.940 -0.4834 -1.2195 -1.2917
   50MOL   H70337061   7.605   1.888   5.995  0.4948 -1.8939 -1.2901
   50MOL   H70437062   7.317   1.855   6.041 -0.0315 -1.1663  1.2057
   50MOL   C70537063   7.439   1.903   6.202 -0.0904 -1.0355 -0.5198
   50MOL   O70637064   7.552   1.931   6.239  0.1518  0.2603  0.2055
   50MOL   C70737065   7.327   1.874   6.304  0.1489 -0.4449 -0.5154
   50MOL   C70837066   7.202   1.981   6.300 -0.0263  0.3735 -0.4423
   50MOL   C70937067   7.081   1.953   6.383  0.9013  0.1206 -0.4401
   50MOL   C71037068   6.970   2.060   6.369 -0.3832 -0.6903  0.2322
   50MOL   C71137069   6.832   2.013   6.428 -0.0290  0.1892  0.3963
   50MOL   C71237070   6.712   2.090   6.373  0.2792 -0.2373 -0.0794
   50MOL   C71337071   6.584   2.085   6.471  0.1518 -0.5123 -0.0684
   50MOL   C71437072   6.463   2.171   6.419  0.2645  0.0184 -0.2112
   50MOL   C71537073   6.333   2.166   6.498  0.3973 -0.5292 -0.3761
   50MOL   C71637074   6.230   2.282   6.498 -0.6752  0.4147 -0.1065
   50MOL   C71737075   6.111   2.268   6.592  0.1554  0.6246 -0.3668
   50MOL   N71837076   6.004   2.185   6.542  0.3111  0.3183  0.3676
   50MOL   H71937077   7.366   1.867   6.406  0.7161 -0.4859 -0.7301
   50MOL   H72037078   7.292   1.776   6.271  2.4022 -2.6239  3.2053
   50MOL   H72137079   7.236   2.077   6.337 -0.0146 -0.8584  2.8480
   50MOL   H72237080   7.175   1.993   6.195  2.7317  0.4541 -1.1855
   50MOL   H72337081   7.114   1.940   6.487 -0.1082  0.4225 -0.0804
   50MOL   H72437082   7.054   1.849   6.366  1.0748 -0.1250  0.6935
   50MOL   H72537083   6.987   2.150   6.428 -2.8946 -1.4824  2.2780
   50MOL   H72637084   6.957   2.091   6.265  0.4856 -0.7815  0.0932
   50MOL   H72737085   6.841   2.027   6.536  0.1644 -0.2696  0.4395
   50MOL   H72837086   6.816   1.906   6.417 -2.4471  0.6749 -1.1129
   50MOL   H72937087   6.693   2.030   6.284 -0.5501 -0.5791  0.3261
   50MOL   H73037088   6.738   2.194   6.354  1.8817 -0.9927 -2.2765
   50MOL   H73137089   6.612   2.128   6.567 -2.5105  1.6773 -0.2276
   50MOL   H73237090   6.540   1.986   6.483 -0.2494 -0.7173 -3.0381
   50MOL   H73337091   6.444   2.159   6.312  1.5825  0.5054 -0.5025
   50MOL   H73437092   6.496   2.274   6.424 -1.5689  0.6088  0.1891
   50MOL   H73537093   6.360   2.143   6.601  1.9687  0.7171 -0.4814
   50MOL   H73637094   6.283   2.078   6.459 -0.5387  0.0180 -0.4279
   50MOL   H73737095   6.198   2.308   6.397 -0.8927  0.3838 -0.0454
   50MOL   H73837096   6.273   2.374   6.540  0.6737  1.5878 -3.8841
   50MOL   H73937097   6.071   2.365   6.619 -0.6683  0.3181 -0.4608
   50MOL   H74037098   6.144   2.225   6.686 -0.7765 -0.3067 -0.4550
   50MOL   H74137099   5.922   2.202   6.598  0.0360  1.1369 -0.2875
   50MOL   H74237100   5.986   2.220   6.449 -0.4578  0.5412  0.5967
   51MOL     C137101   1.409   0.698   2.789  0.6435 -0.0025 -0.0453
   51MOL     O237102   1.457   0.700   2.903  0.3366  0.2852  0.0550
   51MOL     C337103   1.471   0.620   2.668  0.2848  0.1264  0.0120
   51MOL     C437104   1.573   0.511   2.708 -0.1607 -0.0357  0.1361
   51MOL     C537105   1.644   0.459   2.581  0.0904  0.5755 -0.4301
   51MOL     C637106   1.760   0.537   2.531  0.0164 -0.7679  0.0581
   51MOL     C737107   1.809   0.481   2.393 -0.7998 -0.6466  0.4468
   51MOL     C837108   1.943   0.553   2.339 -0.2523 -0.1727  0.2829
   51MOL     C937109   1.980   0.529   2.194 -0.0055 -0.0729  0.2292
   51MOL    C1037110   2.107   0.606   2.150 -0.2202  0.7453  0.1915
   51MOL    C1137111   2.149   0.566   2.005  0.0372  0.4276 -0.1878
   51MOL    C1237112   2.262   0.652   1.948  0.2028  0.0433  0.7908
   51MOL    C1337113   2.308   0.620   1.808 -0.2831  0.7521  0.1246
   51MOL    N1437114   2.375   0.488   1.794 -0.4751 -0.2770  0.1651
   51MOL    H1537115   1.517   0.705   2.616  0.2494  0.5206  0.6134
   51MOL    H1637116   1.385   0.582   2.613  1.4198 -1.7385 -0.4888
   51MOL    H1737117   1.654   0.548   2.772  0.3595  0.1485 -0.6158
   51MOL    H1837118   1.530   0.427   2.763 -2.2680 -0.1836 -1.6886
   51MOL    H1937119   1.577   0.442   2.497 -1.7475  0.4084  1.0431
   51MOL    H2037120   1.683   0.360   2.609 -1.7838  0.1406  0.6889
   51MOL    H2137121   1.738   0.644   2.528  3.5324  0.0254 -0.7575
   51MOL    H2237122   1.837   0.509   2.604 -1.9582 -0.9077  2.1392
   51MOL    H2337123   1.723   0.474   2.326 -1.2857  2.4248  0.6682
   51MOL    H2437124   1.840   0.376   2.398 -1.2281 -0.7432  1.0361
   51MOL    H2537125   2.032   0.518   2.392  0.3473  2.0652  0.8033
   51MOL    H2637126   1.926   0.660   2.353 -1.7252 -0.2092 -1.1575
   51MOL    H2737127   1.891   0.557   2.138 -0.3932  4.5842  2.9660
   51MOL    H2837128   2.001   0.421   2.191 -0.8535 -0.1920 -3.1002
   51MOL    H2937129   2.196   0.581   2.208 -0.4529 -0.6597 -0.0431
   51MOL    H3037130   2.082   0.711   2.138  0.2128  0.7934 -0.2713
   51MOL    H3137131   2.070   0.569   1.929  0.0849 -0.1406 -0.2570
   51MOL    H3237132   2.174   0.461   2.011  1.6751  0.8266  0.1045
   51MOL    H3337133   2.349   0.655   2.013 -0.4182  4.1554  1.5920
   51MOL    H3437134   2.242   0.758   1.959  3.4537  0.7339  0.4479
   51MOL    H3537135   2.374   0.695   1.764  0.8840  0.0700  0.6758
   51MOL    H3637136   2.224   0.618   1.739 -2.3385 -3.6001  2.5108
   51MOL    H3737137   2.344   0.417   1.859 -0.9818  0.1243  0.3675
   51MOL    H3837138   1.324   0.762   2.765  0.6127  0.1999  0.6022
   51MOL    C3937139   2.486   0.468   1.718 -0.2551 -0.2022  0.4548
   51MOL    O4037140   2.530   0.557   1.646  0.0823  0.3262  0.4798
   51MOL    C4137141   2.565   0.341   1.720  0.5543 -0.2416 -0.1535
   51MOL    C4237142   2.684   0.356   1.811 -0.3067 -0.0161 -0.0336
   51MOL    C4337143   2.745   0.223   1.841 -0.7732 -0.6945 -0.1550
   51MOL    C4437144   2.798   0.151   1.719  0.5173 -0.2261 -0.0906
   51MOL    C4537145   2.916   0.071   1.765  0.0848  0.6664  0.2314
   51MOL    C4637146   2.969   7.666   1.665 -0.9311  0.0875 -0.0718
   51MOL    C4737147   3.093   7.584   1.709  0.5666 -0.3544 -0.5299
   51MOL    C4837148   3.176   7.528   1.590  0.5945  0.1904 -0.0177
   51MOL    C4937149   3.292   7.449   1.651  0.5098 -0.2860 -0.1743
   51MOL    C5037150   3.393   7.409   1.540  0.9720 -0.0039 -0.4664
   51MOL    C5137151   3.499   7.319   1.606 -0.5703  0.3005  0.6969
   51MOL    N5237152   3.574   7.402   1.699  0.1667 -0.3351 -0.6331
   51MOL    H5337153   2.586   0.314   1.616  0.9637  1.2130 -0.4711
   51MOL    H5437154   2.504   0.262   1.763 -0.2616  0.9179  0.8406
   51MOL    H5537155   2.759   0.426   1.773  2.6993 -0.4974  4.6506
   51MOL    H5637156   2.658   0.396   1.909 -0.1826 -0.9767  0.3963
   51MOL    H5737157   2.683   0.148   1.891  0.9361 -2.7582 -1.0323
   51MOL    H5837158   2.819   0.245   1.918 -2.7169  2.8293  0.7857
   51MOL    H5937159   2.718   0.086   1.683 -0.5344 -0.0720  1.9020
   51MOL    H6037160   2.815   0.232   1.648  2.7815 -1.3150 -0.8423
   51MOL    H6137161   2.879   0.007   1.845 -0.0193  1.0082  0.4580
   51MOL    H6237162   2.997   0.138   1.794 -0.3249  0.4152  2.0399
   51MOL    H6337163   3.017   0.035   1.591 -1.5543  0.5137 -0.1179
   51MOL    H6437164   2.891   7.603   1.624 -2.2440  0.8825  1.1192
   51MOL    H6537165   3.059   7.504   1.776  1.1123 -0.0095  0.1633
   51MOL    H6637166   3.160   7.651   1.763  1.0115  0.6856 -2.3322
   51MOL    H6737167   3.206   7.610   1.526 -0.7920 -0.9027 -2.1301
   51MOL    H6837168   3.109   7.466   1.531  1.8041 -0.8211 -0.3582
   51MOL    H6937169   3.265   7.376   1.727 -2.0595  0.7134 -0.0765
   51MOL    H7037170   3.350   7.525   1.702 -1.4147  1.4148 -0.4708
   51MOL    H7137171   3.433   7.495   1.487  0.7823  1.2514  1.3767
   51MOL    H7237172   3.334   7.352   1.468 -0.5393  1.7092 -0.6350
   51MOL    H7337173   3.567   7.265   1.540 -0.4951  1.9262 -0.5766
   51MOL    H7437174   3.460   7.237   1.668 -1.2878 -1.3017 -1.7825
   51MOL    H7537175   3.636   7.470   1.659  0.3817 -0.2740 -0.1983
   51MOL    C7637176   3.572   7.404   1.834  0.3841 -0.9242 -0.6099
   51MOL    O7737177   3.486   7.347   1.900 -0.5018 -0.3130 -0.1539
   51MOL    C7837178   3.692   7.478   1.891 -0.1530 -0.8160  0.3883
   51MOL    C7937179   3.697   7.484   2.045 -0.2679  1.0876  0.1405
   51MOL    C8037180   3.840   7.506   2.096 -0.3117  0.1389  0.3277
   51MOL    C8137181   3.898   7.640   2.050  0.4817  0.0864 -0.0925
   51MOL    C8237182   4.041   7.671   2.101  0.1531  0.6646 -0.1539
   51MOL    C8337183   4.116   0.098   2.032  0.6454  0.2152 -0.0417
   51MOL    C8437184   4.040   0.231   2.048  0.5268  0.6015 -0.3384
   51MOL    C8537185   4.127   0.345   1.998 -0.1107  0.9327 -0.3282
   51MOL    C8637186   4.032   0.468   1.986  0.3844  0.1055  0.7083
   51MOL    C8737187   4.094   0.586   1.907 -0.2595  0.4945  0.1452
   51MOL    C8837188   4.012   0.710   1.900 -0.5550  0.0341  0.6319
   51MOL    N8937189   4.092   0.822   1.853  0.2037  0.2573  0.5889
   51MOL    H9037190   3.711   7.572   1.840 -0.8486 -0.4031  0.8809
   51MOL    H9137191   3.784   7.429   1.860  0.4220  0.2119  0.4476
   51MOL    H9237192   3.635   7.569   2.072  0.2799  1.0812  1.4766
   51MOL    H9337193   3.654   7.393   2.086  3.1034  0.2459  2.0042
   51MOL    H9437194   3.905   7.424   2.067  0.6456  0.6243  1.0738
   51MOL    H9537195   3.847   7.513   2.205  2.0892 -0.4071  0.2432
   51MOL    H9637196   3.909   7.631   1.942 -3.1326  0.9059 -0.6046
   51MOL    H9737197   3.830   0.025   2.085  0.6006 -0.8738  2.4239
   51MOL    H9837198   4.100   7.585   2.068  0.0195  0.4398  0.1994
   51MOL    H9937199   4.054   7.672   2.209  0.9301  0.2690 -0.2427
   51MOL   H10037200   4.143   0.077   1.929  2.2645  0.8044  0.2502
   51MOL   H10137201   4.213   0.109   2.080 -0.3026  2.0437  1.5220
   51MOL   H10237202   4.009   0.243   2.152 -1.2360  1.5526 -0.9500
   51MOL   H10337203   3.940   0.228   2.005 -0.0704  1.4212  0.9343
   51MOL   H10437204   4.171   0.330   1.899  1.8034 -0.6126  0.7169
   51MOL   H10537205   4.211   0.365   2.065  0.5176 -4.4564  0.7192
   51MOL   H10637206   3.996   0.502   2.083  0.2815 -0.0267  0.7172
   51MOL   H10737207   3.938   0.433   1.943  0.0656  1.5648  0.1765
   51MOL   H10837208   4.115   0.540   1.811 -1.6761 -1.3314  0.6672
   51MOL   H10937209   4.193   0.609   1.945 -0.8616  1.8193  0.9461
   51MOL   H11037210   3.993   0.741   2.003 -0.9839  0.7680  0.3364
   51MOL   H11137211   3.922   0.692   1.840 -1.8136 -0.0499  2.5012
   51MOL   H11237212   4.183   0.830   1.897  0.2647 -0.1139  0.5300
   51MOL   C11337213   4.054   0.911   1.767  0.7332 -0.1866  0.4155
   51MOL   O11437214   3.942   0.906   1.710  0.3035  0.4203 -0.7938
   51MOL   C11537215   4.152   1.020   1.726  0.3705  0.3416  0.5965
   51MOL   C11637216   4.081   1.154   1.692 -0.5226 -0.1482 -0.1963
   51MOL   C11737217   4.032   1.228   1.822  0.1302  0.4412  0.4041
   51MOL   C11837218   4.008   1.367   1.792  0.7556 -0.3497  0.6291
   51MOL   C11937219   3.965   1.445   1.910 -0.2340 -0.2628  0.6427
   51MOL   C12037220   3.971   1.602   1.900 -0.1602 -0.0870  0.1459
   51MOL   C12137221   3.955   1.666   2.041  0.6301  0.1362  0.0676
   51MOL   C12237222   3.893   1.806   2.025 -0.0128  0.1163 -0.0446
   51MOL   C12337223   3.925   1.891   2.151  0.3467 -0.1812  0.0939
   51MOL   C12437224   3.839   2.023   2.163 -0.6626 -0.2367 -0.3999
   51MOL   C12537225   3.851   2.107   2.030  0.0115  0.5045 -0.0283
   51MOL   N12637226   3.755   2.217   2.032  0.5758 -0.0174 -0.0099
   51MOL   H12737227   4.216   0.978   1.648  0.0532  0.4889  0.2589
   51MOL   H12837228   4.230   1.027   1.802  2.7667  2.2777 -1.9257
   51MOL   H12937229   4.155   1.220   1.645 -0.4923  0.4575  0.6976
   51MOL   H13037230   3.991   1.135   1.633 -1.4897  1.2641  0.7830
   51MOL   H13137231   4.100   1.207   1.904 -2.7190  1.0988  3.0345
   51MOL   H13237232   3.942   1.190   1.871  0.0214  0.4936  0.2463
   51MOL   H13337233   4.104   1.399   1.752 -0.1711 -1.6236 -2.8262
   51MOL   H13437234   3.936   1.384   1.712 -1.1086 -1.1924  2.0867
   51MOL   H13537235   4.030   1.419   1.994  1.4395  0.2994 -0.4493
   51MOL   H13637236   3.865   1.418   1.944 -0.1079 -1.1967  0.2738
   51MOL   H13737237   3.900   1.633   1.824 -0.3257  0.3162  0.4627
   51MOL   H13837238   4.066   1.632   1.855 -0.5925  0.3383 -0.4973
   51MOL   H13937239   4.051   1.671   2.093  0.2892  1.0168  0.6183
   51MOL   H14037240   3.886   1.605   2.099 -0.8561  3.9622  2.5049
   51MOL   H14137241   3.786   1.795   2.007 -0.3876  0.7895  1.7046
   51MOL   H14237242   3.924   1.856   1.933 -0.5428  0.7634  0.1266
   51MOL   H14337243   4.028   1.926   2.145  0.6261 -1.1515 -0.7483
   51MOL   H14437244   3.920   1.827   2.239 -0.6662  2.3013  1.9394
   51MOL   H14537245   3.877   2.085   2.245  1.0665  0.1839 -1.4944
   51MOL   H14637246   3.736   2.001   2.191 -0.5506  0.2777  0.4381
   51MOL   H14737247   3.818   2.042   1.949 -2.4914  1.6996 -0.0072
   51MOL   H14837248   3.954   2.142   2.024  0.8550 -2.2356 -2.8769
   51MOL   H14937249   3.727   2.235   2.127  2.6027 -0.4877  0.6931
   51MOL   C15037250   3.719   2.297   1.931  0.2546 -0.1096 -0.1366
   51MOL   O15137251   3.781   2.296   1.823  0.9940  0.1373  0.7342
   51MOL   C15237252   3.609   2.402   1.948  0.1671  0.2930  0.1634
   51MOL   C15337253   3.553   2.441   1.809  0.1676  0.2522 -0.1976
   51MOL   C15437254   3.410   2.505   1.822 -0.4407 -0.2343 -0.0323
   51MOL   C15537255   3.348   2.522   1.684  0.6169 -0.2204  0.1670
   51MOL   C15637256   3.232   2.629   1.680 -0.9508  0.1972 -0.2897
   51MOL   C15737257   3.139   2.649   1.556 -0.0730  0.3818  0.1983
   51MOL   C15837258   3.011   2.733   1.579 -0.0713  0.6874  0.4074
   51MOL   C15937259   2.926   2.752   1.444 -0.5935  0.2664  0.0077
   51MOL   C16037260   2.792   2.827   1.466  0.6893 -0.4883  0.2285
   51MOL   C16137261   2.824   2.977   1.483 -0.4000  0.4157  0.4485
   51MOL   C16237262   2.695   3.056   1.493  0.2527 -0.5577  0.6491
   51MOL   N16337263   2.655   3.066   1.636  0.0304 -0.0013 -0.9362
   51MOL   H16437264   3.635   2.497   1.994  2.1693 -0.4301  0.5592
   51MOL   H16537265   3.531   2.362   2.013  1.2595 -2.2741 -0.0702
   51MOL   H16637266   3.624   2.515   1.770  0.4151  0.5564  0.8098
   51MOL   H16737267   3.557   2.365   1.731 -2.2001 -0.0265 -0.0661
   51MOL   H16837268   3.411   2.604   1.867 -0.6801  0.2950 -1.1718
   51MOL   H16937269   3.346   2.434   1.874 -0.1264  0.4995  1.3574
   51MOL   H17037270   3.418   2.569   1.615  1.3445 -1.2675  0.1729
   51MOL   H17137271   3.323   2.432   1.628 -0.9193 -0.2482  0.8682
   51MOL   H17237272   3.274   2.727   1.701 -2.4375  0.7719  0.0783
   51MOL   H17337273   3.166   2.610   1.764 -0.2872 -1.3193 -0.1015
   51MOL   H17437274   3.129   2.551   1.508  1.8581  0.7930 -1.1186
   51MOL   H17537275   3.193   2.703   1.478  4.0500 -0.5465  2.2890
   51MOL   H17637276   3.035   2.826   1.630 -0.9075 -0.6514  3.3458
   51MOL   H17737277   2.942   2.676   1.642 -2.0685  0.5841 -1.7841
   51MOL   H17837278   2.920   2.656   1.393 -1.9879 -0.3958  1.3575
   51MOL   H17937279   2.981   2.810   1.370 -2.5498 -0.1569 -1.8316
   51MOL   H18037280   2.725   2.788   1.543  0.8881 -0.3445  0.4745
   51MOL   H18137281   2.740   2.803   1.373  1.0871 -1.5677  0.2740
   51MOL   H18237282   2.880   3.002   1.393 -0.6100 -0.2094  0.1427
   51MOL   H18337283   2.873   2.987   1.580 -0.8770  0.8823  0.6429
   51MOL   H18437284   2.616   3.027   1.425 -0.2343  2.4597 -0.1370
   51MOL   H18537285   2.716   3.157   1.457  0.3179 -1.5993 -2.3993
   51MOL   H18637286   2.692   3.000   1.703  0.1168 -2.4478 -3.2710
   51MOL   C18737287   2.557   3.141   1.690 -0.3254 -0.6854 -0.3333
   51MOL   O18837288   2.470   3.197   1.620  0.1677  0.3890  0.1432
   51MOL   C18937289   2.563   3.153   1.842  0.1050  0.3359 -0.3168
   51MOL   C19037290   2.709   3.155   1.904  0.2700  0.2836 -0.0280
   51MOL   C19137291   2.697   3.157   2.053  0.2334 -0.3653 -0.7247
   51MOL   C19237292   2.816   3.176   2.148 -0.5677 -0.3624  0.6475
   51MOL   C19337293   2.779   3.176   2.301  0.4935 -0.1412 -0.1542
   51MOL   C19437294   2.900   3.161   2.399 -0.0371 -0.3575 -0.2396
   51MOL   C19537295   2.878   3.209   2.543  0.9797  0.3673  0.0453
   51MOL   C19637296   2.804   3.119   2.638 -0.4884 -0.5867 -0.6526
   51MOL   C19737297   2.764   3.182   2.774 -0.8906 -0.1125 -0.2162
   51MOL   C19837298   2.643   3.099   2.832 -0.1661 -0.4070 -0.8527
   51MOL   C19937299   2.655   2.948   2.854 -0.2340  0.3371 -0.6737
   51MOL   N20037300   2.568   2.901   2.961 -0.3739  0.6550 -0.5524
   51MOL   H20137301   2.509   3.069   1.885  0.6861  0.8855  1.5489
   51MOL   H20237302   2.508   3.244   1.863  2.0581  1.0165  2.1429
   51MOL   H20337303   2.770   3.077   1.860 -0.8993  0.4921 -2.1193
   51MOL   H20437304   2.759   3.249   1.882 -0.6041  0.4242 -1.5051
   51MOL   H20537305   2.626   3.080   2.082  1.2253 -0.7170  0.8246
   51MOL   H20637306   2.644   3.249   2.078 -0.8027 -0.2288 -3.2511
   51MOL   H20737307   2.879   3.087   2.150 -2.5602 -1.8363 -0.2388
   51MOL   H20837308   2.882   3.258   2.119 -1.4755 -0.4869 -1.8631
   51MOL   H20937309   2.703   3.103   2.327 -0.7902  1.6610  1.3008
   51MOL   H21037310   2.731   3.273   2.313 -0.2505 -0.3294 -1.4461
   51MOL   H21137311   2.981   3.222   2.357  1.1462 -2.0112 -0.3988
   51MOL   H21237312   2.937   3.059   2.399  0.3380 -0.2270 -0.5108
   51MOL   H21337313   2.823   3.303   2.543 -1.2134 -0.8857 -0.6603
   51MOL   H21437314   2.976   3.230   2.587  2.1127 -1.0393 -1.7394
   51MOL   H21537315   2.861   3.027   2.651  1.9968  0.8516 -1.0602
   51MOL   H21637316   2.713   3.099   2.581 -0.2956  1.4600 -1.7118
   51MOL   H21737317   2.723   3.283   2.767 -0.6480 -0.1469 -2.7452
   51MOL   H21837318   2.855   3.200   2.830 -1.4912 -0.1677  0.7962
   51MOL   H21937319   2.550   3.119   2.779 -0.3143 -0.2268 -0.5271
   51MOL   H22037320   2.618   3.131   2.933  0.6455 -0.4122 -0.6488
   51MOL   H22137321   2.759   2.927   2.879 -0.2266 -1.8104 -2.3687
   51MOL   H22237322   2.643   2.891   2.763  0.7470 -1.5694  0.3689
   51MOL   H22337323   2.602   2.914   3.055 -2.4580 -2.1932  0.6799
   51MOL   C22437324   2.440   2.855   2.952 -0.1333  0.0267  0.3114
   51MOL   O22537325   2.386   2.844   2.841 -0.0292 -0.6151  0.0272
   51MOL   C22637326   2.377   2.797   3.084 -0.5055  0.3427  0.5628
   51MOL   C22737327   2.243   2.723   3.061 -0.2387  0.7779 -0.0448
   51MOL   C22837328   2.166   2.706   3.188 -0.7687 -0.6379  0.2689
   51MOL   C22937329   2.193   2.575   3.257 -0.0649  0.2320  0.4697
   51MOL   C23037330   2.115   2.550   3.387 -0.2864  0.8955 -0.3542
   51MOL   C23137331   2.145   2.414   3.456 -0.5133  0.2799 -0.1114
   51MOL   C23237332   2.099   2.284   3.379 -0.5438 -0.1389 -0.1955
   51MOL   C23337333   2.126   2.155   3.449  0.0107  0.4682  0.2551
   51MOL   C23437334   2.105   2.038   3.352 -0.3911  0.2416  0.1604
   51MOL   C23537335   2.116   1.905   3.415  0.0008  0.8571 -0.0479
   51MOL   C23637336   2.075   1.782   3.332  0.4955  0.5232  0.1615
   51MOL   N23737337   1.930   1.770   3.314 -0.4342  0.1726  0.2504
   51MOL   H23837338   2.369   2.882   3.151  2.6847 -0.4911  2.0677
   51MOL   H23937339   2.451   2.732   3.131 -2.5422 -0.8993  2.1333
   51MOL   H24037340   2.180   2.769   2.985 -0.4162  1.3366  0.4428
   51MOL   H24137341   2.261   2.620   3.028 -0.2202  0.3740  1.2081
   51MOL   H24237342   2.058   2.717   3.172 -0.5031  1.2910 -0.2932
   51MOL   H24337343   2.186   2.786   3.260 -0.6754  0.6319 -1.1364
   51MOL   H24437344   2.170   2.494   3.189  0.1177  0.2741  0.3578
   51MOL   H24537345   2.299   2.564   3.284 -0.8339 -0.1041  3.6004
   51MOL   H24637346   2.008   2.558   3.368 -0.1629  3.3280 -0.2335
   51MOL   H24737347   2.131   2.634   3.455 -0.2412  0.4279  0.2176
   51MOL   H24837348   2.087   2.419   3.548  0.7960  1.0122  0.6895
   51MOL   H24937349   2.250   2.405   3.484 -0.8662 -0.0436  1.1257
   51MOL   H25037350   2.153   2.279   3.285  1.7449  0.7327  1.0116
   51MOL   H25137351   1.993   2.303   3.363 -1.1525 -4.1831 -1.3402
   51MOL   H25237352   2.067   2.144   3.540  1.9282 -0.3993  1.4378
   51MOL   H25337353   2.231   2.138   3.473  0.2838 -0.1765 -1.3090
   51MOL   H25437354   2.179   2.043   3.273  0.9746  1.3017  1.4929
   51MOL   H25537355   2.005   2.054   3.311 -1.9647 -1.5395  3.1343
   51MOL   H25637356   2.067   1.902   3.512  0.5704 -1.2001  0.1951
   51MOL   H25737357   2.222   1.882   3.424  0.0691  0.7575 -1.0454
   51MOL   H25837358   2.115   1.687   3.369  1.3044  0.5889 -0.5109
   51MOL   H25937359   2.116   1.798   3.232  0.5005 -1.4740 -0.1728
   51MOL   H26037360   1.873   1.809   3.389 -2.5757 -1.9069 -0.2319
   51MOL   C26137361   1.870   1.693   3.226 -0.2301 -0.1954 -0.2452
   51MOL   O26237362   1.936   1.646   3.139  0.1926 -0.4957  0.7683
   51MOL   C26337363   1.726   1.654   3.243  1.1960  0.0495  0.1845
   51MOL   C26437364   1.625   1.681   3.125 -0.5054  0.7846 -0.1337
   51MOL   C26537365   1.615   1.828   3.080  0.4170 -0.0823  0.2456
   51MOL   C26637366   1.494   1.839   2.989  0.3889  0.1267 -0.6543
   51MOL   C26737367   1.492   1.980   2.922 -0.3592  0.2511 -0.0664
   51MOL   C26837368   1.396   2.081   2.988  0.2899 -0.2055 -0.0864
   51MOL   C26937369   1.416   2.227   2.962  0.0311 -0.2952  0.1635
   51MOL   C27037370   1.288   2.306   3.021 -0.3428  0.1880  0.2233
   51MOL   C27137371   1.295   2.326   3.172  0.6001  0.7933 -0.0504
   51MOL   C27237372   1.247   2.469   3.212  0.0209 -0.1462  0.0030
   51MOL   C27337373   1.280   2.498   3.355 -0.6255  0.1730  0.5917
   51MOL   N27437374   1.240   2.384   3.434 -0.3115 -0.0921 -0.4029
   51MOL   H27537375   1.686   1.705   3.330  2.0137  1.5306 -0.2973
   51MOL   H27637376   1.719   1.548   3.266 -0.9546 -0.3352 -1.9690
   51MOL   H27737377   1.655   1.622   3.038  0.3166  2.4219 -0.9735
   51MOL   H27837378   1.529   1.643   3.161  0.7671 -0.7804  1.7173
   51MOL   H27937379   1.707   1.845   3.023 -1.0693  0.8627 -1.9155
   51MOL   H28037380   1.612   1.897   3.164  0.9392 -1.9194  1.8193
   51MOL   H28137381   1.496   1.758   2.916 -1.4404 -1.1383  0.6706
   51MOL   H28237382   1.398   1.824   3.039 -0.0857  2.5656 -0.7556
   51MOL   H28337383   1.451   1.961   2.822  0.6732 -2.1429 -0.0717
   51MOL   H28437384   1.591   2.019   2.903 -0.6790  1.1859  0.1770
   51MOL   H28537385   1.410   2.066   3.095 -0.6054  0.3858  0.1238
   51MOL   H28637386   1.293   2.047   2.982 -0.1943  1.1997  0.0179
   51MOL   H28737387   1.420   2.233   2.853  2.6813 -3.0434  0.0134
   51MOL   H28837388   1.501   2.271   3.014 -1.1185  0.7337  1.1714
   51MOL   H28937389   1.192   2.257   2.999 -1.2383  1.7961  0.4597
   51MOL   H29037390   1.273   2.400   2.967  0.0602  0.3063  0.3152
   51MOL   H29137391   1.399   2.312   3.201  1.4199  1.2102 -2.6155
   51MOL   H29237392   1.235   2.245   3.214  0.9849  0.4026 -0.2434
   51MOL   H29337393   1.139   2.471   3.199  0.0662 -0.6856 -0.5005
   51MOL   H29437394   1.299   2.542   3.151  0.3573  0.4122  0.9461
   51MOL   H29537395   1.238   2.596   3.374 -0.4036 -0.1535  2.9650
   51MOL   H29637396   1.389   2.497   3.369 -0.2437  0.0372 -2.0563
   51MOL   H29737397   1.297   2.301   3.429  0.6734  0.3152  2.9195
   51MOL   C29837398   1.146   2.402   3.532  0.3486  0.8882 -1.1921
   51MOL   O29937399   1.080   2.503   3.543 -0.1600 -0.4976  0.0894
   51MOL   C30037400   1.109   2.276   3.618 -0.4492 -0.0125  0.1630
   51MOL   C30137401   1.004   2.308   3.734 -0.5177  0.0136 -0.4693
   51MOL   C30237402   1.005   2.191   3.839  0.6761 -0.6444  0.3745
   51MOL   C30337403   1.126   2.190   3.932  0.0627  0.4104 -0.8059
   51MOL   C30437404   1.120   2.066   4.027 -0.0127 -0.3493 -0.2482
   51MOL   C30537405   1.247   2.043   4.115 -0.3285  0.6052 -0.0414
   51MOL   C30637406   1.372   2.002   4.036 -0.3075  0.3252  0.1129
   51MOL   C30737407   1.502   2.001   4.123  0.5180 -1.1456 -0.2408
   51MOL   C30837408   1.631   2.018   4.039  0.4324  0.1159 -0.4848
   51MOL   C30937409   1.673   1.894   3.958 -0.5069 -0.3491  0.6186
   51MOL   C31037410   1.804   1.912   3.877 -0.0340 -0.0616 -0.1541
   51MOL   N31137411   1.857   1.781   3.829  0.4659  0.2115 -0.1040
   51MOL   H31237412   1.195   2.238   3.674 -0.2247  0.0634 -0.1288
   51MOL   H31337413   1.070   2.193   3.559 -1.6809  0.5508  0.1857
   51MOL   H31437414   1.027   2.399   3.789  3.0327 -0.9090 -0.2737
   51MOL   H31537415   0.906   2.311   3.685 -0.0387 -0.3391 -1.4763
   51MOL   H31637416   1.009   2.097   3.783  0.1630 -0.7328  0.4844
   51MOL   H31737417   0.908   2.178   3.888 -0.4482  1.8651 -1.0832
   51MOL   H31837418   1.220   2.184   3.878 -0.3462  0.3633 -1.5167
   51MOL   H31937419   1.128   2.284   3.987  1.0439  1.1134 -2.0155
   51MOL   H32037420   1.101   1.973   3.973 -2.4706  0.2985 -0.5704
   51MOL   H32137421   1.030   2.066   4.089 -0.6649  4.1371 -0.9601
   51MOL   H32237422   1.223   1.969   4.192 -1.5109  0.8561 -0.1585
   51MOL   H32337423   1.268   2.136   4.169  0.7812  0.5582 -0.3973
   51MOL   H32437424   1.388   2.079   3.961  0.5193  0.6472  0.6151
   51MOL   H32537425   1.366   1.902   3.995  0.1413  0.1001  0.5880
   51MOL   H32637426   1.504   1.906   4.178 -1.0704 -0.2720  1.3825
   51MOL   H32737427   1.503   2.084   4.194 -1.8331 -1.4137  0.1495
   51MOL   H32837428   1.715   2.043   4.103  0.3590 -1.1287  0.1069
   51MOL   H32937429   1.616   2.104   3.972 -1.4996  1.4519  1.6069
   51MOL   H33037430   1.594   1.869   3.888 -0.0676  0.9506 -0.3656
   51MOL   H33137431   1.684   1.811   4.027  0.9762 -0.4912  0.2243
   51MOL   H33237432   1.881   1.966   3.933  1.2342 -1.5244 -0.4755
   51MOL   H33337433   1.766   1.971   3.793 -0.5256  0.6585  0.5591
   51MOL   H33437434   1.936   1.740   3.877  0.4029 -1.0339 -1.0409
   51MOL   C33537435   1.844   1.732   3.704  0.0084 -0.2778 -0.5262
   51MOL   O33637436   1.773   1.782   3.617 -0.1373  0.0601 -0.5605
   51MOL   C33737437   1.930   1.614   3.659  0.3645  0.0208 -0.1316
   51MOL   C33837438   1.845   1.502   3.591 -1.4758  0.2480  0.0759
   51MOL   C33937439   1.928   1.391   3.541  0.1679  0.1967 -0.1219
   51MOL   C34037440   1.844   1.276   3.487  0.0667 -0.3275  0.1762
   51MOL   C34137441   1.925   1.159   3.442  0.2107  0.0020  0.6686
   51MOL   C34237442   1.836   1.049   3.387  0.3334  0.0465  0.0398
   51MOL   C34337443   1.917   0.939   3.320 -0.6851  0.0610  0.0619
   51MOL   C34437444   1.828   0.851   3.227  0.4253 -0.5605  1.5011
   51MOL   C34537445   1.898   0.721   3.187  0.2601 -0.2755  0.0564
   51MOL   C34637446   1.822   0.629   3.087 -0.2708  0.0364 -0.2797
   51MOL   C34737447   1.900   0.505   3.051  0.5621  0.2919  0.0103
   51MOL   N34837448   1.948   0.441   3.174 -0.0212 -0.7756  0.1106
   51MOL   H34937449   1.985   1.570   3.743 -0.2564 -0.4288  0.0459
   51MOL   H35037450   2.001   1.659   3.590  0.5085 -1.8243 -1.2239
   51MOL   H35137451   1.777   1.464   3.667 -2.8143  1.4660 -0.4983
   51MOL   H35237452   1.800   1.537   3.498 -2.3519 -1.0498 -0.0070
   51MOL   H35337453   1.999   1.356   3.616  1.5819 -2.2326 -2.5019
   51MOL   H35437454   1.994   1.428   3.462 -2.4773  1.6783 -1.7021
   51MOL   H35537455   1.770   1.258   3.565 -0.7329 -1.1505 -0.7729
   51MOL   H35637456   1.785   1.319   3.406 -1.7800  0.3011  1.8011
   51MOL   H35737457   1.989   1.115   3.519  3.1515  1.2264 -0.9623
   51MOL   H35837458   2.000   1.194   3.371  0.8973 -1.5865  0.5843
   51MOL   H35937459   1.766   1.099   3.320 -0.2851  1.4787  1.7408
   51MOL   H36037460   1.783   1.001   3.469  0.8133 -0.1429  0.2374
   51MOL   H36137461   1.951   0.876   3.402 -1.4445  0.2716  0.5435
   51MOL   H36237462   2.004   0.973   3.264 -0.1345  0.3002  1.0469
   51MOL   H36337463   1.788   0.907   3.143 -1.3214 -1.2238  1.8695
   51MOL   H36437464   1.745   0.823   3.292 -1.5460  1.0720 -0.2750
   51MOL   H36537465   1.923   0.661   3.274 -0.1607  0.9492  1.0305
   51MOL   H36637466   1.997   0.742   3.147  0.8126 -0.5740  1.2543
   51MOL   H36737467   1.798   0.692   3.002 -0.1030  1.4344  0.6853
   51MOL   H36837468   1.724   0.596   3.123  0.7047 -0.6668  1.8397
   51MOL   H36937469   1.986   0.515   2.985  3.0080 -1.1539  2.8551
   51MOL   H37037470   1.823   0.453   2.995  1.6784 -0.7314 -0.5777
   51MOL   H37137471   1.887   0.377   3.222  0.9564 -1.6765  0.1728
   51MOL   C37237472   2.073   0.458   3.220 -0.1212  0.0621  0.2117
   51MOL   O37337473   2.164   0.524   3.167 -0.4842  0.1115  0.5706
   51MOL   C37437474   2.115   0.391   3.343 -0.3057 -0.1300  0.4820
   51MOL   C37537475   2.037   0.434   3.470 -0.0393 -0.1036 -0.6365
   51MOL   C37637476   2.058   0.578   3.519 -0.1995 -1.0302 -0.1437
   51MOL   C37737477   1.959   0.615   3.629 -0.2134 -0.1134  0.7505
   51MOL   C37837478   1.982   0.747   3.695  0.0107  0.7520  0.7834
   51MOL   C37937479   1.857   0.821   3.756 -0.3440  0.3864  0.1168
   51MOL   C38037480   1.912   0.932   3.844 -0.0456 -0.7218 -0.5774
   51MOL   C38137481   1.809   1.034   3.883 -0.0814  0.5828 -0.1198
   51MOL   C38237482   1.879   1.155   3.942 -0.9581  0.6706 -0.2885
   51MOL   C38337483   1.778   1.255   4.001  0.0324 -0.4223  0.0527
   51MOL   C38437484   1.848   1.387   4.036 -0.1741 -0.0373 -0.7429
   51MOL   N38537485   1.773   1.453   4.145  0.0499 -0.2103  0.0413
   51MOL   H38637486   2.222   0.408   3.354 -0.4745  0.6581  0.9946
   51MOL   H38737487   2.102   0.285   3.324  2.2032 -0.3632 -0.1148
   51MOL   H38837488   1.931   0.415   3.454 -0.5680  2.5360 -0.4019
   51MOL   H38937489   2.063   0.365   3.551  1.6636  0.7899 -0.3867
   51MOL   H39037490   2.048   0.657   3.444 -1.7119 -0.7259  0.3520
   51MOL   H39137491   2.158   0.600   3.557  0.0608  0.8661 -1.8178
   51MOL   H39237492   1.857   0.615   3.591 -0.0603 -0.8804  0.3468
   51MOL   H39337493   1.952   0.537   3.705 -3.2335 -1.1989 -0.5595
   51MOL   H39437494   2.027   0.807   3.616 -0.1709  1.0607  0.9135
   51MOL   H39537495   2.056   0.711   3.766 -1.2645 -0.8800  1.3157
   51MOL   H39637496   1.810   0.743   3.815  0.2432 -0.9135 -1.0944
   51MOL   H39737497   1.797   0.853   3.670  0.9731  0.0502 -0.9420
   51MOL   H39837498   2.002   0.979   3.805  0.2285  1.4990  2.5243
   51MOL   H39937499   1.953   0.887   3.935 -0.7835  0.2454  0.2496
   51MOL   H40037500   1.745   0.987   3.958 -1.2055  0.9418 -0.8399
   51MOL   H40137501   1.743   1.067   3.802 -0.7301 -0.1599  0.0877
   51MOL   H40237502   1.959   1.195   3.879  1.3194 -0.6800  1.6524
   51MOL   H40337503   1.936   1.122   4.029 -1.3556  1.7152  0.3677
   51MOL   H40437504   1.723   1.216   4.087 -1.4521 -0.8650 -1.0870
   51MOL   H40537505   1.699   1.272   3.928 -0.8373  0.7843  1.2539
   51MOL   H40637506   1.854   1.458   3.954  0.3504 -0.9310 -1.4850
   51MOL   H40737507   1.941   1.369   4.088 -0.8109  0.5443  0.6236
   51MOL   H40837508   1.699   1.403   4.192  0.3550 -0.2013  0.5406
   51MOL   C40937509   1.803   1.578   4.188  0.0352 -0.5913 -0.7820
   51MOL   O41037510   1.898   1.644   4.160 -1.0651 -0.3799  0.2358
   51MOL   C41137511   1.707   1.645   4.296 -0.2163 -0.0814  0.3036
   51MOL   C41237512   1.766   1.699   4.422  0.2977 -0.1648  0.0533
   51MOL   C41337513   1.819   1.586   4.509  0.6291 -0.7313  0.1207
   51MOL   C41437514   1.854   1.623   4.655 -0.0505  0.0829  0.3096
   51MOL   C41537515   1.888   1.500   4.744 -0.1127  0.6286 -0.2284
   51MOL   C41637516   1.931   1.522   4.891  0.3465 -0.0760 -0.1891
   51MOL   C41737517   1.998   1.398   4.948  0.0116 -0.4827  0.2417
   51MOL   C41837518   1.986   1.397   5.101 -0.9548  0.4787  0.3451
   51MOL   C41937519   2.111   1.321   5.156 -0.1472 -0.2483  0.4939
   51MOL   C42037520   2.123   1.317   5.313  0.2862 -0.1032  0.2710
   51MOL   C42137521   2.159   1.458   5.371  0.1524 -0.0219 -0.5007
   51MOL   N42237522   2.306   1.476   5.386  0.1696  0.2025  0.6485
   51MOL   H42337523   1.623   1.577   4.311  1.1346 -1.7490  0.5625
   51MOL   H42437524   1.656   1.732   4.255 -0.0566 -0.2275 -0.2094
   51MOL   H42537525   1.851   1.761   4.391 -0.6015  1.5520  0.9235
   51MOL   H42637526   1.691   1.760   4.472  0.3132 -1.8101  2.1350
   51MOL   H42737527   1.913   1.553   4.466  0.3634  0.1964 -1.1750
   51MOL   H42837528   1.748   1.504   4.495  0.5446 -0.9384  1.5982
   51MOL   H42937529   1.929   1.703   4.656 -0.0714  0.1310 -0.9471
   51MOL   H43037530   1.770   1.679   4.695 -0.9706 -1.7108  0.9387
   51MOL   H43137531   1.970   1.453   4.689 -0.6666  1.0913 -1.4769
   51MOL   H43237532   1.799   1.437   4.741  0.6789 -0.5287  0.4914
   51MOL   H43337533   1.837   1.536   4.945 -1.2054 -0.9653 -2.6139
   51MOL   H43437534   1.971   1.619   4.922  2.9528 -0.6993 -1.4846
   51MOL   H43537535   2.104   1.395   4.925 -0.2483  1.2849 -1.3592
   51MOL   H43637536   1.956   1.309   4.900  0.9056 -1.5380  1.3899
   51MOL   H43737537   1.897   1.352   5.144 -0.2837  0.4788  1.7571
   51MOL   H43837538   1.996   1.497   5.144 -0.1923 -0.5969  2.7511
   51MOL   H43937539   2.196   1.376   5.115  2.3482 -2.5829  2.3715
   51MOL   H44037540   2.103   1.221   5.114  1.9115  0.1484 -0.9117
   51MOL   H44137541   2.192   1.239   5.346  1.1325 -0.0056 -1.2151
   51MOL   H44237542   2.026   1.294   5.357  0.0406  3.3020  1.6777
   51MOL   H44337543   2.118   1.469   5.472 -0.2774  1.4425 -0.8247
   51MOL   H44437544   2.113   1.540   5.315  0.0864  0.8798  0.8382
   51MOL   H44537545   2.341   1.444   5.475 -0.1320 -0.6252  0.4811
   51MOL   C44637546   2.382   1.508   5.284 -1.1876  0.5444 -0.0559
   51MOL   O44737547   2.342   1.555   5.176  0.2282 -0.3933  0.6376
   51MOL   C44837548   2.532   1.503   5.312  0.2061 -0.0019  0.4402
   51MOL   C44937549   2.616   1.445   5.199  0.1866  0.3188  0.0826
   51MOL   C45037550   2.635   1.293   5.202 -0.1119 -0.1028 -0.1496
   51MOL   C45137551   2.497   1.212   5.212 -0.1818 -0.2887  0.2175
   51MOL   C45237552   2.525   1.063   5.196 -0.1019  0.3442  0.1076
   51MOL   C45337553   2.399   0.985   5.173 -0.0375 -0.3434  0.2018
   51MOL   C45437554   2.417   0.839   5.199 -0.1489 -0.6378  0.7643
   51MOL   C45537555   2.385   0.810   5.348 -0.0090 -0.5947 -0.3520
   51MOL   C45637556   2.372   0.656   5.379 -0.0916  0.4957 -0.4229
   51MOL   C45737557   2.315   0.636   5.523  0.2425 -0.8490  0.2428
   51MOL   C45837558   2.271   0.494   5.553 -0.5313 -0.4296 -0.0502
   51MOL   N45937559   2.239   0.465   5.692 -0.2439  0.4037 -0.1403
   51MOL   H46037560   2.558   1.449   5.403  2.6461  1.5363  0.6945
   51MOL   H46137561   2.562   1.604   5.338 -1.3363  1.4951 -3.1674
   51MOL   H46237562   2.570   1.480   5.106 -0.4514 -0.0057  0.2751
   51MOL   H46337563   2.717   1.488   5.200  1.4169 -2.4511  2.1158
   51MOL   H46437564   2.688   1.261   5.291  0.7265 -2.2159 -1.3760
   51MOL   H46537565   2.681   1.257   5.110 -0.9840  0.2606 -0.7407
   51MOL   H46637566   2.453   1.231   5.310 -0.6470  1.2344 -0.2735
   51MOL   H46737567   2.424   1.263   5.149 -1.3470 -1.1055  0.8919
   51MOL   H46837568   2.572   1.018   5.283  0.7902  0.4393 -0.3281
   51MOL   H46937569   2.591   1.044   5.112 -0.2625 -0.7460  0.2069
   51MOL   H47037570   2.375   1.005   5.069  3.4003 -0.7050 -0.7136
   51MOL   H47137571   2.320   1.021   5.239 -1.2096 -0.0698 -1.3127
   51MOL   H47237572   2.520   0.818   5.169  0.2204  0.8446  0.9699
   51MOL   H47337573   2.357   0.777   5.133 -1.0419  0.9016  0.1086
   51MOL   H47437574   2.291   0.860   5.371 -1.4402 -2.4401 -1.9761
   51MOL   H47537575   2.462   0.858   5.407  0.3857 -0.3116 -1.0885
   51MOL   H47637576   2.470   0.610   5.367  0.3767  1.6105 -0.9073
   51MOL   H47737577   2.310   0.602   5.307 -0.0118  0.4995 -0.4943
   51MOL   H47837578   2.223   0.693   5.537  0.8480  0.1109  0.3846
   51MOL   H47937579   2.387   0.687   5.587 -1.2581  0.6130  0.8117
   51MOL   H48037580   2.353   0.427   5.526 -0.5715 -0.3151 -0.4590
   51MOL   H48137581   2.197   0.460   5.481 -0.6252 -3.2343  1.2974
   51MOL   H48237582   2.212   0.545   5.747 -3.6505 -0.1547 -0.8855
   51MOL   C48337583   2.191   0.346   5.728 -0.3645  0.0821  0.5874
   51MOL   O48437584   2.210   0.245   5.665 -0.0118 -0.2156 -0.7619
   51MOL   C48537585   2.119   0.346   5.866 -0.9713  0.2378 -0.1615
   51MOL   C48637586   1.974   0.377   5.858 -0.7097  0.1376  0.0247
   51MOL   C48737587   1.937   0.516   5.799 -0.5729 -0.8605  0.5096
   51MOL   C48837588   1.782   0.552   5.777  0.3425 -0.1020 -0.4668
   51MOL   C48937589   1.706   0.449   5.696  0.1129 -0.0866 -0.2395
   51MOL   C49037590   1.758   0.407   5.550 -0.1590 -0.5229 -0.0886
   51MOL   C49137591   1.677   0.293   5.488  0.3424 -0.0943  0.1337
   51MOL   C49237592   1.687   0.160   5.552 -0.1970  0.2991  0.2307
   51MOL   C49337593   1.652   0.041   5.454 -0.3245 -0.0422  0.7315
   51MOL   C49437594   1.709   7.609   5.522  0.2475  0.4956  0.5286
   51MOL   C49537595   1.691   7.480   5.444  0.7900 -0.3976 -0.4022
   51MOL   N49637596   1.795   7.389   5.480  0.4836 -0.2940 -0.1747
   51MOL   H49737597   2.170   0.406   5.941 -0.1682 -2.4641  1.5428
   51MOL   H49837598   2.131   0.244   5.904  1.4572  0.8357  0.7825
   51MOL   H49937599   1.925   0.296   5.805 -1.0318  0.3116  0.0550
   51MOL   H50037600   1.946   0.372   5.963  0.1335 -0.3879  0.2279
   51MOL   H50137601   1.991   0.518   5.705 -2.2263  1.6555 -0.4336
   51MOL   H50237602   1.990   0.595   5.852  0.0065 -0.2348 -0.9853
   51MOL   H50337603   1.743   0.571   5.877 -1.3822  0.8330 -1.2890
   51MOL   H50437604   1.766   0.643   5.720 -0.7340  0.5594  0.8723
   51MOL   H50537605   1.602   0.484   5.695 -0.4537 -1.6924  0.7392
   51MOL   H50637606   1.713   0.364   5.764  0.3432  0.3172  0.2420
   51MOL   H50737607   1.862   0.376   5.559  0.1015  0.2711 -0.2916
   51MOL   H50837608   1.747   0.493   5.483  1.1905  0.6625  1.1570
   51MOL   H50937609   1.711   0.291   5.385  0.2183 -0.5795  0.1013
   51MOL   H51037610   1.573   0.323   5.489 -0.2106 -1.9842  1.1523
   51MOL   H51137611   1.624   0.157   5.642 -1.4344 -2.9343 -0.6778
   51MOL   H51237612   1.786   0.139   5.592 -0.8205 -1.8710  0.6958
   51MOL   H51337613   1.714   0.061   5.367  0.9439 -0.2522  1.5716
   51MOL   H51437614   1.544   0.043   5.436 -0.4611 -0.0087  1.5254
   51MOL   H51537615   1.665   7.602   5.622 -0.0087  0.8416  0.4407
   51MOL   H51637616   1.816   7.613   5.539  0.6295 -0.6673 -1.4874
   51MOL   H51737617   1.703   7.495   5.337  0.0172 -1.0681 -0.5805
   51MOL   H51837618   1.590   7.443   5.456  1.2140 -0.4336  4.0332
   51MOL   H51937619   1.893   7.415   5.485  0.2296  0.8831 -1.0019
   51MOL   C52037620   1.777   7.255   5.493  0.2100  0.5474 -1.2350
   51MOL   O52137621   1.667   7.196   5.500  0.1720 -0.2425 -0.3578
   51MOL   C52237622   1.908   7.169   5.500 -0.0041  0.2711 -0.2296
   51MOL   C52337623   1.898   7.023   5.511  0.8544 -0.0655  0.1010
   51MOL   C52437624   1.891   6.951   5.366  0.7662 -1.2234  0.0432
   51MOL   C52537625   1.849   6.804   5.344  0.3867  0.1564 -0.2034
   51MOL   C52637626   1.888   6.765   5.197  0.3904  0.1196 -0.2482
   51MOL   C52737627   1.874   6.616   5.174  0.1690 -0.6431  0.5321
   51MOL   C52837628   1.729   6.573   5.143  0.2550  0.1797  0.2720
   51MOL   C52937629   1.725   6.438   5.063 -0.0141  0.5446 -0.0962
   51MOL   C53037630   1.583   6.379   5.053  0.2344 -0.0908 -0.2700
   51MOL   C53137631   1.499   6.456   4.951 -0.3061  0.0993  0.0263
   51MOL   C53237632   1.350   6.413   4.939  0.0151  0.8332  0.1182
   51MOL   N53337633   1.270   6.483   4.833 -0.2018  0.2727  0.5754
   51MOL   H53437634   1.958   7.208   5.589  0.3656 -0.2935 -0.1898
   51MOL   H53537635   1.974   7.189   5.416  1.0874  0.2762  0.6157
   51MOL   H53637636   1.972   6.970   5.571  1.3936  2.3635  1.6668
   51MOL   H53737637   1.808   7.005   5.570  1.2923  1.9904  1.4744
   51MOL   H53837638   1.989   6.948   5.318  1.0975 -0.6357  0.6742
   51MOL   H53937639   1.829   7.004   5.294  1.8628 -0.0771 -0.0760
   51MOL   H54037640   1.910   6.736   5.404 -0.0342 -1.2113 -1.3224
   51MOL   H54137641   1.743   6.793   5.363 -0.6321 -0.2280 -5.3638
   51MOL   H54237642   1.989   6.798   5.171 -0.0173  3.1909  1.7814
   51MOL   H54337643   1.825   6.812   5.122  1.9220 -1.7460 -2.8006
   51MOL   H54437644   1.898   6.557   5.263  2.1246 -0.7220 -0.0212
   51MOL   H54537645   1.938   6.596   5.088 -0.3444 -3.3340  0.7286
   51MOL   H54637646   1.672   6.648   5.089 -1.2752 -0.1063  1.4404
   51MOL   H54737647   1.671   6.569   5.235  2.0468 -1.4857  1.3785
   51MOL   H54837648   1.790   6.362   5.108 -0.0747  0.2962 -0.4258
   51MOL   H54937649   1.773   6.449   4.966  1.1938 -0.8946  0.3154
   51MOL   H55037650   1.540   6.392   5.152 -0.4397  0.5942 -0.6479
   51MOL   H55137651   1.589   6.273   5.029 -0.7241 -1.0465  3.3687
   51MOL   H55237652   1.553   6.438   4.858 -0.5054 -1.6394  0.2366
   51MOL   H55337653   1.492   6.562   4.977 -2.5751 -0.3617  1.4054
   51MOL   H55437654   1.298   6.412   5.034  0.6382  1.0218  0.4702
   51MOL   H55537655   1.347   6.311   4.902  4.0948  1.1789 -1.5046
   51MOL   H55637656   1.300   6.481   4.737  2.5103  0.0140  1.4007
   51MOL   C55737657   1.153   6.549   4.857 -0.0385 -0.1147  0.2221
   51MOL   O55837658   1.106   6.570   4.968 -0.6772  0.4028  0.5709
   51MOL   C55937659   1.086   6.594   4.729  0.2672 -0.1780  0.6718
   51MOL   C56037660   0.943   6.639   4.757  0.9361  0.7871  0.1799
   51MOL   C56137661   0.856   6.692   4.643  0.0384  0.2138  0.0939
   51MOL   C56237662   0.706   6.691   4.676  0.1805 -0.3999  0.0787
   51MOL   C56337663   0.630   6.732   4.546 -0.4494 -0.7133  0.0286
   51MOL   C56437664   0.478   6.717   4.557  0.4663  0.3145 -0.9927
   51MOL   C56537665   0.393   6.757   4.437  0.4541 -0.7709  0.3792
   51MOL   C56637666   0.367   6.905   4.412  0.5009 -0.3024 -0.0897
   51MOL   C56737667   0.256   6.970   4.496  0.4929  0.2022 -0.2115
   51MOL   C56837668   0.263   7.117   4.445 -0.0664  0.0270  0.2026
   51MOL   C56937669   0.157   7.205   4.506  0.1234 -0.3436 -0.1157
   51MOL   N57037670   0.176   7.348   4.487  0.2419 -0.0421 -0.0104
   51MOL   H57137671   1.102   6.528   4.644  0.9719  1.3135 -0.3798
   51MOL   H57237672   1.149   6.679   4.703 -0.3877 -0.4775 -2.0814
   51MOL   H57337673   0.892   6.551   4.796 -0.5684  1.2885 -0.6455
   51MOL   H57437674   0.933   6.702   4.845 -1.1374  1.0004 -0.1891
   51MOL   H57537675   0.876   6.642   4.548  1.3813  0.4542  0.2381
   51MOL   H57637676   0.893   6.789   4.610  0.4598 -0.0244 -0.1378
   51MOL   H57737677   0.677   6.589   4.703  1.4489 -0.8548 -0.2421
   51MOL   H57837678   0.676   6.759   4.756  0.3315 -1.1693  0.7970
   51MOL   H57937679   0.653   6.661   4.466  2.3722 -0.8204  0.8624
   51MOL   H58037680   0.647   6.835   4.512  1.2208 -0.3073  1.9307
   51MOL   H58137681   0.438   6.783   4.634  2.2591 -1.2036  1.3090
   51MOL   H58237682   0.457   6.615   4.588  1.2668  0.7070  0.8574
   51MOL   H58337683   0.298   6.705   4.450  0.3972 -0.1014  2.9147
   51MOL   H58437684   0.451   6.714   4.355  1.0323 -2.2267  1.5336
   51MOL   H58537685   0.355   6.920   4.304  5.0155  1.9877 -0.4116
   51MOL   H58637686   0.459   6.960   4.430 -0.0812  0.7797 -0.3979
   51MOL   H58737687   0.280   6.957   4.602 -0.7418 -0.5146 -0.0116
   51MOL   H58837688   0.158   6.927   4.474  1.1359  0.1681 -3.2721
   51MOL   H58937689   0.247   7.109   4.338  1.0313 -2.2510  0.1716
   51MOL   H59037690   0.361   7.161   4.462 -0.3919  0.3974  1.1639
   51MOL   H59137691   0.147   7.185   4.612 -1.7970  0.9475 -0.0358
   51MOL   H59237692   0.057   7.180   4.470 -0.1853  0.9283 -0.1709
   51MOL   H59337693   0.199   7.406   4.567  0.7971  1.1461 -1.0082
   51MOL   C59437694   0.161   7.416   4.373  0.0195 -0.0927 -0.5159
   51MOL   O59537695   0.119   7.359   4.273  0.2026  0.7511  0.0528
   51MOL   C59637696   0.167   7.569   4.377  0.0165  0.5735  0.0895
   51MOL   C59737697   0.224   7.640   4.246 -0.3230  0.1560 -0.3667
   51MOL   C59837698   0.371   0.002   4.273  0.1165  0.2839  0.4653
   51MOL   C59937699   0.468   7.584   4.324 -0.5118  0.6634 -0.2084
   51MOL   C60037700   0.613   7.640   4.305  0.5098 -0.4094  1.2811
   51MOL   C60137701   0.724   7.537   4.278 -0.1249 -0.2230 -0.1723
   51MOL   C60237702   0.747   7.438   4.389 -0.3220 -0.0032  0.6469
   51MOL   C60337703   0.885   7.368   4.381  0.5680  0.2611  0.6866
   51MOL   C60437704   0.925   7.275   4.497  0.9267 -0.1969  0.1185
   51MOL   C60537705   1.068   7.220   4.481 -0.0505 -0.2815  0.1163
   51MOL   C60637706   1.093   7.110   4.586  0.5193 -0.2683 -0.4530
   51MOL   N60737707   1.217   7.049   4.552  0.1440 -0.1236 -0.3179
   51MOL   H60837708   0.225   7.588   4.467 -1.1382 -0.1754  1.0173
   51MOL   H60937709   0.063   7.596   4.392  0.1218  1.1277 -0.1749
   51MOL   H61037710   0.234   7.562   4.170 -0.5150 -1.4979  1.2652
   51MOL   H61137711   0.157   0.026   4.216 -0.7612 -0.9435 -2.4306
   51MOL   H61237712   0.371   0.077   4.352 -2.2290  1.3967 -0.5400
   51MOL   H61337713   0.414   0.039   4.180  0.4826  2.5510  1.4991
   51MOL   H61437714   0.459   7.558   4.429 -0.0434 -0.1982 -0.3835
   51MOL   H61537715   0.443   7.496   4.266  1.1668  0.0345  0.0022
   51MOL   H61637716   0.639   7.691   4.398  1.5266 -0.6026  1.1031
   51MOL   H61737717   0.610   0.011   4.218 -1.1796 -0.6127  1.1601
   51MOL   H61837718   0.812   7.587   4.237  0.3932 -1.4990 -0.6271
   51MOL   H61937719   0.690   7.477   4.193 -0.0728 -1.4310  0.6484
   51MOL   H62037720   0.669   7.362   4.381  0.0441 -0.3543  0.4293
   51MOL   H62137721   0.739   7.490   4.484 -0.5326  1.8505 -0.3697
   51MOL   H62237722   0.956   7.450   4.373 -0.9616  1.4953 -0.5090
   51MOL   H62337723   0.880   7.324   4.282  0.3549  0.9107  0.4083
   51MOL   H62437724   0.861   7.187   4.489  0.5182  0.2119 -1.1967
   51MOL   H62537725   0.906   7.322   4.593 -0.9247 -2.5407  0.9469
   51MOL   H62637726   1.145   7.298   4.482  0.0538 -0.3102 -2.4298
   51MOL   H62737727   1.094   7.179   4.383 -1.1188  1.0296 -0.7380
   51MOL   H62837728   1.008   7.042   4.590  0.2592  0.1304  1.7470
   51MOL   H62937729   1.109   7.163   4.680  0.5932  1.3516 -1.3514
   51MOL   H63037730   1.299   7.103   4.578 -1.1070  0.6449  2.1798
   51MOL   C63137731   1.244   6.928   4.503 -0.6208  0.7098 -0.6904
   51MOL   O63237732   1.157   6.847   4.468  0.4221  0.5781  0.2228
   51MOL   C63337733   1.391   6.887   4.493 -0.1071 -0.1440 -0.5463
   51MOL   C63437734   1.409   6.760   4.586  0.3521 -0.3583  0.1290
   51MOL   C63537735   1.415   6.803   4.736 -0.0896 -0.0212  0.8717
   51MOL   C63637736   1.513   6.913   4.780  0.0104 -0.5617 -0.4661
   51MOL   C63737737   1.505   6.939   4.935  0.4030  0.1957 -0.1317
   51MOL   C63837738   1.629   7.013   4.992  0.1343 -0.0776  0.0687
   51MOL   C63937739   1.626   7.159   4.982 -0.5345  0.2750 -0.1166
   51MOL   C64037740   1.511   7.214   5.065  0.6169 -0.0964  0.4524
   51MOL   C64137741   1.506   7.368   5.082  0.3946 -0.3200  1.1890
   51MOL   C64237742   1.404   7.409   5.183 -0.1837  0.5619 -0.1874
   51MOL   C64337743   1.401   7.566   5.210 -0.8481  0.3766 -0.4995
   51MOL   N64437744   1.360   7.643   5.088 -0.6263  0.3332 -0.0256
   51MOL   H64537745   1.469   6.962   4.506  0.1330 -0.4230 -0.3796
   51MOL   H64637746   1.400   6.854   4.390  2.9740 -1.4421  0.0875
   51MOL   H64737747   1.329   6.687   4.579  0.5095 -0.5351  0.1698
   51MOL   H64837748   1.508   6.720   4.561 -0.1306 -1.7849  0.4390
   51MOL   H64937749   1.423   6.710   4.792  0.2411 -0.1211  0.6567
   51MOL   H65037750   1.314   6.840   4.759 -0.4341  0.4746 -1.3465
   51MOL   H65137751   1.617   6.880   4.771 -0.3523 -1.4585 -1.4198
   51MOL   H65237752   1.500   7.007   4.727  3.8881 -0.3969 -1.2909
   51MOL   H65337753   1.498   6.839   4.978 -0.7070 -0.0053 -0.7525
   51MOL   H65437754   1.410   6.987   4.958 -0.9229 -2.6820  0.7538
   51MOL   H65537755   1.715   6.968   4.942 -0.1204 -1.4828  0.8756
   51MOL   H65637756   1.651   6.997   5.097 -0.3404  1.0243  0.3433
   51MOL   H65737757   1.608   7.194   4.880 -0.1673  0.3987 -0.1390
   51MOL   H65837758   1.713   7.209   5.023 -1.9574  2.0472  0.8277
   51MOL   H65937759   1.515   7.168   5.164  0.1471 -1.2329 -0.0496
   51MOL   H66037760   1.415   7.185   5.022 -0.0928 -0.0504  1.9750
   51MOL   H66137761   1.499   7.420   4.986  1.1295  2.4903  2.6131
   51MOL   H66237762   1.604   7.404   5.115  0.3739  0.1141  0.7805
   51MOL   H66337763   1.401   7.351   5.275 -1.6670  1.2637  0.2234
   51MOL   H66437764   1.315   7.371   5.132  0.0124  0.1415 -0.2234
   51MOL   H66537765   1.496   7.599   5.252 -0.6421  0.9595 -1.4257
   51MOL   H66637766   1.333   7.588   5.292  0.3512  1.7649  0.1377
   51MOL   H66737767   1.262   7.648   5.064 -0.2496 -1.2206 -1.9936
   51MOL   C66837768   1.450   7.693   5.001  0.7537 -0.0857  1.1012
   51MOL   O66937769   1.576   0.006   5.023 -0.4507  0.0917 -0.6309
   51MOL   C67037770   1.379   0.050   4.873 -0.7122 -0.1193 -0.2421
   51MOL   C67137771   1.375   0.203   4.863  0.2097  0.7613  0.3922
   51MOL   C67237772   1.312   0.245   4.735  0.3366  0.4310  0.5203
   51MOL   C67337773   1.323   0.402   4.714  0.0516 -0.0203  0.3566
   51MOL   C67437774   1.278   0.453   4.577  0.4544  0.8594 -0.1771
   51MOL   C67537775   1.287   0.599   4.571  0.1217  0.4190 -0.3000
   51MOL   C67637776   1.243   0.657   4.426 -0.6068 -0.7811  0.6287
   51MOL   C67737777   1.276   0.803   4.416 -0.1927  0.3584 -0.0416
   51MOL   C67837778   1.230   0.867   4.284  0.3085  0.4335  0.2029
   51MOL   C67937779   1.267   1.014   4.275 -0.9292 -0.2103  0.3160
   51MOL   C68037780   1.288   1.065   4.131 -0.3649  0.2004 -0.3217
   51MOL   N68137781   1.321   1.213   4.136  0.0999  0.4429 -0.3993
   51MOL   H68237782   1.276   0.014   4.863  0.0406 -2.4828  0.2518
   51MOL   H68337783   1.428   0.006   4.786 -0.0605 -0.9305  0.5439
   51MOL   H68437784   1.309   0.236   4.944 -2.4360 -0.8843 -1.0400
   51MOL   H68537785   1.474   0.249   4.876  0.9396 -0.9057  0.8295
   51MOL   H68637786   1.210   0.207   4.724  1.2376 -1.4465 -1.7899
   51MOL   H68737787   1.361   0.196   4.651 -0.9001  1.7040 -0.9538
   51MOL   H68837788   1.268   0.456   4.791 -0.1407  0.1757  0.0839
   51MOL   H68937789   1.420   0.441   4.743 -0.4615 -0.0503  2.2001
   51MOL   H69037790   1.172   0.430   4.561 -0.0911  2.4075  0.9565
   51MOL   H69137791   1.334   0.401   4.501 -0.9466 -0.2818 -0.4495
   51MOL   H69237792   1.383   0.640   4.600  0.4024  0.1928 -0.8917
   51MOL   H69337793   1.213   0.649   4.633  2.2606  1.6341  1.3470
   51MOL   H69437794   1.134   0.648   4.423 -0.7780  0.6927  1.6377
   51MOL   H69537795   1.279   0.594   4.345 -1.9946 -2.8734  1.5963
   51MOL   H69637796   1.382   0.818   4.436 -0.9984  3.5628  2.1496
   51MOL   H69737797   1.230   0.854   4.501  1.2953  0.5301  0.6815
   51MOL   H69837798   1.121   0.859   4.280  0.1226  3.2781 -2.0300
   51MOL   H69937799   1.278   0.810   4.205  1.0563  0.1634  0.8463
   51MOL   H70037800   1.357   1.029   4.335 -0.7430  1.0249 -0.2649
   51MOL   H70137801   1.194   1.071   4.332  0.0480  0.5935  0.7823
   51MOL   H70237802   1.201   1.040   4.070 -0.0786  0.4187 -0.8201
   51MOL   H70337803   1.377   1.024   4.084  0.9053  1.0471  1.2818
   51MOL   H70437804   1.407   1.238   4.182 -0.0184 -0.1299  0.1381
   51MOL   C70537805   1.231   1.304   4.092  0.0484 -0.4471  0.5474
   51MOL   O70637806   1.123   1.270   4.038 -0.4029 -0.6966 -0.9055
   51MOL   C70737807   1.264   1.451   4.103 -0.8644  0.2377  0.1503
   51MOL   C70837808   1.309   1.514   3.969  0.6721 -0.1799  0.3764
   51MOL   C70937809   1.449   1.476   3.928  0.1305 -0.0651  0.0677
   51MOL   C71037810   1.494   1.538   3.799 -0.1589  0.1346 -0.3593
   51MOL   C71137811   1.422   1.480   3.680  0.2273  0.1608  0.6675
   51MOL   C71237812   1.460   1.334   3.648 -0.5352  0.3224 -0.0437
   51MOL   C71337813   1.394   1.272   3.529  0.4991 -0.0658  0.5742
   51MOL   C71437814   1.430   1.116   3.507 -0.3387 -0.8298 -0.2227
   51MOL   C71537815   1.374   1.023   3.622  0.3996 -0.8986  0.2417
   51MOL   C71637816   1.467   0.961   3.732 -0.2903 -0.6517 -0.5499
   51MOL   C71737817   1.397   0.871   3.832  0.8759 -0.0061 -0.3329
   51MOL   N71837818   1.487   0.835   3.938 -0.4137  0.0047  0.5083
   51MOL   H71937819   1.324   1.453   4.194 -1.0800  1.2880  0.2828
   51MOL   H72037820   1.171   1.501   4.132 -0.0157  1.8172  0.1843
   51MOL   H72137821   1.239   1.487   3.890  0.1849 -0.7709  1.0005
   51MOL   H72237822   1.312   1.619   3.995  2.1423 -0.5182  1.6490
   51MOL   H72337823   1.450   1.367   3.937  1.3030 -0.0758 -0.0162
   51MOL   H72437824   1.519   1.509   4.005 -1.0860  0.3346  1.0174
   51MOL   H72537825   1.473   1.644   3.796  1.4195  0.4050 -2.3907
   51MOL   H72637826   1.600   1.524   3.776 -0.4229 -0.2828 -1.3207
   51MOL   H72737827   1.447   1.540   3.593 -2.2643  0.8106  0.3551
   51MOL   H72837828   1.314   1.493   3.678  0.0612 -0.5907  3.1301
   51MOL   H72937829   1.433   1.283   3.740 -0.7601  0.1350 -0.2130
   51MOL   H73037830   1.568   1.323   3.646 -0.5055  0.4927  0.4457
   51MOL   H73137831   1.440   1.326   3.446  0.2249  0.4688  0.7720
   51MOL   H73237832   1.289   1.297   3.543  0.3395 -1.6984  2.5260
   51MOL   H73337833   1.537   1.102   3.490 -0.6712 -1.0767 -2.1781
   51MOL   H73437834   1.377   1.091   3.415 -1.9936  1.3579  0.0903
   51MOL   H73537835   1.325   0.937   3.575 -1.5348  1.3359 -1.9767
   51MOL   H73637836   1.290   1.073   3.671  0.3152 -0.7906 -0.0105
   51MOL   H73737837   1.511   1.052   3.774  2.6397 -1.0616 -2.5410
   51MOL   H73837838   1.549   0.903   3.690  0.8139 -2.4751  3.8739
   51MOL   H73937839   1.351   0.782   3.790 -1.3669  0.1101  1.7833
   51MOL   H74037840   1.315   0.929   3.875 -0.7074 -1.7442 -0.9772
   51MOL   H74137841   1.443   0.772   4.003  1.2009 -1.6612  0.0173
   51MOL   H74237842   1.569   0.789   3.902 -0.7008  0.4849 -0.7651
   52MOL     C137843   1.587   2.101   0.382  0.7306  0.1923  1.0246
   52MOL     O237844   1.518   2.047   0.472  0.1174  0.2296 -0.6178
   52MOL     C337845   1.702   2.198   0.401 -0.0579  0.2852  0.3955
   52MOL     C437846   1.720   2.240   0.550  0.1531  0.5614  0.6111
   52MOL     C537847   1.616   2.333   0.614 -0.3067 -0.3620  0.0095
   52MOL     C637848   1.675   2.393   0.753  0.9470 -0.1352  0.1981
   52MOL     C737849   1.581   2.496   0.814 -0.4508  0.2789 -0.7103
   52MOL     C837850   1.583   2.634   0.738  0.3397 -0.3734 -0.2453
   52MOL     C937851   1.492   2.745   0.782  0.0026  0.5021  0.6460
   52MOL    C1037852   1.521   2.885   0.739  0.2381  0.3368  0.1800
   52MOL    C1137853   1.391   2.964   0.767  0.0928 -0.2962  0.1495
   52MOL    C1237854   1.417   3.110   0.727 -0.1714  0.0991 -0.0891
   52MOL    C1337855   1.305   3.209   0.743 -0.1338 -0.3233 -0.3815
   52MOL    N1437856   1.363   3.342   0.724 -0.1910 -0.2071 -0.0160
   52MOL    H1537857   1.673   2.286   0.345 -1.5583 -1.1951 -1.2158
   52MOL    H1637858   1.792   2.156   0.356 -0.7535 -1.4665  0.5964
   52MOL    H1737859   1.747   2.151   0.607  1.5866  0.1198 -0.7219
   52MOL    H1837860   1.806   2.307   0.540 -0.4599  1.1014 -1.1317
   52MOL    H1937861   1.520   2.284   0.625 -1.4489  2.1685  2.0291
   52MOL    H2037862   1.591   2.418   0.550 -1.8021 -0.5895  0.2682
   52MOL    H2137863   1.685   2.313   0.826  0.3084 -0.5452 -0.1512
   52MOL    H2237864   1.775   2.436   0.752  0.0853  1.9246 -0.8903
   52MOL    H2337865   1.605   2.514   0.919 -1.8098  0.0654 -0.3412
   52MOL    H2437866   1.477   2.461   0.817  0.4038 -2.2727  3.5882
   52MOL    H2537867   1.562   2.618   0.632 -0.2006 -0.6438 -0.0999
   52MOL    H2637868   1.684   2.674   0.745  0.2569  0.0902 -1.4662
   52MOL    H2737869   1.474   2.757   0.889  1.7375  0.3801  0.9658
   52MOL    H2837870   1.396   2.717   0.738  0.2481 -0.8110  0.9303
   52MOL    H2937871   1.551   2.883   0.634 -1.8144 -1.0008 -0.4206
   52MOL    H3037872   1.609   2.924   0.790  1.4876 -0.7015 -1.1388
   52MOL    H3137873   1.350   2.958   0.868  0.0981  2.0859  0.3098
   52MOL    H3237874   1.308   2.914   0.716 -0.0316  1.8506 -1.8196
   52MOL    H3337875   1.466   3.112   0.629 -1.1994 -1.2232 -0.6516
   52MOL    H3437876   1.502   3.146   0.785 -0.0767  0.1098 -0.2314
   52MOL    H3537877   1.262   3.219   0.842 -0.4047 -2.9172 -0.2066
   52MOL    H3637878   1.220   3.196   0.676  1.2716 -1.8792 -1.9325
   52MOL    H3737879   1.395   3.397   0.803  1.2723 -0.2446 -0.5549
   52MOL    H3837880   1.572   2.079   0.276 -0.9091  0.1404  1.2508
   52MOL    C3937881   1.404   3.380   0.604 -0.0515  0.2923  0.0479
   52MOL    O4037882   1.359   3.336   0.498 -0.2406 -0.6020  0.0288
   52MOL    C4137883   1.503   3.496   0.603  0.2196  0.0252  0.1624
   52MOL    C4237884   1.645   3.447   0.637 -0.3391 -0.0713  0.6689
   52MOL    C4337885   1.760   3.535   0.610 -0.0564 -0.2454 -0.7189
   52MOL    C4437886   1.764   3.680   0.667 -0.0280  0.0858 -0.0048
   52MOL    C4537887   1.889   3.754   0.631  0.5523  0.3599  0.1038
   52MOL    C4637888   1.898   3.891   0.697  0.3660 -0.5882 -0.4490
   52MOL    C4737889   1.811   4.008   0.635  0.8449  0.4235 -0.1433
   52MOL    C4837890   1.814   4.134   0.716 -1.2229 -0.7052 -0.0990
   52MOL    C4937891   1.738   4.244   0.643  0.2811 -0.3975 -0.5654
   52MOL    C5037892   1.743   4.376   0.725 -0.1116  0.2112 -0.4545
   52MOL    C5137893   1.676   4.503   0.663 -0.3321 -0.7309 -0.8167
   52MOL    N5237894   1.747   4.544   0.548 -0.1178  0.4759  0.3294
   52MOL    H5337895   1.465   3.573   0.670  1.6635 -0.5514  1.6919
   52MOL    H5437896   1.502   3.523   0.497 -1.6857  0.5597  0.3039
   52MOL    H5537897   1.640   3.426   0.744  0.4867  1.4408  1.0105
   52MOL    H5637898   1.665   3.348   0.595  0.4084 -0.2349  1.3876
   52MOL    H5737899   1.764   3.545   0.501 -0.4678 -1.0787 -0.8084
   52MOL    H5837900   1.852   3.484   0.638 -0.0435  0.6553  0.9386
   52MOL    H5937901   1.670   3.731   0.645 -0.3632 -0.0345  1.1299
   52MOL    H6037902   1.757   3.662   0.775 -0.7454 -2.9450 -0.5017
   52MOL    H6137903   1.883   3.777   0.525  1.7643  0.3944  0.0310
   52MOL    H6237904   1.977   3.691   0.649  0.1350 -0.2858 -0.1247
   52MOL    H6337905   1.999   3.929   0.712 -0.4491  0.9427  1.4818
   52MOL    H6437906   1.855   3.885   0.797 -1.8925 -0.8409 -1.4015
   52MOL    H6537907   1.711   3.973   0.608  0.5108  0.7720  0.6188
   52MOL    H6637908   1.870   4.026   0.545  0.2653  2.1582 -0.2119
   52MOL    H6737909   1.914   4.175   0.728 -1.6744  0.4983 -0.3902
   52MOL    H6837910   1.770   4.118   0.815 -1.7510 -0.4312 -0.2871
   52MOL    H6937911   1.632   4.226   0.624  0.2063 -0.5336 -0.0109
   52MOL    H7037912   1.790   4.254   0.547  0.6140 -2.3723 -0.6118
   52MOL    H7137913   1.848   4.407   0.729 -0.7567  2.6323 -1.2669
   52MOL    H7237914   1.684   4.372   0.816  1.9474 -0.9264  0.8780
   52MOL    H7337915   1.688   4.579   0.741  0.3992 -0.4969 -1.1456
   52MOL    H7437916   1.569   4.488   0.659 -0.5010 -0.8568  2.4472
   52MOL    H7537917   1.826   4.490   0.517 -0.9881  0.1099 -1.2781
   52MOL    C7637918   1.701   4.640   0.465 -0.7533 -0.1419 -0.5214
   52MOL    O7737919   1.596   4.692   0.486 -0.0939  0.0390 -0.5414
   52MOL    C7837920   1.780   4.666   0.341 -0.2756 -0.1251 -0.1886
   52MOL    C7937921   1.713   4.645   0.213 -0.1215 -0.2256 -0.7683
   52MOL    C8037922   1.809   4.700   0.102  0.4192  0.3715 -0.2813
   52MOL    C8137923   1.776   4.645   7.653 -0.2412  0.0563  0.2878
   52MOL    C8237924   1.634   4.661   7.592 -0.3093  0.6447 -0.4588
   52MOL    C8337925   1.603   4.799   7.543 -0.5670 -0.2351  0.4556
   52MOL    C8437926   1.456   4.821   7.498  0.2448  0.9517 -0.5624
   52MOL    C8537927   1.356   4.819   7.612  0.3499  0.5087 -0.6291
   52MOL    C8637928   1.211   4.858   7.577 -0.1985 -0.1471 -0.0960
   52MOL    C8737929   1.111   4.855   7.690 -0.2289 -0.1013 -0.1100
   52MOL    C8837930   1.044   4.722   0.009 -0.1682 -0.0149 -0.9212
   52MOL    N8937931   0.954   4.715   0.116  0.4511  0.3015 -0.3297
   52MOL    H9037932   1.866   4.598   0.344  1.0084  1.5419  2.1553
   52MOL    H9137933   1.815   4.767   0.357 -0.7341  0.0540 -0.3180
   52MOL    H9237934   1.693   4.540   0.192  0.2232 -0.3756 -0.3360
   52MOL    H9337935   1.616   4.695   0.215  0.3789  0.7239  0.2307
   52MOL    H9437936   1.914   4.675   0.121  0.8327  1.8528 -0.5312
   52MOL    H9537937   1.807   4.809   0.091  0.3724  0.5750  1.5013
   52MOL    H9637938   1.842   4.699   7.585 -1.7205  0.4146 -0.9109
   52MOL    H9737939   1.813   4.543   7.648 -0.1363  0.0204  1.7163
   52MOL    H9837940   1.562   4.633   7.669 -1.1759  2.1025 -0.7144
   52MOL    H9937941   1.614   4.581   7.520 -0.2774  1.9354 -1.9148
   52MOL   H10037942   1.671   4.822   7.460  0.1204  0.7126  1.2647
   52MOL   H10137943   1.630   4.873   7.619 -0.5227  1.9876 -1.6308
   52MOL   H10237944   1.420   4.751   7.423 -1.8104 -0.5358  1.7305
   52MOL   H10337945   1.449   4.922   7.456  1.2922  0.5255 -1.7937
   52MOL   H10437946   1.385   4.891   7.688 -0.9986 -0.7865  1.1768
   52MOL   H10537947   1.344   4.718   7.653 -1.0680  0.1704 -1.8344
   52MOL   H10637948   1.166   4.801   7.496 -0.6340 -1.4938  1.0649
   52MOL   H10737949   1.208   4.959   7.538 -0.0138 -0.1331 -0.0739
   52MOL   H10837950   1.034   4.931   7.676  1.1664  1.2633 -0.5454
   52MOL   H10937951   1.169   4.890   0.082 -2.8142  0.3363  1.5047
   52MOL   H11037952   1.114   4.639   0.017  0.7102  0.8588  0.7458
   52MOL   H11137953   0.981   4.700   7.616  1.2378 -0.5031 -1.8518
   52MOL   H11237954   1.006   4.681   0.195  0.5961 -0.6294 -0.8177
   52MOL   C11337955   0.822   4.707   0.106 -0.2091 -0.0402  0.2942
   52MOL   O11437956   0.762   4.720   0.002 -0.3811  0.1712  0.0270
   52MOL   C11537957   0.756   4.672   0.238  0.2490 -0.1810  0.7858
   52MOL   C11637958   0.602   4.683   0.243 -0.2069  0.3654 -1.1758
   52MOL   C11737959   0.521   4.604   0.138 -0.2267 -0.3272  0.3582
   52MOL   C11837960   0.378   4.578   0.191 -0.8493  0.4161 -0.7231
   52MOL   C11937961   0.276   4.504   0.092  0.1891 -0.1408  0.0774
   52MOL   C12037962   0.137   4.517   0.149  0.0514 -0.7727  0.0334
   52MOL   C12137963   0.105   4.398   0.244  0.1398  0.1437  0.6428
   52MOL   C12237964   7.651   4.391   0.285  1.1027 -0.0263 -0.2593
   52MOL   C12337965   7.630   4.334   0.427  0.0520  0.1146 -0.1107
   52MOL   C12437966   7.510   4.398   0.493  0.6265 -0.4254  0.2249
   52MOL   C12537967   7.481   4.335   0.635  0.4317  0.3063  0.0337
   52MOL   N12637968   7.365   4.401   0.701 -0.0473 -0.1501 -0.2276
   52MOL   H12737969   0.799   4.746   0.304  0.0794  1.0807 -0.4980
   52MOL   H12837970   0.790   4.575   0.275  0.0652 -0.4446  0.2670
   52MOL   H12937971   0.578   4.642   0.341 -0.5320  3.0455 -0.0748
   52MOL   H13037972   0.553   4.781   0.238 -2.3126 -0.4325  2.1204
   52MOL   H13137973   0.567   4.509   0.111  0.2045 -0.0814  0.2332
   52MOL   H13237974   0.531   4.663   0.048  1.9693 -0.6376  0.3591
   52MOL   H13337975   0.375   4.501   0.268 -2.1960 -0.3427 -1.5213
   52MOL   H13437976   0.344   4.673   0.231 -0.5935  0.2946 -0.2152
   52MOL   H13537977   0.285   4.399   0.065  2.0279  0.0776 -0.1974
   52MOL   H13637978   0.278   4.556   7.690 -1.3791 -0.1599  0.0295
   52MOL   H13737979   0.066   4.528   0.067 -0.1478  1.6138  0.4796
   52MOL   H13837980   0.108   4.605   0.207 -2.8759 -0.2642 -2.0939
   52MOL   H13937981   0.172   4.408   0.329  2.6276  1.1630 -1.3636
   52MOL   H14037982   0.123   4.301   0.197  4.9991  1.2094  0.0114
   52MOL   H14137983   7.595   4.335   0.211 -0.2637 -1.1466  1.5915
   52MOL   H14237984   7.601   4.488   0.289  0.7144 -0.3112  3.3871
   52MOL   H14337985   0.017   4.341   0.500 -0.2492  0.5027  0.1900
   52MOL   H14437986   7.608   4.227   0.425  0.0825  0.0164  2.7803
   52MOL   H14537987   7.416   4.377   0.440  1.3908 -2.3979 -0.4010
   52MOL   H14637988   7.521   4.506   0.507 -3.0325  0.0445 -0.0114
   52MOL   H14737989   7.575   4.337   0.691 -0.2125 -2.9200  1.3664
   52MOL   H14837990   7.453   4.230   0.631 -3.3335  1.3044 -2.2966
   52MOL   H14937991   7.380   4.499   0.720 -1.2659  0.2224 -1.0950
   52MOL   C15037992   7.244   4.346   0.731 -0.0404 -1.0043 -0.3938
   52MOL   O15137993   7.223   4.231   0.712  0.3905  0.5476  0.3637
   52MOL   C15237994   7.141   4.445   0.785  0.0741 -0.2102 -0.4021
   52MOL   C15337995   6.995   4.395   0.784 -0.0668 -0.2505 -0.1928
   52MOL   C15437996   6.892   4.495   0.839 -0.6865  0.0610 -0.1174
   52MOL   C15537997   6.811   4.446   0.961 -0.0985  0.4983  0.0340
   52MOL   C15637998   6.675   4.400   0.918 -0.1447 -0.1126  0.0306
   52MOL   C15737999   6.678   4.271   0.828 -0.3000  0.6258 -0.9062
   52MOL   C15838000   6.541   4.208   0.804  0.4116  0.7023 -0.4422
   52MOL   C15938001   6.474   4.270   0.685  1.2849 -0.0216 -0.7027
   52MOL   C16038002   6.330   4.240   0.671  0.1852 -0.7460 -0.0982
   52MOL   C16138003   6.264   4.321   0.552  0.0501 -0.3490 -0.1717
   52MOL   C16238004   6.285   4.260   0.413  0.1201  0.1376 -0.2496
   52MOL   N16338005   6.419   4.295   0.366 -0.0052  0.2387 -0.1786
   52MOL   H16438006   7.154   4.539   0.730  0.0060 -0.8682 -1.5676
   52MOL   H16538007   7.178   4.466   0.885 -0.7345  1.4289 -0.4223
   52MOL   H16638008   6.964   4.376   0.681  2.5277  0.4270 -1.1368
   52MOL   H16738009   6.982   4.300   0.836  0.9847 -0.5648 -0.4841
   52MOL   H16838010   6.827   4.523   0.756  1.1660 -1.5862 -2.1706
   52MOL   H16938011   6.938   4.591   0.862 -0.5024 -0.3291  1.1835
   52MOL   H17038012   6.860   4.365   1.014  0.1951  0.0457 -0.9148
   52MOL   H17138013   6.785   4.509   1.046  3.2263 -0.0612  1.5046
   52MOL   H17238014   6.622   4.480   0.866 -0.1836  0.1015  0.3959
   52MOL   H17338015   6.620   4.368   1.007  0.2120  1.2402  0.7500
   52MOL   H17438016   6.742   4.196   0.874  0.5611  0.8791 -1.6692
   52MOL   H17538017   6.725   4.291   0.731  0.6457  0.1426 -0.5524
   52MOL   H17638018   6.478   4.218   0.892  0.9294 -0.9299  0.1427
   52MOL   H17738019   6.549   4.100   0.791 -0.9516  0.2737  1.9003
   52MOL   H17838020   6.530   4.248   0.595  0.3936 -3.2337 -0.5442
   52MOL   H17938021   6.487   4.376   0.706 -0.1668 -0.0654  0.5253
   52MOL   H18038022   6.288   4.286   0.761  1.8142  1.9180 -0.6685
   52MOL   H18138023   6.296   4.136   0.666 -1.8954  0.0042 -2.6521
   52MOL   H18238024   6.313   4.416   0.536 -1.3549 -0.0868 -3.4072
   52MOL   H18338025   6.159   4.335   0.578  0.3107  2.3377 -0.4446
   52MOL   H18438026   6.209   4.301   0.348 -1.7248 -1.0518  1.1133
   52MOL   H18538027   6.251   4.156   0.413 -2.5378  0.9743 -0.7744
   52MOL   H18638028   6.443   4.391   0.385 -0.2201  0.3075 -0.2514
   52MOL   C18738029   6.502   4.217   0.302  0.0720 -0.0964 -0.3696
   52MOL   O18838030   6.477   4.096   0.285  0.0058 -0.3079 -0.3026
   52MOL   C18938031   6.635   4.278   0.274 -0.8491  0.3337  0.1594
   52MOL   C19038032   6.707   4.223   0.149 -0.7684 -0.1988 -0.3893
   52MOL   C19138033   6.817   4.325   0.116  0.0920  0.5371  0.0377
   52MOL   C19238034   6.883   4.301   7.678 -0.5494 -0.4063  0.4503
   52MOL   C19338035   6.786   4.308   7.553  0.7982  0.2367 -1.0910
   52MOL   C19438036   6.865   4.305   7.422  0.2151 -0.3855  0.6937
   52MOL   C19538037   6.777   4.297   7.302 -0.3105  0.0695  0.8504
   52MOL   C19638038   6.854   4.292   7.166 -0.1661 -0.1716 -0.0245
   52MOL   C19738039   6.767   4.265   7.038 -0.0307  0.5913 -0.3119
   52MOL   C19838040   6.678   4.378   6.985 -0.3753  0.0824 -0.7726
   52MOL   C19938041   6.591   4.345   6.863  0.1592  0.4243 -0.5739
   52MOL   N20038042   6.503   4.456   6.823 -0.1668  0.0594  0.0254
   52MOL   H20138043   6.687   4.250   0.365  0.6737 -0.3587 -0.9046
   52MOL   H20238044   6.618   4.385   0.269  0.7079  0.5719 -0.1067
   52MOL   H20338045   6.735   4.118   0.145 -1.1822 -0.3434  0.5419
   52MOL   H20438046   6.628   4.226   0.074 -2.7143  0.5596  1.6291
   52MOL   H20538047   6.891   4.341   0.195 -0.0684 -2.1922  0.7854
   52MOL   H20638048   6.767   4.422   0.106 -0.0880  0.4387 -0.0211
   52MOL   H20738049   6.969   4.364   7.657 -0.2045 -1.0287 -0.0497
   52MOL   H20838050   6.920   4.200   7.692  0.0421 -0.0717  1.2614
   52MOL   H20938051   6.728   4.400   7.559  0.1002 -0.2990  0.8054
   52MOL   H21038052   6.718   4.223   7.559 -0.1004  0.9847 -0.5307
   52MOL   H21138053   6.928   4.216   7.425  1.1026  0.2026 -0.3281
   52MOL   H21238054   6.939   4.383   7.409  1.1821 -1.1024  1.6951
   52MOL   H21338055   6.699   4.373   7.304  2.1303  2.7422 -1.3398
   52MOL   H21438056   6.726   4.201   7.303  3.3308 -1.9985 -0.9425
   52MOL   H21538057   6.934   4.218   7.174  0.0230  0.1605  1.1665
   52MOL   H21638058   6.909   4.382   7.138 -2.2872  0.6259 -1.7943
   52MOL   H21738059   6.703   4.179   7.056  2.7181 -1.2215  1.0995
   52MOL   H21838060   6.837   4.230   6.961 -1.7768 -0.2399 -1.5583
   52MOL   H21938061   6.749   4.459   6.965  0.4866 -0.2567  0.8056
   52MOL   H22038062   6.613   4.408   7.067 -1.7364 -1.0255 -1.4359
   52MOL   H22138063   6.534   4.256   6.890  2.7071 -1.5993 -1.5865
   52MOL   H22238064   6.655   4.320   6.778 -0.7296 -2.4339 -0.4594
   52MOL   H22338065   6.531   4.506   6.740 -1.8459  1.0324  0.0274
   52MOL   C22438066   6.381   4.493   6.871 -0.2650 -0.0161 -0.8260
   52MOL   O22538067   6.325   4.423   6.956  0.0525  0.7684 -0.4367
   52MOL   C22638068   6.321   4.621   6.819 -0.7496 -0.1709  0.6880
   52MOL   C22738069   6.164   4.625   6.827 -0.4846  0.2272 -0.2355
   52MOL   C22838070   6.087   4.492   6.785  0.1549 -0.3748 -0.5409
   52MOL   C22938071   5.942   4.487   6.852  0.6778  0.4815 -0.1382
   52MOL   C23038072   5.883   4.344   6.866 -0.0538  0.6216  0.7713
   52MOL   C23138073   5.835   4.277   6.735  0.4359  0.3608  0.2813
   52MOL   C23238074   5.773   4.139   6.762 -0.2486  0.1768  0.5226
   52MOL   C23338075   5.723   4.067   6.636  0.5955 -0.1323  0.2247
   52MOL   C23438076   5.671   3.927   6.666 -0.0849  0.3547  0.8971
   52MOL   C23538077   5.784   3.824   6.671 -0.0627 -0.8988  0.3133
   52MOL   C23638078   5.713   3.678   6.687  0.4040  0.0859 -0.7256
   52MOL   N23738079   5.806   3.564   6.707  0.2769  0.0998  0.3670
   52MOL   H23838080   6.370   4.638   6.723  2.2395  1.5251  2.4193
   52MOL   H23938081   6.356   4.702   6.883 -0.7270  0.9288 -0.6897
   52MOL   H24038082   6.141   4.639   6.933  1.1290 -0.1936  0.1836
   52MOL   H24138083   6.121   4.714   6.782 -1.1058  0.0807  0.0524
   52MOL   H24238084   6.134   4.399   6.817  1.8003 -0.1450 -2.1584
   52MOL   H24338085   6.077   4.484   6.677 -0.1393 -2.0932 -0.4006
   52MOL   H24438086   5.956   4.513   6.957  1.5626  2.7908 -0.7996
   52MOL   H24538087   5.865   4.556   6.817  1.0475  0.6659 -0.5921
   52MOL   H24638088   5.795   4.349   6.930 -0.3750 -0.1297  0.3832
   52MOL   H24738089   5.955   4.281   6.918  1.0230 -0.3802 -1.8344
   52MOL   H24838090   5.924   4.268   6.673  0.2404 -0.4129  0.1130
   52MOL   H24938091   5.760   4.341   6.689  0.2656  1.2805  1.8046
   52MOL   H25038092   5.685   4.159   6.823  0.7570  1.1304  1.7044
   52MOL   H25138093   5.847   4.074   6.810  1.8544  1.9595 -0.2190
   52MOL   H25238094   5.798   4.064   6.557 -0.5951  0.1223 -0.9353
   52MOL   H25338095   5.650   4.133   6.590 -0.9022 -0.8998  1.4856
   52MOL   H25438096   5.600   3.897   6.589  1.3262 -0.2109 -0.2042
   52MOL   H25538097   5.623   3.927   6.764  1.0307 -1.0280  1.4692
   52MOL   H25638098   5.840   3.844   6.762  0.1280 -2.6107  0.5853
   52MOL   H25738099   5.853   3.836   6.587  0.7967  1.0985  1.2584
   52MOL   H25838100   5.645   3.658   6.604  0.6387 -3.0611 -0.2129
   52MOL   H25938101   5.641   3.679   6.768  0.2326  0.6121 -0.8856
   52MOL   H26038102   5.799   3.482   6.648  2.3905 -1.1965  1.8549
   52MOL   C26138103   5.875   3.544   6.824 -0.3224  0.4445  0.0478
   52MOL   O26238104   5.881   3.626   6.912 -0.1751  0.2110  0.1018
   52MOL   C26338105   5.962   3.417   6.822 -0.0134  0.2594  0.3192
   52MOL   C26438106   5.917   3.277   6.885 -0.7569  0.0145 -0.7769
   52MOL   C26538107   5.793   3.223   6.814 -0.0760 -0.8691 -0.4531
   52MOL   C26638108   5.738   3.094   6.887 -0.0059 -0.1129 -0.2508
   52MOL   C26738109   5.811   2.956   6.849  0.7718 -0.7205 -0.2161
   52MOL   C26838110   5.789   2.843   6.947 -0.9582 -0.3769  0.1334
   52MOL   C26938111   5.852   2.712   6.906  0.1544  0.6980 -0.1047
   52MOL   C27038112   5.806   2.592   6.990  0.2538  0.4248 -0.1424
   52MOL   C27138113   5.878   2.470   6.940  0.0644 -0.5195 -0.4033
   52MOL   C27238114   6.014   2.447   7.006  0.1356  0.2478 -0.2848
   52MOL   C27338115   6.062   2.310   6.966  0.1856  0.3314  0.3360
   52MOL   N27438116   6.203   2.299   6.984  0.4527  0.6131  0.0522
   52MOL   H27538117   6.052   3.451   6.874 -0.4542  3.2056 -0.7612
   52MOL   H27638118   6.001   3.413   6.720  1.6941  1.5044  0.8868
   52MOL   H27738119   5.995   3.206   6.858 -1.4996 -1.4657  0.9539
   52MOL   H27838120   5.900   3.284   6.992  0.3126  0.0355 -0.5973
   52MOL   H27938121   5.812   3.201   6.709 -1.9563 -0.2553 -0.9426
   52MOL   H28038122   5.713   3.297   6.825 -0.0504 -0.8720 -0.2365
   52MOL   H28138123   5.751   3.105   6.994 -0.8899  0.1926 -0.1737
   52MOL   H28238124   5.632   3.082   6.865 -0.0598  0.1415 -0.1321
   52MOL   H28338125   5.918   2.971   6.837  0.3252  2.6489 -0.2682
   52MOL   H28438126   5.779   2.922   6.751 -0.1127 -1.6956  0.3888
   52MOL   H28538127   5.684   2.831   6.973 -1.4670  0.8221 -1.3351
   52MOL   H28638128   5.826   2.867   7.046 -1.0521  0.3649 -0.0109
   52MOL   H28738129   5.960   2.717   6.913  0.3209 -1.8595 -0.2950
   52MOL   H28838130   5.829   2.691   6.802  0.0019 -2.2735  0.4838
   52MOL   H28938131   5.698   2.586   6.982  0.3014 -2.1464  0.6495
   52MOL   H29038132   5.820   2.613   7.096 -0.6049  2.8542 -0.4719
   52MOL   H29138133   5.903   2.474   6.834 -1.6466 -2.4330 -0.9125
   52MOL   H29238134   5.806   2.396   6.975 -0.2804  0.3193  0.6672
   52MOL   H29338135   6.008   2.459   7.114  1.4536 -0.9077 -0.0809
   52MOL   H29438136   6.082   2.525   6.971 -2.2854  3.4498  1.7769
   52MOL   H29538137   6.045   2.298   6.859 -1.0689  0.3075  0.5333
   52MOL   H29638138   6.009   2.233   7.021  1.7251  0.1571  1.5984
   52MOL   H29738139   6.256   2.301   6.899  1.2972 -0.2386  0.5609
   52MOL   C29838140   6.265   2.276   7.104  0.4621  0.3247  0.2415
   52MOL   O29938141   6.196   2.279   7.206 -0.1105 -0.6281  0.4567
   52MOL   C30038142   6.417   2.253   7.098 -0.4714  0.4247 -0.2352
   52MOL   C30138143   6.474   2.136   7.181 -0.3588  0.4844 -0.1121
   52MOL   C30238144   6.623   2.153   7.206 -0.2038 -0.0284  0.1722
   52MOL   C30338145   6.692   2.025   7.272 -0.6246 -0.1309 -0.0938
   52MOL   C30438146   6.846   2.031   7.298  0.9001 -0.1163  0.4403
   52MOL   C30538147   6.896   2.147   7.384  0.6156 -0.9075  0.4947
   52MOL   C30638148   7.041   2.127   7.423 -0.5058  0.0342  0.1979
   52MOL   C30738149   7.126   2.261   7.451  0.6590 -0.3874 -0.1497
   52MOL   C30838150   7.260   2.222   7.520  0.7017  0.8436  0.4620
   52MOL   C30938151   7.333   2.343   7.579 -0.5451 -0.4283  0.2506
   52MOL   C31038152   7.467   2.310   7.650 -0.0033 -0.5503  0.0896
   52MOL   N31138153   7.525   2.436   7.694  0.5634 -0.6304  0.1593
   52MOL   H31238154   6.468   2.345   7.127  1.0088 -0.3780 -0.2220
   52MOL   H31338155   6.427   2.221   6.994 -1.0413 -0.5743  0.0129
   52MOL   H31438156   6.427   2.145   7.279 -1.1644  0.2626 -0.4714
   52MOL   H31538157   6.450   2.047   7.123 -1.8765  0.5865  0.3401
   52MOL   H31638158   6.633   2.237   7.275  0.3151 -0.5749  0.7658
   52MOL   H31738159   6.669   2.187   7.114 -1.9065  0.3173 -0.5689
   52MOL   H31838160   6.644   2.010   7.369  1.9040 -3.5640  0.7299
   52MOL   H31938161   6.670   1.931   7.220 -2.6205 -0.5239  1.4099
   52MOL   H32038162   6.891   2.035   7.198 -2.1136 -0.3965 -0.9649
   52MOL   H32138163   6.888   1.934   7.328  0.3311 -0.5660 -0.1914
   52MOL   H32238164   6.829   2.134   7.470 -0.3414 -0.4887 -0.1862
   52MOL   H32338165   6.874   2.246   7.344 -0.6587 -0.7060  1.6265
   52MOL   H32438166   7.098   2.073   7.347 -0.4433  1.3429 -0.7024
   52MOL   H32538167   7.053   2.050   7.498 -1.8776 -0.7416 -0.3728
   52MOL   H32638168   7.083   2.327   7.526  3.2236 -0.2254  1.2525
   52MOL   H32738169   7.149   2.319   7.362 -2.0916  1.9783  0.5892
   52MOL   H32838170   7.328   2.179   7.446  1.4885  1.2027  0.9680
   52MOL   H32938171   7.246   2.136   7.586 -0.8522 -1.4279 -2.7031
   52MOL   H33038172   7.266   2.398   7.646 -0.1883  0.5336 -0.1717
   52MOL   H33138173   7.343   2.411   7.495  0.5706 -0.7656  0.1035
   52MOL   H33238174   7.530   2.266   7.573 -0.3344 -0.9024  0.0221
   52MOL   H33338175   7.454   2.245   0.043  0.0303 -0.9069 -0.1741
   52MOL   H33438176   7.454   2.505   0.021 -0.6759 -1.5231 -1.0043
   52MOL   C33538177   7.647   2.451   0.043  0.4132 -0.1971  0.5251
   52MOL   O33638178   0.039   2.364   0.039  0.0910  0.7091  0.3153
   52MOL   C33738179   7.680   2.583   0.106  0.6654 -0.0140 -0.2516
   52MOL   C33838180   0.093   2.568   0.216 -0.8396 -0.2977  0.1047
   52MOL   C33938181   0.244   2.544   0.175  0.2645  0.4654 -0.5134
   52MOL   C34038182   0.342   2.579   0.289  0.2935 -0.3482  0.9699
   52MOL   C34138183   0.482   2.538   0.275  0.2844  0.3885  0.2727
   52MOL   C34238184   0.492   2.383   0.316  0.7043  0.3152 -0.2622
   52MOL   C34338185   0.630   2.323   0.276 -0.3142 -0.4967 -0.5420
   52MOL   C34438186   0.646   2.178   0.322  1.0267 -0.7275 -0.1703
   52MOL   C34538187   0.786   2.140   0.272 -0.7212  0.7805 -0.0427
   52MOL   C34638188   0.815   1.991   0.312 -0.3330 -0.3821  0.2340
   52MOL   C34738189   0.941   1.931   0.238 -0.7325 -0.2690 -0.1272
   52MOL   N34838190   1.058   2.016   0.238 -0.5358 -0.1612 -0.2326
   52MOL   H34938191   7.594   2.625   0.159  1.1172 -0.6179  0.9630
   52MOL   H35038192   0.021   2.647   0.024 -0.9792 -2.0594 -2.6490
   52MOL   H35138193   0.083   2.656   0.278  1.9025  0.1353  0.0121
   52MOL   H35238194   0.062   2.491   0.287  0.0916 -2.2139 -1.5024
   52MOL   H35338195   0.278   2.591   0.083  0.8205  0.7204 -0.1798
   52MOL   H35438196   0.251   2.438   0.153  0.6704 -0.0131  1.7438
   52MOL   H35538197   0.349   2.687   0.305  1.1564 -0.5705  2.1555
   52MOL   H35638198   0.303   2.526   0.376 -1.8083 -1.6362 -0.7263
   52MOL   H35738199   0.556   2.579   0.342  0.5060  3.1083 -1.5562
   52MOL   H35838200   0.511   2.558   0.172 -0.1974 -1.1531 -0.1804
   52MOL   H35938201   0.410   2.336   0.261  0.1941  1.6068 -0.6254
   52MOL   H36038202   0.470   2.368   0.421  1.9860  0.5310  0.0340
   52MOL   H36138203   0.706   2.381   0.328 -0.7205 -1.5313  1.2494
   52MOL   H36238204   0.643   2.336   0.169  0.8380  0.1733 -0.3295
   52MOL   H36338205   0.568   2.119   0.274 -0.1981  0.1972  0.6512
   52MOL   H36438206   0.633   2.165   0.429  1.4051 -1.7916 -0.2498
   52MOL   H36538207   0.868   2.195   0.317  1.3263 -0.4855 -2.1025
   52MOL   H36638208   0.795   2.153   0.164 -1.4707  2.4650  0.0789
   52MOL   H36738209   0.728   1.926   0.303 -2.3210  2.0722  1.2239
   52MOL   H36838210   0.841   1.985   0.418  1.5572 -2.6065 -0.3119
   52MOL   H36938211   0.916   1.904   0.135 -1.7284 -1.4861  0.4167
   52MOL   H37038212   0.964   1.836   0.287 -2.6213 -0.3085  0.7327
   52MOL   H37138213   1.119   2.024   0.318 -0.5141 -1.0698 -0.1567
   52MOL   C37238214   1.113   2.083   0.137 -0.3171 -0.4269  0.5878
   52MOL   O37338215   1.058   2.090   0.023 -0.8628 -0.1313 -0.3485
   52MOL   C37438216   1.253   2.144   0.165  0.1370 -0.5525  0.1146
   52MOL   C37538217   1.360   2.134   0.050  0.0746  0.3453 -0.1517
   52MOL   C37638218   1.405   1.992   0.027  0.0397  0.7011  0.2437
   52MOL   C37738219   1.523   1.983   7.617  0.1483  0.2219 -0.2323
   52MOL   C37838220   1.554   1.842   7.556  0.1265  0.1019  0.6141
   52MOL   C37938221   1.665   1.841   7.453  0.0327  0.2632  0.2115
   52MOL   C38038222   1.648   1.723   7.351  0.1704  0.1090  0.9931
   52MOL   C38138223   1.680   1.590   7.427 -0.1991  0.2978 -0.5302
   52MOL   C38238224   1.716   1.469   7.344 -0.4526  0.0235  0.4059
   52MOL   C38338225   1.598   1.420   7.256  0.5219 -1.0276 -0.6808
   52MOL   C38438226   1.624   1.278   7.191 -0.0415 -0.4534 -0.0091
   52MOL   N38538227   1.537   1.248   7.081  0.4443 -0.1885  0.0564
   52MOL   H38638228   1.285   2.100   0.259 -1.7463 -1.5768  0.3019
   52MOL   H38738229   1.235   2.247   0.195 -0.2111  0.0619 -2.0695
   52MOL   H38838230   1.318   2.174   7.651 -0.6704 -1.3036 -0.5399
   52MOL   H38938231   1.452   2.190   0.066 -0.6276  1.5223 -0.1559
   52MOL   H39038232   1.324   1.928   7.688  0.1670  0.2065  0.8724
   52MOL   H39138233   1.435   1.948   0.122 -0.3265  0.0450  0.0567
   52MOL   H39238234   1.494   2.055   7.540  0.8607 -0.2473 -0.9550
   52MOL   H39338235   1.608   2.022   7.674  1.5148 -1.2214 -1.2473
   52MOL   H39438236   1.466   1.805   7.504 -1.2392  4.3712 -0.2939
   52MOL   H39538237   1.584   1.774   7.636 -2.6260 -1.3383  0.4797
   52MOL   H39638238   1.767   1.841   7.492  0.5543 -1.7936 -1.0796
   52MOL   H39738239   1.661   1.930   7.391  2.3834 -1.0326 -1.9105
   52MOL   H39838240   1.702   1.734   7.257 -0.4718  1.8287  0.8254
   52MOL   H39938241   1.546   1.706   7.318  0.9117 -1.5433 -0.5667
   52MOL   H40038242   1.609   1.567   7.506  1.7000  2.3316  1.8452
   52MOL   H40138243   1.774   1.600   7.482  1.8375 -1.5917 -3.4735
   52MOL   H40238244   1.742   1.391   7.415 -2.9827 -0.7947  0.4819
   52MOL   H40338245   1.799   1.493   7.278 -0.3229 -0.7712  0.2778
   52MOL   H40438246   1.588   1.494   7.177  1.8103  0.4021  0.4587
   52MOL   H40538247   1.507   1.401   7.312  1.4223  1.1097  1.5976
   52MOL   H40638248   1.602   1.203   7.267 -0.7779 -0.3605 -0.1191
   52MOL   H40738249   1.726   1.260   7.158 -0.1112  0.8212 -0.9483
   52MOL   H40838250   1.552   1.284   6.987 -0.0176 -3.1438 -1.2268
   52MOL   C40938251   1.437   1.160   7.081 -0.0655 -0.7592 -0.3588
   52MOL   O41038252   1.407   1.092   7.180 -0.6808  0.1420  0.4371
   52MOL   C41138253   1.367   1.137   6.949 -0.1185  0.1926 -0.2227
   52MOL   C41238254   1.212   1.099   6.958 -0.0316 -0.1248 -0.2453
   52MOL   C41338255   1.119   1.217   6.981  1.1229  0.0870  0.6717
   52MOL   C41438256   1.111   1.261   7.127  0.6738 -0.4167  0.8837
   52MOL   C41538257   1.154   1.406   7.141 -0.1858 -0.6579  0.2656
   52MOL   C41638258   1.156   1.453   7.290  1.1213 -0.2967  0.3010
   52MOL   C41738259   1.240   1.573   7.316  0.6328 -0.4681 -0.4563
   52MOL   C41838260   1.144   1.691   7.288  0.2044 -0.2060  0.0017
   52MOL   C41938261   1.014   1.702   7.376 -0.4943  0.1981  0.7176
   52MOL   C42038262   0.973   1.846   7.406 -0.3232 -0.4333 -1.0135
   52MOL   C42138263   0.864   1.868   7.506 -0.3712  0.0604  0.7866
   52MOL   N42238264   0.847   2.007   7.528  0.0236 -0.4046  0.3315
   52MOL   H42338265   1.419   1.057   6.898  0.3666 -0.0409  0.6318
   52MOL   H42438266   1.377   1.221   6.880  0.1989  0.7042  0.4425
   52MOL   H42538267   1.184   1.053   6.864 -0.8385 -1.1258  0.4754
   52MOL   H42638268   1.200   1.022   7.034  2.3443 -1.1452 -0.8334
   52MOL   H42738269   1.019   1.193   6.946  1.0183  1.0833  0.2855
   52MOL   H42838270   1.146   1.304   6.921  3.5444  0.0802  1.6961
   52MOL   H42938271   1.006   1.250   7.155 -0.3932  0.4249 -2.5391
   52MOL   H43038272   1.182   1.207   7.191  2.9096  0.1658 -1.0652
   52MOL   H43138273   1.085   1.468   7.084 -1.4485  0.2627  2.7357
   52MOL   H43238274   1.255   1.407   7.100 -0.5018  0.5391 -0.5168
   52MOL   H43338275   1.204   1.368   7.339  0.6882 -1.0681 -0.5907
   52MOL   H43438276   1.058   1.471   7.335 -0.2945 -3.6186 -1.3114
   52MOL   H43538277   1.331   1.571   7.256  1.0247  0.0236  0.1170
   52MOL   H43638278   1.270   1.578   7.420 -0.0276  2.7508 -0.3525
   52MOL   H43738279   1.125   1.701   7.181  0.7139  0.4421 -0.0271
   52MOL   H43838280   1.202   1.781   7.310  0.1860 -0.0382 -0.6117
   52MOL   H43938281   1.015   1.648   7.471  2.0249  1.2993  1.3378
   52MOL   H44038282   0.932   1.654   7.322  0.4936  1.0012 -1.5686
   52MOL   H44138283   0.941   1.899   7.316  1.8155  2.5897 -0.1057
   52MOL   H44238284   1.063   1.896   7.440 -0.7024 -0.6636  0.3307
   52MOL   H44338285   0.894   1.831   7.604 -0.7213 -1.6166  0.2792
   52MOL   H44438286   0.767   1.824   7.486 -1.0349  1.1084  1.6523
   52MOL   H44538287   0.919   2.036   7.593  0.5389 -1.0295  0.0399
   52MOL   C44638288   0.763   2.093   7.474  0.1176 -0.3890 -0.3302
   52MOL   O44738289   0.682   2.065   7.384 -0.2573 -0.1100  0.7311
   52MOL   C44838290   0.767   2.233   7.525  0.5537 -0.2646  0.2196
   52MOL   C44938291   0.641   2.282   7.593 -0.3549 -0.2737 -0.1100
   52MOL   C45038292   0.529   2.306   7.499  0.0884  0.0891 -0.1847
   52MOL   C45138293   0.422   2.385   7.574 -0.0591 -0.0512 -0.5959
   52MOL   C45238294   0.306   2.439   7.486 -0.3528  0.1792 -0.0841
   52MOL   C45338295   0.211   2.332   7.428  0.3205 -0.5889 -0.3931
   52MOL   C45438296   0.091   2.405   7.362  0.5154 -0.0496 -0.3253
   52MOL   C45538297   0.007   2.312   7.281 -0.2671  0.4300  0.6356
   52MOL   C45638298   7.575   2.383   7.239 -0.0951  0.3321  0.9171
   52MOL   C45738299   7.479   2.280   7.180  0.3668 -0.3237 -0.2149
   52MOL   C45838300   7.352   2.343   7.115 -0.4310  0.5833  0.6499
   52MOL   N45938301   7.280   2.233   7.050  0.0457  0.0905  0.3297
   52MOL   H46038302   0.773   2.304   7.442 -1.2978 -1.3868 -0.9334
   52MOL   H46138303   0.847   2.240   7.598  0.7775  0.7566 -0.1113
   52MOL   H46238304   0.617   2.210   7.672 -0.7395 -0.0074  0.0172
   52MOL   H46338305   0.670   2.370   7.651 -2.1404  0.6879 -0.6651
   52MOL   H46438306   0.474   2.214   7.478  0.9915  0.2381 -3.4182
   52MOL   H46538307   0.564   2.337   7.401  0.7870 -1.3929 -0.4274
   52MOL   H46638308   0.391   2.338   7.668 -1.5476  1.3445 -0.3719
   52MOL   H46738309   0.457   2.476   7.623 -1.3551 -0.5969  1.4276
   52MOL   H46838310   0.347   2.506   7.411  0.8926 -1.1446 -0.6117
   52MOL   H46938311   0.251   2.507   7.551  1.2548 -0.9368  2.5403
   52MOL   H47038312   0.161   2.268   7.501 -1.0768 -0.6716 -1.3912
   52MOL   H47138313   0.269   2.275   7.356  0.0889 -0.1262 -0.9535
   52MOL   H47238314   0.120   2.497   7.311 -0.9846  0.3453 -0.4725
   52MOL   H47338315   0.019   2.446   7.432  0.5087  1.8207 -1.4033
   52MOL   H47438316   7.676   2.227   7.345 -1.7328 -0.4740 -1.0946
   52MOL   H47538317   0.059   2.266   7.197 -1.3949 -0.0224  0.1699
   52MOL   H47638318   7.588   2.473   7.178 -1.3667  0.8764  1.4165
   52MOL   H47738319   7.529   2.403   7.336 -1.4124 -2.8982  1.0080
   52MOL   H47838320   7.445   2.209   7.256  0.6871  1.1771  1.3606
   52MOL   H47938321   7.530   2.214   7.110  0.6659  0.5631 -0.8366
   52MOL   H48038322   7.372   2.432   7.057 -1.4038  1.2436  1.2921
   52MOL   H48138323   7.290   2.371   7.201 -0.1321  0.0061  1.0553
   52MOL   H48238324   7.299   2.140   7.084  2.6496  0.4923  0.0746
   52MOL   C48338325   7.178   2.258   6.962  0.5082 -0.2658  0.5290
   52MOL   O48438326   7.152   2.373   6.922  0.0343  0.7617 -0.2768
   52MOL   C48538327   7.103   2.135   6.896  0.0889  0.3280  0.1472
   52MOL   C48638328   7.130   2.123   6.741  0.3661  0.0439 -0.0038
   52MOL   C48738329   7.274   2.089   6.694 -0.2111  0.0570 -0.5224
   52MOL   C48838330   7.313   1.940   6.729  0.7666 -0.2810  0.0904
   52MOL   C48938331   7.455   1.910   6.781  0.5078  0.2057  0.2360
   52MOL   C49038332   7.483   1.761   6.798 -0.5403 -0.3835  0.3035
   52MOL   C49138333   7.614   1.731   6.876  0.4438 -0.2496 -0.3235
   52MOL   C49238334   7.615   1.586   6.934 -0.0801  0.7033  0.5703
   52MOL   C49338335   0.056   1.528   6.971 -0.5827 -0.3285 -0.3961
   52MOL   C49438336   0.046   1.411   7.063  0.1618  0.0109  0.1085
   52MOL   C49538337   0.174   1.340   7.115 -0.2521 -0.2729 -0.5473
   52MOL   N49638338   0.266   1.428   7.182 -0.4901 -0.4081  0.8663
   52MOL   H49738339   6.998   2.160   6.906  0.3207  2.1882 -1.7374
   52MOL   H49838340   7.129   2.042   6.946  0.2017 -1.4300 -3.0622
   52MOL   H49938341   7.067   2.037   6.721 -0.3461  0.5246  0.1599
   52MOL   H50038342   7.101   2.219   6.699  0.0494 -0.4732 -0.9648
   52MOL   H50138343   7.350   2.153   6.737 -1.8873  1.1587  0.8577
   52MOL   H50238344   7.287   2.090   6.585  2.5903  0.1863 -0.2222
   52MOL   H50338345   7.247   1.898   6.804  1.1847  0.1219  0.6845
   52MOL   H50438346   7.308   1.881   6.637 -0.5295 -0.9844  0.6003
   52MOL   H50538347   7.461   1.961   6.878  0.6383 -1.6301  1.2164
   52MOL   H50638348   7.538   1.948   6.721  0.1592  1.2378  0.3940
   52MOL   H50738349   7.501   1.710   6.703 -2.2227 -1.2734  0.4348
   52MOL   H50838350   7.398   1.718   6.851 -1.1646 -0.3213 -0.6455
   52MOL   H50938351   7.616   1.799   6.961  0.3640  0.3401 -0.7879
   52MOL   H51038352   0.003   1.761   6.813  0.9005  1.6793  1.1500
   52MOL   H51138353   7.571   1.524   6.856  1.1453  0.3327  0.1674
   52MOL   H51238354   7.543   1.586   7.015 -0.5594  0.8077  0.1486
   52MOL   H51338355   0.123   1.596   7.023  0.4160 -2.6015  1.4030
   52MOL   H51438356   0.101   1.501   6.875 -1.6772  0.9528 -1.2933
   52MOL   H51538357   7.680   1.340   7.006  0.3826  2.1747 -2.9266
   52MOL   H51638358   7.680   1.435   7.150 -1.7833  2.2878 -1.7775
   52MOL   H51738359   0.224   1.294   7.030  1.1936 -0.9745  0.6537
   52MOL   H51838360   0.130   1.269   7.186 -0.7917 -0.0296 -0.6354
   52MOL   H51938361   0.229   1.513   7.221  2.2106  1.8122 -1.1897
   52MOL   C52038362   0.395   1.408   7.212 -0.3698  0.5972  0.6154
   52MOL   O52138363   0.454   1.304   7.182 -0.5351 -0.2554 -0.1479
   52MOL   C52238364   0.479   1.514   7.289 -0.0536  0.3817  0.0438
   52MOL   C52338365   0.628   1.480   7.309 -0.3620  0.1403 -0.5278
   52MOL   C52438366   0.663   1.398   7.439 -0.3090  0.3037 -0.1351
   52MOL   C52538367   0.806   1.344   7.440  0.2394 -0.3599  0.5901
   52MOL   C52638368   0.831   1.249   7.550 -0.3333  0.1677 -0.3777
   52MOL   C52738369   0.971   1.190   7.549 -0.2135 -0.4898 -0.0500
   52MOL   C52838370   1.063   1.281   7.624 -0.4011 -0.9585 -0.4607
   52MOL   C52938371   1.209   1.227   7.634 -0.0465 -0.3830 -0.2549
   52MOL   C53038372   1.310   1.320   0.018 -0.0250  0.1458 -0.2530
   52MOL   C53138373   1.450   1.262   0.043 -0.2027  0.1626 -0.2186
   52MOL   C53238374   1.538   1.243   7.613  0.1346 -0.2718  0.1110
   52MOL   N53338375   1.626   1.124   7.623  0.2031  0.0490  0.1688
   52MOL   H53438376   0.433   1.540   7.384  1.7659  0.6126  0.8819
   52MOL   H53538377   0.483   1.597   7.218 -0.6736  2.6037  2.5174
   52MOL   H53638378   0.667   1.426   7.223 -2.0449 -1.1156 -0.5377
   52MOL   H53738379   0.686   1.569   7.330  1.9796 -1.1139 -1.4524
   52MOL   H53838380   0.600   1.310   7.428  1.7157 -1.2567  0.3130
   52MOL   H53938381   0.646   1.445   7.536  2.7102 -0.5237  0.8772
   52MOL   H54038382   0.833   1.307   7.341 -1.1255 -1.2788  0.5536
   52MOL   H54138383   0.867   1.435   7.437 -0.1414 -0.1414 -2.3538
   52MOL   H54238384   0.757   1.169   7.546  1.0526 -1.0468 -2.1824
   52MOL   H54338385   0.807   1.300   7.643  0.5869  1.9098 -1.0841
   52MOL   H54438386   1.005   1.175   7.446  2.4688 -0.6335  0.8114
   52MOL   H54538387   0.960   1.098   7.606 -0.9743  0.0297  0.6350
   52MOL   H54638388   1.031   1.299   0.033  1.6812 -1.6485  0.3413
   52MOL   H54738389   1.057   1.383   7.587 -2.4625 -0.1942  1.8811
   52MOL   H54838390   1.252   1.231   7.533  1.8850  0.2490  0.5578
   52MOL   H54938391   1.210   1.123   7.665 -0.4121 -0.2100  0.3329
   52MOL   H55038392   1.259   1.361   0.106  0.8291  2.6290 -0.8735
   52MOL   H55138393   1.312   1.408   7.648  1.4145  0.0125 -0.4001
   52MOL   H55238394   1.450   1.168   0.098  0.3120 -0.4695 -1.2683
   52MOL   H55338395   1.510   1.331   0.103  0.7818 -0.8158 -0.0601
   52MOL   H55438396   1.598   1.331   7.592  0.5202 -0.9198 -1.5807
   52MOL   H55538397   1.471   1.224   7.529 -0.9868 -1.2980  1.2112
   52MOL   H55638398   1.590   1.044   7.574  1.1694 -1.2913  1.5747
   52MOL   C55738399   1.741   1.115   0.001  0.9570 -0.3559 -0.2690
   52MOL   O55838400   1.792   1.209   0.056  0.0407 -0.1679  0.1343
   52MOL   C55938401   1.801   0.978   0.014  0.0937 -0.3865 -0.0765
   52MOL   C56038402   1.756   0.902   0.142  0.5873  0.3278  0.4461
   52MOL   C56138403   1.615   0.847   0.142  0.2569  0.3287  0.6895
   52MOL   C56238404   1.605   0.729   0.245 -0.0264 -0.1146  0.2930
   52MOL   C56338405   1.463   0.658   0.231  0.4754  0.2125 -0.4642
   52MOL   C56438406   1.460   0.522   0.305 -0.0943 -0.3668  0.6218
   52MOL   C56538407   1.316   0.461   0.302  0.3030  0.4739  0.1233
   52MOL   C56638408   1.297   0.321   0.362 -0.4494 -0.0409 -0.2410
   52MOL   C56738409   1.157   0.268   0.387  0.1865 -0.2310  0.3691
   52MOL   C56838410   1.149   0.128   0.443 -0.2311 -0.2342 -0.3068
   52MOL   C56938411   1.013   0.070   0.480 -0.2753 -0.1863 -0.6484
   52MOL   N57038412   1.030   7.636   0.547  0.2828 -0.0786  0.4068
   52MOL   H57138413   1.907   1.002   0.023 -0.2070  0.8126  0.4338
   52MOL   H57238414   1.799   0.912   7.621 -0.3696 -0.7916  0.2396
   52MOL   H57338415   1.823   0.817   0.156  0.6236  0.2443 -0.2304
   52MOL   H57438416   1.772   0.970   0.225 -1.0240  3.2700 -1.5797
   52MOL   H57538417   1.598   0.818   0.039  0.6835 -0.0018  0.7108
   52MOL   H57638418   1.545   0.929   0.161 -0.0384  1.2613 -3.8427
   52MOL   H57738419   1.680   0.652   0.230  1.7080  1.6986 -0.5554
   52MOL   H57838420   1.610   0.763   0.349  1.6014  0.5562  0.0197
   52MOL   H57938421   1.447   0.632   0.126  0.3217  1.2083 -0.6977
   52MOL   H58038422   1.386   0.722   0.274  3.3818  0.7956  4.2453
   52MOL   H58138423   1.483   0.551   0.407  1.6139 -0.0416  0.1486
   52MOL   H58238424   1.539   0.457   0.267 -0.5235 -1.6944  1.9620
   52MOL   H58338425   1.280   0.459   0.200 -2.4544 -2.1928  1.0872
   52MOL   H58438426   1.248   0.529   0.354 -0.3666  0.2999 -0.5252
   52MOL   H58538427   1.344   0.319   0.460 -1.0195  0.3639  0.0441
   52MOL   H58638428   1.359   0.248   0.309  2.9150  3.4127 -1.2594
   52MOL   H58738429   1.106   0.266   0.291 -1.4610 -1.3529  1.2537
   52MOL   H58838430   1.106   0.335   0.456  0.3263 -0.4376  0.6701
   52MOL   H58938431   1.216   0.125   0.529 -2.0634  0.5370  1.1944
   52MOL   H59038432   1.200   0.069   0.367  1.8342  1.4763 -0.3023
   52MOL   H59138433   0.960   0.053   0.386  1.3963 -1.3014 -1.4074
   52MOL   H59238434   0.952   0.141   0.536  0.6581 -0.3149  0.5711
   52MOL   H59338435   1.124   7.631   0.583 -0.4194  0.2328  2.3427
   52MOL   C59438436   0.939   7.536   0.556 -0.3140  0.1363 -0.4819
   52MOL   O59538437   0.828   7.556   0.507 -0.0227 -0.7363  0.7886
   52MOL   C59638438   0.974   7.412   0.638  0.0441  0.0147 -0.5050
   52MOL   C59738439   0.935   7.290   0.551  0.3027  0.1547  0.1526
   52MOL   C59838440   0.992   7.166   0.620 -0.0850 -0.5400 -0.0402
   52MOL   C59938441   0.961   7.033   0.537  0.0557 -0.1072 -0.0128
   52MOL   C60038442   1.057   7.013   0.416 -0.0161  0.2666 -0.1128
   52MOL   C60138443   1.072   6.877   0.358 -0.5783  0.2964 -0.7165
   52MOL   C60238444   1.157   6.885   0.230 -0.3412 -0.5183  0.2657
   52MOL   C60338445   1.182   6.740   0.178 -0.4713  0.6741 -0.0281
   52MOL   C60438446   1.267   6.756   0.055 -0.0991  0.4359 -0.8029
   52MOL   C60538447   1.297   6.618   7.684 -0.8208  0.6236  0.0500
   52MOL   C60638448   1.365   6.630   7.541 -0.3256  0.5246  0.6292
   52MOL   N60738449   1.487   6.706   7.547 -0.0936  0.1999 -0.2276
   52MOL   H60838450   0.924   7.414   0.735 -1.5935  1.6900 -1.3456
   52MOL   H60938451   1.082   7.425   0.645  0.2599 -0.4099 -2.6222
   52MOL   H61038452   0.827   7.286   0.535 -0.1148  0.0755  2.6936
   52MOL   H61138453   0.986   7.306   0.456 -0.0896 -0.3209 -0.1378
   52MOL   H61238454   0.940   7.152   0.715  0.2068 -1.8292 -0.0603
   52MOL   H61338455   1.096   7.174   0.652 -0.8157  0.7195  2.0737
   52MOL   H61438456   0.983   6.950   0.604 -1.0538 -0.1578  0.3022
   52MOL   H61538457   0.858   7.022   0.503  0.3110 -0.9644 -0.5175
   52MOL   H61638458   1.156   7.053   0.439 -0.2353  2.0120 -2.0367
   52MOL   H61738459   1.029   7.090   0.343 -0.8625 -0.8427 -0.9802
   52MOL   H61838460   0.976   6.837   0.324 -0.8968  0.6815 -0.2781
   52MOL   H61938461   1.106   6.798   0.425  0.2860  0.8985 -0.4440
   52MOL   H62038462   1.245   6.935   0.269  0.1837 -0.9960 -0.2919
   52MOL   H62138463   1.100   6.938   0.154 -3.5165 -2.3294  1.2597
   52MOL   H62238464   1.081   6.703   0.158 -0.3190 -0.0620  0.5529
   52MOL   H62338465   1.229   6.678   0.254  0.9313  2.8004  0.8913
   52MOL   H62438466   1.363   6.806   0.069 -0.7775  1.1007  1.6446
   52MOL   H62538467   1.230   6.818   7.667  0.6411  1.3476 -0.4639
   52MOL   H62638468   1.210   6.555   7.671 -1.8161  1.4115  2.5957
   52MOL   H62738469   1.356   6.553   0.054  1.0021  0.6117 -1.5788
   52MOL   H62838470   1.298   6.680   7.471  1.7304  2.5938  0.0987
   52MOL   H62938471   1.392   6.531   7.504 -0.5166  0.3051  1.0681
   52MOL   H63038472   1.481   6.783   7.483  1.1316 -1.0937 -1.9663
   52MOL   C63138473   1.603   6.663   7.599  0.5026 -0.1508  0.2189
   52MOL   O63238474   1.605   6.589   0.004 -0.1900 -0.1624  0.3196
   52MOL   C63338475   1.727   6.716   7.532 -1.2005  0.0433 -0.0812
   52MOL   C63438476   1.859   6.634   7.550  0.4473 -0.0292 -0.3560
   52MOL   C63538477   1.864   6.489   7.493  0.4072  0.5225  0.5984
   52MOL   C63638478   1.900   6.490   7.339 -0.5687  0.2884 -0.7241
   52MOL   C63738479   1.935   6.353   7.279 -0.3485 -0.1680  0.2356
   52MOL   C63838480   1.986   6.359   7.134  0.3943  0.3316  1.0244
   52MOL   C63938481   1.878   6.350   7.021  0.0484  0.2372 -1.1155
   52MOL   C64038482   1.961   6.342   6.887  0.1939  0.2388  0.0730
   52MOL   C64138483   1.873   6.306   6.762  0.0040 -0.4340 -0.0234
   52MOL   C64238484   1.967   6.272   6.648  0.4076  0.8840 -0.7170
   52MOL   C64338485   1.923   6.179   6.529  0.1190  0.1853  0.3261
   52MOL   N64438486   2.028   6.165   6.432  0.3238 -0.0893 -0.6522
   52MOL   H64538487   1.736   6.810   7.585  0.4407  0.4624 -1.0525
   52MOL   H64638488   1.706   6.733   7.426 -0.5633  1.5725  0.0231
   52MOL   H64738489   1.943   6.689   7.508  0.0937  0.2789 -0.6663
   52MOL   H64838490   1.879   6.627   7.657  0.6749 -0.6367 -0.4344
   52MOL   H64938491   1.768   6.438   7.509 -0.8733  1.6988 -2.8049
   52MOL   H65038492   1.934   6.437   7.558 -1.2575 -0.9982  1.2450
   52MOL   H65138493   1.814   6.533   7.288  0.4386  1.8845 -1.1030
   52MOL   H65238494   1.971   6.570   7.319 -0.4337  0.4597  0.3985
   52MOL   H65338495   1.839   6.302   7.277 -1.3050  1.6011 -0.1728
   52MOL   H65438496   2.019   6.302   7.325 -0.1379 -1.3662 -1.4195
   52MOL   H65538497   2.047   6.270   7.120 -1.4705 -0.8373 -0.0464
   52MOL   H65638498   2.048   6.447   7.119 -1.2925  1.4861  0.6941
   52MOL   H65738499   1.802   6.428   7.023 -1.0427 -0.8213  2.4277
   52MOL   H65838500   1.815   6.262   7.038  0.1896  0.4010  0.2952
   52MOL   H65938501   2.036   6.264   6.895 -1.0585 -0.9927  0.0505
   52MOL   H66038502   2.006   6.441   6.875 -1.5976  0.8459 -2.1665
   52MOL   H66138503   1.818   6.393   6.726 -2.7461 -1.5013  1.4442
   52MOL   H66238504   1.800   6.229   6.788  1.1308 -0.5612  2.9741
   52MOL   H66338505   2.059   6.236   6.694 -1.0448 -1.3117  0.5566
   52MOL   H66438506   2.010   6.363   6.606  0.6701  0.6550 -0.9530
   52MOL   H66538507   1.830   6.218   6.487 -0.8831 -1.6702  0.7537
   52MOL   H66638508   1.904   6.076   6.560  1.5303 -0.0662  0.4140
   52MOL   H66738509   2.064   6.071   6.424 -1.0833 -0.5794 -1.5509
   52MOL   C66838510   2.082   6.259   6.348  0.9078 -0.9683  0.0452
   52MOL   O66938511   2.050   6.375   6.349 -0.0783  0.3276 -0.3064
   52MOL   C67038512   2.190   6.212   6.249 -0.2213 -0.5139  0.1603
   52MOL   C67138513   2.246   6.329   6.164 -0.0566  0.2951 -0.3443
   52MOL   C67238514   2.174   6.340   6.030 -0.3742  0.1107  0.0170
   52MOL   C67338515   2.219   6.448   5.933 -0.0867  0.0087 -0.5575
   52MOL   C67438516   2.148   6.461   5.797 -0.0563  0.1326  0.4132
   52MOL   C67538517   2.220   6.547   5.698 -0.6409  0.0182 -0.3279
   52MOL   C67638518   2.215   6.690   5.736 -0.4687 -0.0803 -0.5084
   52MOL   C67738519   2.243   6.795   5.629 -0.0900  0.5016  0.0131
   52MOL   C67838520   2.238   6.933   5.693 -0.0790 -0.0144  0.0001
   52MOL   C67938521   2.282   7.044   5.595  0.2196 -0.3548  0.6419
   52MOL   C68038522   2.342   7.163   5.661 -0.1922 -0.6285  0.1437
   52MOL   N68138523   2.325   7.281   5.577  0.2534 -0.0499 -0.1416
   52MOL   H68238524   2.147   6.134   6.187 -1.5728  0.5751 -0.3170
   52MOL   H68338525   2.268   6.169   6.311 -1.5528  0.2062  2.4188
   52MOL   H68438526   2.241   6.425   6.215  1.1829  0.8007 -1.1500
   52MOL   H68538527   2.354   6.318   6.151  0.1014  0.0157  1.1303
   52MOL   H68638528   2.069   6.337   6.058 -0.3285 -0.2997  0.1607
   52MOL   H68738529   2.181   6.243   5.981 -0.2228  0.4573 -0.6468
   52MOL   H68838530   2.195   6.530   6.001  1.0198  1.0799 -1.4420
   52MOL   H68938531   2.328   6.456   5.933 -0.0671 -0.2594 -0.5832
   52MOL   H69038532   2.046   6.494   5.819  0.1133  0.5905  0.5199
   52MOL   H69138533   2.135   6.366   5.745  1.4184 -0.8208  1.7725
   52MOL   H69238534   2.188   6.532   5.595 -0.5205 -1.1992 -0.1924
   52MOL   H69338535   2.325   6.519   5.693 -0.5477  0.1364  0.7679
   52MOL   H69438536   2.276   6.701   5.826 -0.3668  0.7528 -0.6689
   52MOL   H69538537   2.114   6.718   5.764  0.6360  2.5496  1.0289
   52MOL   H69638538   2.159   6.797   5.559  0.6835 -1.2547 -0.9966
   52MOL   H69738539   2.342   6.775   5.590  0.2141 -0.5044  1.2578
   52MOL   H69838540   2.317   6.923   5.768  0.5680  1.8686 -0.4000
   52MOL   H69938541   2.147   6.951   5.749 -0.3916 -0.2642 -0.4230
   52MOL   H70038542   2.203   7.076   5.526  1.0490 -1.8693 -1.0621
   52MOL   H70138543   2.359   7.000   5.532 -0.5593 -1.2988  0.3324
   52MOL   H70238544   2.437   7.134   5.704  1.1662 -1.1053 -3.0210
   52MOL   H70338545   2.287   7.181   5.753 -0.5176  0.5790 -0.2783
   52MOL   H70438546   2.239   7.335   5.577  0.6598  0.8052 -4.6289
   52MOL   C70538547   2.431   7.329   5.506  0.4737 -0.4721  0.6483
   52MOL   O70638548   2.545   7.282   5.502  0.1477  0.1598 -0.2719
   52MOL   C70738549   2.392   7.442   5.413  0.4141  0.9952  0.1159
   52MOL   C70838550   2.475   7.565   5.427  0.6553 -0.1464  0.2562
   52MOL   C70938551   2.443   7.669   5.540 -0.6376  0.1527 -0.5631
   52MOL   C71038552   2.540   0.093   5.563  0.2354  0.1552  0.1914
   52MOL   C71138553   2.570   0.171   5.435 -0.1329  0.0243 -0.1304
   52MOL   C71238554   2.442   0.205   5.365  0.2104  0.5611  0.0285
   52MOL   C71338555   2.462   0.306   5.259 -0.6962 -0.3621  0.5719
   52MOL   C71438556   2.348   0.323   5.159  0.7275 -0.5656 -0.5660
   52MOL   C71538557   2.369   0.418   5.042 -0.5039  0.0446 -0.0277
   52MOL   C71638558   2.240   0.445   4.970  0.4653  0.6817  0.6682
   52MOL   C71738559   2.260   0.532   4.846  0.0202 -0.0906  0.0132
   52MOL   N71838560   2.321   0.663   4.877 -0.0318  0.6679 -0.7231
   52MOL   H71938561   2.286   7.467   5.414 -0.4146 -2.1915 -1.7893
   52MOL   H72038562   2.397   7.404   5.311 -0.6966  0.4125  0.2794
   52MOL   H72138563   2.581   7.541   5.442  0.6537 -0.4253 -0.1557
   52MOL   H72238564   2.466   7.614   5.330 -0.8561 -0.4656  0.2288
   52MOL   H72338565   2.427   7.616   5.634 -1.2016  0.6048 -0.3967
   52MOL   H72438566   2.343   0.011   5.514 -0.1110  1.2393 -1.0987
   52MOL   H72538567   2.477   0.155   5.628  0.8876  2.6350 -1.4820
   52MOL   H72638568   2.628   0.062   5.620  0.9760  0.9370 -0.5113
   52MOL   H72738569   2.632   0.114   5.366  0.6628 -0.5735  1.0667
   52MOL   H72838570   2.626   0.261   5.458  0.5519 -0.1745 -0.9901
   52MOL   H72938571   2.365   0.239   5.433 -0.3542 -1.1523  0.2758
   52MOL   H73038572   2.392   0.118   5.321  0.1743 -0.2590  1.6665
   52MOL   H73138573   2.546   0.273   5.198 -0.0182  1.4658  0.4845
   52MOL   H73238574   2.503   0.401   5.293  0.3175  1.0556 -4.2805
   52MOL   H73338575   2.268   0.368   5.218  0.1361 -0.8692 -1.1245
   52MOL   H73438576   2.305   0.232   5.117 -0.7077 -0.2169  0.1235
   52MOL   H73538577   2.444   0.374   4.976  0.3400 -0.1827  1.0599
   52MOL   H73638578   2.394   0.516   5.082 -1.9965  0.0230  1.0079
   52MOL   H73738579   2.151   0.477   5.025 -2.6274 -2.5221 -2.1876
   52MOL   H73838580   2.217   0.347   4.929 -1.3660  1.1873  0.4444
   52MOL   H73938581   2.162   0.541   4.799  0.4557 -0.0775 -0.9115
   52MOL   H74038582   2.330   0.485   4.778 -1.9117 -1.7590 -0.8699
   52MOL   H74138583   2.395   0.644   4.943 -0.2506  1.8422 -0.1130
   52MOL   H74238584   2.366   0.708   4.799  1.0248  0.5660 -0.1702
   53MOL     C138585   1.548   7.363   0.995 -0.2749  0.1302 -0.2066
   53MOL     O238586   1.519   7.316   1.105  0.5455 -0.2506 -0.4144
   53MOL     C338587   1.535   7.513   0.969 -0.6061 -0.3402  0.6137
   53MOL     C438588   1.618   7.564   0.854 -0.1026  0.4720  0.3500
   53MOL     C538589   1.772   7.577   0.893  0.2914 -0.3506  0.4454
   53MOL     C638590   1.855   7.614   0.764  0.0743  0.7316 -0.2074
   53MOL     C738591   2.012   7.578   0.776 -0.0128  0.4238 -1.1265
   53MOL     C838592   2.105   7.678   0.847 -0.0698  0.4541  0.8990
   53MOL     C938593   2.249   7.614   0.858 -0.1965 -0.1016 -0.0489
   53MOL    C1038594   2.367   0.009   0.900  0.0987 -0.1836 -0.1888
   53MOL    C1138595   2.500   7.636   0.945 -0.0365 -0.4685 -0.4019
   53MOL    C1238596   2.576   7.570   0.830  0.2535  0.3744 -0.3999
   53MOL    C1338597   2.715   7.523   0.866 -0.8062 -0.0647  1.1492
   53MOL    N1438598   2.763   7.445   0.758 -0.2567 -0.0862  0.0221
   53MOL    H1538599   1.553   7.562   1.065  1.6482 -0.9166  0.5122
   53MOL    H1638600   1.434   7.544   0.942  0.2920  2.1704 -0.0349
   53MOL    H1738601   1.603   7.515   0.757 -0.3926 -0.0193  0.6435
   53MOL    H1838602   1.591   7.667   0.832 -1.3049  0.0779 -0.0382
   53MOL    H1938603   1.802   7.484   0.941  1.3733  0.1150  0.6923
   53MOL    H2038604   1.796   7.655   0.965  1.2863 -0.4960  0.2750
   53MOL    H2138605   1.820   7.555   0.680  0.3508 -0.0474  0.2176
   53MOL    H2238606   1.853   0.029   0.753 -1.1741  0.6978 -0.4031
   53MOL    H2338607   2.054   7.564   0.676 -2.5461  1.8029 -2.4723
   53MOL    H2438608   2.019   7.477   0.816 -2.4721  0.2847 -0.9465
   53MOL    H2538609   2.062   0.021   0.941  0.0649  0.5375  0.9283
   53MOL    H2638610   2.106   0.073   0.784  0.2719  0.9809  1.6325
   53MOL    H2738611   2.268   7.563   0.763  0.6736  2.5429 -1.3407
   53MOL    H2838612   2.231   7.535   0.931 -0.1942  1.3209  1.5226
   53MOL    H2938613   2.332   0.076   0.979 -0.4197 -0.4360 -0.2056
   53MOL    H3038614   2.385   0.069   0.811 -2.0888  1.2154  0.2543
   53MOL    H3138615   2.484   7.573   1.032 -1.2468  0.0723 -0.2227
   53MOL    H3238616   2.553   0.030   0.984 -2.2538  0.2927  0.9643
   53MOL    H3338617   2.584   7.649   0.755  0.5458  0.6384 -0.0887
   53MOL    H3438618   2.515   7.493   0.783  1.2066  0.0525 -1.1281
   53MOL    H3538619   2.712   7.455   0.951 -0.6061  0.5046  1.6117
   53MOL    H3638620   2.769   7.614   0.894 -3.0368  1.0397  1.9943
   53MOL    H3738621   2.722   7.353   0.758 -0.4222 -0.0217  1.0730
   53MOL    H3838622   1.581   7.298   0.914 -0.3736  0.3800 -0.4502
   53MOL    C3938623   2.848   7.476   0.661  0.8893  0.2168 -0.0773
   53MOL    O4038624   2.887   7.592   0.634  0.0341  0.5172 -0.4952
   53MOL    C4138625   2.900   7.351   0.589  0.5194 -0.0948 -0.5213
   53MOL    C4238626   3.017   7.368   0.492 -0.2051 -0.7086  0.3425
   53MOL    C4338627   3.046   7.240   0.405 -0.2402 -0.3606 -0.1733
   53MOL    C4438628   3.142   7.268   0.289 -0.2891 -1.3653  0.0951
   53MOL    C4538629   3.147   7.155   0.184 -0.0081 -0.1081  0.0074
   53MOL    C4638630   3.153   7.014   0.243 -0.4777  1.3244 -0.2365
   53MOL    C4738631   3.160   6.905   0.135 -0.3974 -0.0802 -0.7401
   53MOL    C4838632   3.180   6.764   0.197 -0.2372 -0.5495 -0.0008
   53MOL    C4938633   3.211   6.653   0.094 -0.6266 -0.2006 -0.8941
   53MOL    C5038634   3.100   6.596   0.006 -0.4819 -0.2655 -0.8614
   53MOL    C5138635   3.138   6.480   7.605 -0.5906  0.0204  0.3947
   53MOL    N5238636   3.233   6.531   7.505 -0.9041  0.6085 -0.2198
   53MOL    H5338637   2.813   7.311   0.535 -1.5281  2.7172  0.5830
   53MOL    H5438638   2.947   7.288   0.664 -2.0748 -2.1134 -0.5130
   53MOL    H5538639   2.988   7.440   0.415  0.3884 -1.1760 -0.3334
   53MOL    H5638640   3.113   7.396   0.536  0.0873 -0.6621 -0.3072
   53MOL    H5738641   2.953   7.204   0.360 -0.4096  1.5034 -1.3764
   53MOL    H5838642   3.091   7.162   0.466 -0.0411 -0.8703 -0.9716
   53MOL    H5938643   3.123   7.362   0.236 -2.5176 -1.5493  0.5301
   53MOL    H6038644   3.242   7.295   0.324 -0.2604  0.4251 -1.2641
   53MOL    H6138645   3.242   7.174   0.134 -0.9099  0.3466 -1.5584
   53MOL    H6238646   3.069   7.168   0.109 -0.3634  0.0607  0.4086
   53MOL    H6338647   3.063   6.992   0.301  0.4628  1.4059  1.2728
   53MOL    H6438648   3.242   6.998   0.305 -0.2283 -2.3675 -1.4266
   53MOL    H6538649   3.241   6.929   0.066  1.4763  1.0437  1.7779
   53MOL    H6638650   3.069   6.901   0.075 -0.2890 -1.2699 -0.8331
   53MOL    H6738651   3.097   6.727   0.256  0.3915 -1.2201  0.4796
   53MOL    H6838652   3.268   6.766   0.262 -0.9289  1.6948  0.9196
   53MOL    H6938653   3.245   6.569   0.155  0.1429 -0.1679 -1.2682
   53MOL    H7038654   3.294   6.685   0.030 -0.9167  0.0786 -1.1342
   53MOL    H7138655   3.060   6.673   7.634  2.5681  2.2342  0.0627
   53MOL    H7238656   3.022   6.565   0.075  0.3187  3.5508  1.9056
   53MOL    H7338657   3.049   6.440   7.557 -0.6741 -0.0477  0.6034
   53MOL    H7438658   3.190   6.396   7.651  2.5474  1.9756  0.5551
   53MOL    H7538659   3.323   6.559   7.543 -0.7024 -1.9114  1.3431
   53MOL    C7638660   3.206   6.559   7.377 -0.2632  0.1409 -0.2446
   53MOL    O7738661   3.100   6.527   7.325 -0.3365  0.5567 -0.1661
   53MOL    C7838662   3.317   6.623   7.292 -0.9759  0.6517 -0.4140
   53MOL    C7938663   3.330   6.766   7.324 -0.4559 -0.2622  0.2783
   53MOL    C8038664   3.217   6.867   7.299 -0.4916  0.0154  0.3867
   53MOL    C8138665   3.124   6.909   7.420  0.1048 -0.1679 -0.1435
   53MOL    C8238666   3.039   7.032   7.392 -0.5778 -0.2751  0.6233
   53MOL    C8338667   3.129   7.161   7.372 -0.2306 -0.1966 -0.3235
   53MOL    C8438668   3.190   7.212   7.505  0.3539  0.3010  0.1795
   53MOL    C8538669   3.241   7.357   7.509  0.3983  0.3361  0.4875
   53MOL    C8638670   3.364   7.389   7.426 -0.3065 -0.1370 -0.6399
   53MOL    C8738671   3.422   7.532   7.449  0.2493 -0.1408  0.1076
   53MOL    C8838672   3.513   7.574   7.343 -0.2586  0.3738  0.4296
   53MOL    N8938673   3.444   7.607   7.219 -0.0235 -0.5547 -0.2283
   53MOL    H9038674   3.299   6.595   7.188 -0.4928 -0.8566 -0.1017
   53MOL    H9138675   3.411   6.578   7.325 -1.6096 -0.3482  0.0557
   53MOL    H9238676   3.377   6.778   7.421  0.3388 -0.4171 -0.0830
   53MOL    H9338677   3.420   6.793   7.268  0.6496  0.4595  2.3538
   53MOL    H9438678   3.155   6.836   7.215  0.2904  0.7311 -0.4648
   53MOL    H9538679   3.267   6.953   7.254 -1.3649  0.6499  0.6290
   53MOL    H9638680   3.065   6.829   7.462 -0.9483  0.7269  0.0949
   53MOL    H9738681   3.191   6.930   7.504  1.0303 -0.3754 -0.8127
   53MOL    H9838682   2.966   7.049   7.471 -1.1216  0.8056 -0.0863
   53MOL    H9938683   2.979   7.016   7.302  1.0492  0.7120 -0.6740
   53MOL   H10038684   3.078   7.251   7.339 -1.0289 -0.3947  0.3400
   53MOL   H10138685   3.196   7.141   7.288 -0.9574 -0.5833 -0.8218
   53MOL   H10238686   3.273   7.145   7.530 -0.3966 -0.1964  1.3884
   53MOL   H10338687   3.117   7.197   7.585  0.1755  1.8456  0.3307
   53MOL   H10438688   3.259   7.367   7.616  1.3055 -1.5768  0.5313
   53MOL   H10538689   3.156   7.421   7.486  0.3000  0.3295  0.8322
   53MOL   H10638690   3.337   7.383   7.321  0.1388 -0.7914 -0.7155
   53MOL   H10738691   3.436   7.308   7.436  2.0808  1.7660 -1.7638
   53MOL   H10838692   3.470   7.534   7.547  1.4674  1.1260 -0.4959
   53MOL   H10938693   3.343   7.607   7.459 -1.1738 -1.1618 -2.9071
   53MOL   H11038694   3.583   7.492   7.328 -0.7378 -0.0649  0.5808
   53MOL   H11138695   3.574   7.660   7.372 -3.3072  2.9840 -0.5615
   53MOL   H11238696   3.433   7.541   7.143  1.4433  0.5618 -1.4423
   53MOL   C11338697   3.416   0.041   7.186 -0.8052 -0.4689  0.1971
   53MOL   O11438698   3.432   0.139   7.263 -0.6567 -0.0599 -0.2412
   53MOL   C11538699   3.351   0.077   7.046  0.6637 -0.3173 -0.7972
   53MOL   C11638700   3.249   0.194   7.052  0.5606  0.2146 -0.0065
   53MOL   C11738701   3.171   0.214   6.918  0.0931  0.1432 -0.3763
   53MOL   C11838702   3.085   0.347   6.922 -0.1718 -0.2876  0.5905
   53MOL   C11938703   3.042   0.400   6.785 -0.7995 -0.7665 -1.2814
   53MOL   C12038704   2.982   0.547   6.797  0.1775 -0.1504 -0.6218
   53MOL   C12138705   2.935   0.614   6.669 -0.7679 -0.3951  0.2174
   53MOL   C12238706   3.052   0.641   6.578 -0.3363  0.4065  0.4541
   53MOL   C12338707   3.017   0.750   6.476 -0.2397  0.0801  0.1877
   53MOL   C12438708   3.133   0.769   6.382 -0.3862 -0.0049 -0.8388
   53MOL   C12538709   3.103   0.865   6.269  0.4941  0.2008  0.2368
   53MOL   N12638710   3.233   0.884   6.202 -0.3617 -0.5401 -0.0466
   53MOL   H12738711   3.298   7.684   7.007 -1.8457  0.9550 -0.2749
   53MOL   H12838712   3.418   0.120   6.971 -1.1338  1.2973 -1.5392
   53MOL   H12938713   3.175   0.170   7.128 -0.6423  0.5133 -1.0668
   53MOL   H13038714   3.296   0.287   7.085  1.3148  0.2909 -1.2715
   53MOL   H13138715   3.113   0.123   6.905 -0.6515  0.8462 -2.0244
   53MOL   H13238716   3.245   0.218   6.838 -0.1446 -0.6051 -0.6374
   53MOL   H13338717   3.001   0.335   6.990  2.4112  0.3560  4.0151
   53MOL   H13438718   3.144   0.430   6.961 -0.6670 -0.3177  1.4156
   53MOL   H13538719   2.976   0.329   6.736 -3.5027 -0.2702  1.4909
   53MOL   H13638720   3.127   0.403   6.716 -0.3399  0.6365 -0.6883
   53MOL   H13738721   3.058   0.608   6.845  0.3316 -1.6301  1.0799
   53MOL   H13838722   2.897   0.549   6.866  0.9135 -1.0301  0.3233
   53MOL   H13938723   2.889   0.709   6.693 -1.7340 -0.3177 -1.7839
   53MOL   H14038724   2.851   0.569   6.615 -1.5311 -1.9995  2.6313
   53MOL   H14138725   3.080   0.550   6.525  0.9387  0.9551  0.1534
   53MOL   H14238726   3.141   0.668   6.634 -0.5494 -0.1801  1.0749
   53MOL   H14338727   2.992   0.843   6.528 -0.9154 -0.5825  1.0571
   53MOL   H14438728   2.920   0.721   6.436 -0.1137 -0.4160  0.2464
   53MOL   H14538729   3.166   0.673   6.342  0.5553  0.1704 -0.4815
   53MOL   H14638730   3.217   0.812   6.436  1.0378 -1.6580 -1.6824
   53MOL   H14738731   3.061   0.954   6.315 -0.2777 -0.8667  1.6227
   53MOL   H14838732   3.026   0.830   6.200  0.3038  1.0158  0.0258
   53MOL   H14938733   3.303   0.813   6.217  0.2420  0.4869  2.2217
   53MOL   C15038734   3.250   0.975   6.102 -0.3202  0.3575 -0.2210
   53MOL   O15138735   3.160   1.050   6.055 -0.4945  0.5862 -0.0628
   53MOL   C15238736   3.387   0.962   6.030 -0.2869  0.0819 -0.1351
   53MOL   C15338737   3.408   1.050   5.903 -0.0938 -0.0358 -0.0122
   53MOL   C15438738   3.421   1.199   5.935 -0.1556 -0.0881  0.2522
   53MOL   C15538739   3.446   1.270   5.803  0.6906  0.3412  0.1298
   53MOL   C15638740   3.460   1.422   5.827  0.4187 -0.4353 -0.6083
   53MOL   C15738741   3.470   1.489   5.687 -0.0426  0.3176  0.0320
   53MOL   C15838742   3.503   1.640   5.703 -0.5107 -0.2933  0.2379
   53MOL   C15938743   3.647   1.669   5.736  0.2593 -0.4307  0.0521
   53MOL   C16038744   3.666   1.817   5.778  0.0784  0.3514  0.2539
   53MOL   C16138745   3.593   1.855   5.905 -0.5205  1.4233  0.3088
   53MOL   C16238746   3.629   1.770   6.025 -0.2479  0.3800  0.7690
   53MOL   N16338747   3.588   1.834   6.148 -0.0674 -0.6029 -0.0535
   53MOL   H16438748   3.413   0.860   6.004 -0.8817  0.2955 -1.5874
   53MOL   H16538749   3.468   0.995   6.095  0.7547 -1.1596 -0.7953
   53MOL   H16638750   3.503   1.023   5.858  0.4842 -1.1420  1.7942
   53MOL   H16738751   3.329   1.035   5.829  0.0289 -1.4014  0.1238
   53MOL   H16838752   3.504   1.228   5.999 -0.0181  1.5034 -0.6225
   53MOL   H16938753   3.327   1.230   5.981 -0.9459  1.5098 -2.3084
   53MOL   H17038754   3.531   1.228   5.748  0.8311 -0.1496  0.7180
   53MOL   H17138755   3.379   1.248   5.720 -0.1552  1.2123  0.5717
   53MOL   H17238756   3.544   1.446   5.892  1.6678 -0.0700 -2.3084
   53MOL   H17338757   3.362   1.444   5.871  1.3170  0.4129  0.9824
   53MOL   H17438758   3.379   1.477   5.630  0.1971  0.5447 -0.3973
   53MOL   H17538759   3.545   1.442   5.623 -0.4723  1.0189 -0.9846
   53MOL   H17638760   3.438   1.679   5.781  2.1843  1.9860  1.4274
   53MOL   H17738761   3.478   1.685   5.607 -0.9617  0.2795  0.6174
   53MOL   H17838762   3.708   1.656   5.646 -0.3580 -1.0547 -0.2803
   53MOL   H17938763   3.688   1.602   5.813  0.6015  0.8895  1.0276
   53MOL   H18038764   3.635   1.880   5.694  1.8534  0.5470 -0.2841
   53MOL   H18138765   3.773   1.837   5.784  0.0278  0.9506 -0.5659
   53MOL   H18238766   3.486   1.851   5.890 -0.6546  1.1729  1.3046
   53MOL   H18338767   3.619   1.960   5.924 -1.1546  1.5149  0.6857
   53MOL   H18438768   3.733   1.739   6.030  0.8712  3.4029 -1.7694
   53MOL   H18538769   3.572   1.678   6.023 -0.3529  0.4563 -0.0563
   53MOL   H18638770   3.496   1.815   6.186 -0.8185 -0.0327 -1.5380
   53MOL   C18738771   3.668   1.917   6.216  0.2216 -0.1348  0.1522
   53MOL   O18838772   3.785   1.938   6.187  0.1962  1.3727  0.5293
   53MOL   C18938773   3.611   1.971   6.351  0.1733  0.2617  0.3331
   53MOL   C19038774   3.720   2.016   6.451 -0.4808  0.4465  0.0853
   53MOL   C19138775   3.677   2.109   6.567  0.6809 -0.2561  0.0422
   53MOL   C19238776   3.695   2.259   6.535 -0.3544 -0.1177  0.4691
   53MOL   C19338777   3.640   2.359   6.643  0.6320 -0.0910  0.2887
   53MOL   C19438778   3.671   2.505   6.620 -0.2574 -0.3667  0.0317
   53MOL   C19538779   3.632   2.593   6.744  0.2246 -0.4281  0.1424
   53MOL   C19638780   3.630   2.742   6.713  1.3225  0.0322  0.1236
   53MOL   C19738781   3.520   2.799   6.617 -0.2873 -0.3368  0.0657
   53MOL   C19838782   3.377   2.776   6.661 -0.3989 -0.0460 -0.2653
   53MOL   C19938783   3.277   2.887   6.618 -0.0542 -0.0829  0.4156
   53MOL   N20038784   3.145   2.850   6.675 -0.5456  0.3373 -0.2686
   53MOL   H20138785   3.555   1.889   6.395 -2.1217  1.4215 -0.3469
   53MOL   H20238786   3.537   2.050   6.338  0.0855  0.3023  1.0208
   53MOL   H20338787   3.765   1.930   6.501 -0.8105  0.7058  0.8449
   53MOL   H20438788   3.806   2.058   6.400 -0.5161 -0.7806 -1.0066
   53MOL   H20538789   3.744   2.089   6.650 -0.1782 -1.8645  0.3856
   53MOL   H20638790   3.576   2.086   6.601  1.1491 -2.2431  0.1527
   53MOL   H20738791   3.802   2.280   6.527 -0.5875  0.0417 -2.9127
   53MOL   H20838792   3.647   2.286   6.441 -0.5277  0.4455  0.7188
   53MOL   H20938793   3.675   2.320   6.739 -1.6814 -0.0068  1.2041
   53MOL   H21038794   3.533   2.355   6.663  0.8930  2.8499  2.5021
   53MOL   H21138795   3.641   2.545   6.523 -1.1744 -0.7919  0.1280
   53MOL   H21238796   3.779   2.516   6.614 -0.3307  0.5009  0.2699
   53MOL   H21338797   3.699   2.566   6.826  0.8904 -0.3442 -0.3658
   53MOL   H21438798   3.532   2.556   6.765 -0.3061  2.2563  2.7224
   53MOL   H21538799   3.731   2.776   6.694  1.5485 -0.0001  1.2180
   53MOL   H21638800   3.620   2.783   6.813  2.6602 -0.2272  0.3763
   53MOL   H21738801   3.544   2.767   6.516  1.3396  1.4550 -0.1244
   53MOL   H21838802   3.555   2.901   6.605  2.9576 -1.4052 -0.1123
   53MOL   H21938803   3.376   2.786   6.769 -0.4433  0.7821 -0.3388
   53MOL   H22038804   3.336   2.679   6.632  0.8370 -0.9014  0.8125
   53MOL   H22138805   3.274   2.903   6.510  2.1837  0.8104  0.4456
   53MOL   H22238806   3.307   2.983   6.662 -2.3586  0.7708  0.1714
   53MOL   H22338807   3.138   2.763   6.725  2.3015  0.7172  0.8565
   53MOL   C22438808   3.040   2.934   6.660 -0.1493 -0.1647  0.2699
   53MOL   O22538809   3.042   3.047   6.610 -0.5097  0.5665 -0.0004
   53MOL   C22638810   2.906   2.877   6.703  0.0785 -0.4429 -0.3947
   53MOL   C22738811   2.780   2.921   6.615 -0.3813  0.2394  0.1622
   53MOL   C22838812   2.732   3.068   6.647  0.5350  0.0768 -0.2201
   53MOL   C22938813   2.656   3.123   6.530 -0.0402  0.5947  0.2175
   53MOL   C23038814   2.745   3.174   6.422 -0.5721 -0.0917  1.1493
   53MOL   C23138815   2.672   3.208   6.294  0.2970 -0.1000 -0.1509
   53MOL   C23238816   2.570   3.324   6.308  0.3773 -0.2019  0.1619
   53MOL   C23338817   2.501   3.370   6.175 -0.4493  0.0820  0.5092
   53MOL   C23438818   2.391   3.276   6.127 -0.0112 -0.5024 -0.0946
   53MOL   C23538819   2.320   3.328   5.998 -0.5586  0.0578 -0.2940
   53MOL   C23638820   2.268   3.472   6.013 -0.4485  0.3361 -0.6253
   53MOL   N23738821   2.182   3.488   6.135  0.2659 -0.1006  0.1335
   53MOL   H23838822   2.880   2.906   6.805 -3.0452 -0.2357 -1.2166
   53MOL   H23938823   2.908   2.768   6.712  2.1226 -0.5139 -1.5675
   53MOL   H24038824   2.807   2.925   6.510 -0.1459  3.7331  0.3100
   53MOL   H24138825   2.690   2.861   6.628 -0.9566  1.0442 -0.0736
   53MOL   H24238826   2.809   3.143   6.667  1.7754 -1.5223  1.1968
   53MOL   H24338827   2.663   3.056   6.731  0.2588  1.9723 -0.1431
   53MOL   H24438828   2.580   3.052   6.497  0.2774 -0.5527  1.8393
   53MOL   H24538829   2.588   3.204   6.558  0.0493  1.1598 -1.1942
   53MOL   H24638830   2.825   3.102   6.402  1.2074  2.1656 -0.1012
   53MOL   H24738831   2.781   3.273   6.452 -0.7658  0.9614 -1.9383
   53MOL   H24838832   2.617   3.124   6.253 -0.1959  0.7974 -1.3465
   53MOL   H24938833   2.740   3.218   6.210 -1.7081  0.5316 -1.7383
   53MOL   H25038834   2.618   3.411   6.352  3.4517 -1.3887 -0.7193
   53MOL   H25138835   2.493   3.302   6.381  0.3490  0.4901  0.3420
   53MOL   H25238836   2.573   3.383   6.095 -1.6765  0.7326 -0.5119
   53MOL   H25338837   2.451   3.465   6.193 -0.2188  0.6170 -1.5214
   53MOL   H25438838   2.321   3.268   6.211 -1.6822 -1.1579 -1.5328
   53MOL   H25538839   2.435   3.179   6.108 -0.9924 -1.0932  0.6048
   53MOL   H25638840   2.234   3.268   5.969  1.4524 -2.1956 -1.8523
   53MOL   H25738841   2.378   3.321   5.906 -0.9037  0.3266 -0.5309
   53MOL   H25838842   2.204   3.491   5.927 -0.8975 -0.6005 -0.5084
   53MOL   H25938843   2.352   3.541   6.007 -0.0567 -0.3227 -3.0147
   53MOL   H26038844   2.162   3.412   6.198  0.8020  1.4855  2.2752
   53MOL   C26138845   2.143   3.605   6.176  0.4088  0.3590  0.2594
   53MOL   O26238846   2.174   3.711   6.120  0.2930  0.0221  0.3257
   53MOL   C26338847   2.050   3.602   6.295  0.1421  0.1888 -0.7593
   53MOL   C26438848   1.993   3.740   6.341  0.5541  0.1080 -0.8763
   53MOL   C26538849   1.926   3.707   6.476  0.6838  0.6373  0.2501
   53MOL   C26638850   1.831   3.818   6.524  0.1114 -0.4387  0.1422
   53MOL   C26738851   1.796   3.794   6.670  0.9433  0.1719 -0.1346
   53MOL   C26838852   1.715   3.904   6.739  0.1844  0.7151  0.0590
   53MOL   C26938853   1.709   3.878   6.892 -0.0490  0.4076 -0.6295
   53MOL   C27038854   1.824   3.940   6.971 -0.0483 -0.6120  0.5155
   53MOL   C27138855   1.792   3.978   7.115  0.3714 -0.9078  0.7604
   53MOL   C27238856   1.910   4.028   7.197 -0.0037  0.8580  0.9525
   53MOL   C27338857   1.869   4.076   7.345  0.1860  0.1312  0.6388
   53MOL   N27438858   1.820   3.970   7.428 -0.6551  0.9754 -0.2192
   53MOL   H27538859   2.096   3.550   6.379  0.8561 -0.2386 -1.4157
   53MOL   H27638860   1.972   3.533   6.263  0.8265 -0.5984 -0.7149
   53MOL   H27738861   2.076   3.805   6.370  0.1467 -1.0292  3.1684
   53MOL   H27838862   1.932   3.792   6.267 -0.1828  1.1616  0.4284
   53MOL   H27938863   2.003   3.682   6.549 -0.1211  1.0400  1.2368
   53MOL   H28038864   1.861   3.620   6.466  2.1202 -0.3199 -1.1557
   53MOL   H28138865   1.881   3.913   6.507 -0.9804  0.4150  1.6102
   53MOL   H28238866   1.736   3.814   6.471  1.5045 -0.2583 -2.4102
   53MOL   H28338867   1.891   3.797   6.724 -0.7200 -0.1528  2.8970
   53MOL   H28438868   1.764   3.691   6.681 -0.6891  0.5996 -0.7724
   53MOL   H28538869   1.618   3.905   6.691 -0.6166  0.1729  1.6503
   53MOL   H28638870   1.757   4.005   6.730  1.9360 -0.2195 -3.1244
   53MOL   H28738871   1.696   3.771   6.910 -2.3112  0.8394  0.4966
   53MOL   H28838872   1.621   3.936   6.921 -1.0180 -0.5825 -1.5310
   53MOL   H28938873   1.844   4.036   6.924 -1.8075 -0.3499  0.2490
   53MOL   H29038874   1.903   3.866   6.965  0.4240 -0.2181  1.6391
   53MOL   H29138875   1.756   3.888   7.164  1.3389 -1.5383  0.3372
   53MOL   H29238876   1.713   4.052   7.106  1.9678  0.5192 -2.3098
   53MOL   H29338877   1.961   4.111   7.148  0.1066  2.0916  3.0918
   53MOL   H29438878   1.984   3.947   7.195  0.1707  1.0553 -1.6112
   53MOL   H29538879   1.786   4.146   7.343 -0.2074 -0.3626 -1.9436
   53MOL   H29638880   1.949   4.137   7.387  2.2570 -1.9334 -0.1449
   53MOL   H29738881   1.727   3.943   7.399 -1.0766  1.7802  0.3996
   53MOL   C29838882   1.900   3.899   7.512 -0.2247 -0.0021  0.4819
   53MOL   O29938883   2.020   3.906   7.521  0.0828 -0.1602 -0.1062
   53MOL   C30038884   1.841   3.801   7.603 -0.1966 -0.0838  0.0561
   53MOL   C30138885   1.942   3.734   0.009  0.5892  0.4676 -0.2028
   53MOL   C30238886   1.889   3.628   0.108 -0.1858 -0.6684 -0.0543
   53MOL   C30338887   1.999   3.548   0.184  0.2497  0.0804  0.8459
   53MOL   C30438888   1.937   3.433   0.267 -0.7003 -0.1826  0.2230
   53MOL   C30538889   2.010   3.410   0.400  0.5023  0.4232  0.1046
   53MOL   C30638890   1.971   3.287   0.479 -0.2130 -0.2458  0.4281
   53MOL   C30738891   1.995   3.143   0.411 -0.8035  0.2014 -0.2375
   53MOL   C30838892   2.135   3.086   0.444  0.1688 -0.6259  0.4297
   53MOL   C30938893   2.160   2.948   0.375  0.0186 -0.2710  0.4396
   53MOL   C31038894   2.309   2.940   0.341 -0.4198  0.3885  1.0898
   53MOL   N31138895   2.336   3.019   0.226 -0.2218 -0.4953  0.3819
   53MOL   H31238896   1.783   3.730   7.544  0.5647 -0.3165 -0.4220
   53MOL   H31338897   1.763   3.851   7.660  1.3853  2.5461  0.0095
   53MOL   H31438898   2.018   3.686   7.641  0.4541  0.1182 -0.1004
   53MOL   H31538899   2.000   3.807   0.065  0.6967 -0.8456  1.4458
   53MOL   H31638900   1.835   3.553   0.051  0.2037 -0.2838 -0.9402
   53MOL   H31738901   1.817   3.673   0.177  1.2687  0.4829  0.7619
   53MOL   H31838902   2.060   3.498   0.109 -0.4054 -1.8380  1.5530
   53MOL   H31938903   2.054   3.617   0.247  1.6635 -1.1296  0.9568
   53MOL   H32038904   1.926   3.339   0.214 -0.5314  0.0093 -0.1586
   53MOL   H32138905   1.834   3.461   0.286 -0.9433  0.0918 -1.4370
   53MOL   H32238906   1.986   3.495   0.463  0.0281  0.0731  0.4023
   53MOL   H32338907   2.117   3.421   0.384  0.2971  2.0764 -0.2163
   53MOL   H32438908   1.863   3.287   0.491 -0.3248 -0.3115 -0.5672
   53MOL   H32538909   2.010   3.290   0.581 -0.8233  0.3286  0.6458
   53MOL   H32638910   1.972   3.142   0.305  2.2668 -1.8461 -0.9603
   53MOL   H32738911   1.926   3.075   0.462  0.4010 -0.5596  0.3976
   53MOL   H32838912   2.148   3.073   0.551 -2.0408 -1.0343  0.6810
   53MOL   H32938913   2.207   3.161   0.412 -0.2911 -0.9728 -1.5007
   53MOL   H33038914   2.102   2.944   0.283  1.0351 -1.7576 -0.1613
   53MOL   H33138915   2.134   2.867   0.443 -2.7442  0.8041  0.7028
   53MOL   H33238916   2.340   2.837   0.325  0.6625  0.8943 -0.1797
   53MOL   H33338917   2.378   2.978   0.417 -0.1130  0.3422  0.8382
   53MOL   H33438918   2.366   3.115   0.237  0.2643 -0.1835 -3.1472
   53MOL   C33538919   2.315   2.970   0.101  0.5017 -0.4767  0.0653
   53MOL   O33638920   2.281   2.856   0.081  0.0874  0.2602 -0.4898
   53MOL   C33738921   2.345   3.070   7.678  0.5738  0.2845  0.3416
   53MOL   C33838922   2.327   3.011   7.539 -0.1031 -0.5190  0.1493
   53MOL   C33938923   2.447   2.919   7.488 -0.2740  0.7681 -0.7854
   53MOL   C34038924   2.436   2.904   7.337 -0.1922 -0.2152 -0.0679
   53MOL   C34138925   2.534   2.791   7.284 -0.4578 -0.0857 -0.1395
   53MOL   C34238926   2.529   2.775   7.130 -0.3442 -0.8127 -0.3579
   53MOL   C34338927   2.646   2.679   7.093  0.3951  0.2654 -0.6814
   53MOL   C34438928   2.637   2.645   6.942  0.6431  0.1449 -0.0832
   53MOL   C34538929   2.758   2.578   6.875  0.4359  0.0564 -0.1960
   53MOL   C34638930   2.730   2.525   6.738 -0.0369  0.1944  0.5214
   53MOL   C34738931   2.859   2.473   6.680 -0.5376  0.6468  0.3220
   53MOL   N34838932   2.837   2.362   6.586  0.3122  0.7645  0.8346
   53MOL   H34938933   2.448   3.102   7.690  0.4357  0.9517 -0.2601
   53MOL   H35038934   2.285   3.160   7.683 -1.0260 -0.6594 -1.1334
   53MOL   H35138935   2.229   2.963   7.539 -0.2324 -0.3038 -1.8732
   53MOL   H35238936   2.308   3.093   7.469  0.6342 -0.7879 -0.3626
   53MOL   H35338937   2.435   2.821   7.535 -1.3578  0.9375 -0.7091
   53MOL   H35438938   2.537   2.964   7.529 -0.5308  0.5858 -0.0196
   53MOL   H35538939   2.335   2.879   7.305 -0.1339 -0.8681  0.2424
   53MOL   H35638940   2.461   2.994   7.281  1.8377 -0.1980  0.8077
   53MOL   H35738941   2.509   2.690   7.315 -0.6003  0.5890  2.0837
   53MOL   H35838942   2.638   2.809   7.311 -0.3565 -0.3834 -0.3349
   53MOL   H35938943   2.545   2.871   7.082  0.0375 -0.4633  0.4601
   53MOL   H36038944   2.438   2.734   7.086  0.1982 -1.3806 -0.9714
   53MOL   H36138945   2.640   2.579   7.136 -0.7330 -0.5596 -2.6989
   53MOL   H36238946   2.745   2.724   7.105  0.8573 -0.2933 -2.2953
   53MOL   H36338947   2.647   2.748   6.908 -1.4752  1.5642  3.3342
   53MOL   H36438948   2.542   2.604   6.907 -0.9185  2.9398  0.7290
   53MOL   H36538949   2.792   2.496   6.939  1.6135  1.6400  1.2773
   53MOL   H36638950   2.837   2.654   6.874 -2.0658  2.7288 -3.3536
   53MOL   H36738951   2.672   2.600   6.685  0.4194  1.2957  1.5494
   53MOL   H36838952   2.663   2.439   6.741  0.1918  0.0491  2.1589
   53MOL   H36938953   2.927   2.435   6.757 -2.1352  2.1884  2.5766
   53MOL   H37038954   2.913   2.548   6.623 -0.4173 -0.8361 -1.5588
   53MOL   H37138955   2.876   2.271   6.610  0.9636  0.7645 -0.2207
   53MOL   C37238956   2.761   2.369   6.475  0.4545  0.4218 -0.0383
   53MOL   O37338957   2.705   2.472   6.433 -0.1548  0.0031  0.1743
   53MOL   C37438958   2.748   2.237   6.396 -0.1792  1.1346 -0.5473
   53MOL   C37538959   2.883   2.210   6.320  0.5477 -0.0479  0.2343
   53MOL   C37638960   2.873   2.092   6.218  0.2458 -0.2878 -0.0043
   53MOL   C37738961   3.009   2.061   6.154  0.8492  0.4600  0.5978
   53MOL   C37838962   2.999   1.935   6.068 -0.6079  0.1224  0.3384
   53MOL   C37938963   3.137   1.895   6.014 -1.3679 -0.3493 -0.2958
   53MOL   C38038964   3.123   1.794   5.897  0.1794  0.5504 -0.1234
   53MOL   C38138965   3.097   1.649   5.949  0.2306 -0.2239 -0.4064
   53MOL   C38238966   3.077   1.547   5.836  0.0671 -0.1059  0.2395
   53MOL   C38338967   3.075   1.400   5.882  0.1859  0.4714 -0.2558
   53MOL   C38438968   3.058   1.303   5.756 -0.0244  0.9585 -0.0678
   53MOL   N38538969   3.042   1.166   5.809  0.0621 -0.3372  0.5348
   53MOL   H38638970   2.663   2.258   6.331 -0.5753  0.8766 -0.1128
   53MOL   H38738971   2.721   2.153   6.460  0.2678  1.9604  0.7388
   53MOL   H38838972   2.914   2.307   6.281  0.8622 -0.6072 -0.9293
   53MOL   H38938973   2.957   2.195   6.398  0.4063  1.5005  0.6805
   53MOL   H39038974   2.789   2.118   6.154  1.1504  0.1599 -1.0098
   53MOL   H39138975   2.844   2.004   6.276 -2.7431  1.6728  1.6030
   53MOL   H39238976   3.051   2.142   6.095  1.5380 -0.0892  0.3151
   53MOL   H39338977   3.080   2.048   6.236 -0.7346 -2.0044  1.6431
   53MOL   H39438978   2.933   1.947   5.983  1.1929  1.0219 -0.9703
   53MOL   H39538979   2.949   1.859   6.128 -0.5169 -1.2691 -1.3153
   53MOL   H39638980   3.196   1.856   6.097 -1.0197  1.4104  0.2956
   53MOL   H39738981   3.197   1.981   5.986 -2.5783  1.4596  2.3998
   53MOL   H39838982   3.215   1.788   5.839 -0.4649  1.3073 -1.2308
   53MOL   H39938983   3.048   1.827   5.825  0.2876  2.0546  0.4266
   53MOL   H40038984   3.009   1.638   6.012  0.0238 -0.3962 -0.7194
   53MOL   H40138985   3.174   1.612   6.016 -0.1015 -1.1132 -0.5121
   53MOL   H40238986   3.159   1.562   5.765 -0.7729 -0.7194 -0.8590
   53MOL   H40338987   2.985   1.571   5.783  0.9830  1.9458 -0.4663
   53MOL   H40438988   3.003   1.389   5.962  0.7272 -0.3383  0.1160
   53MOL   H40538989   3.166   1.378   5.937  0.7508  0.6568 -1.1088
   53MOL   H40638990   3.146   1.309   5.693  0.8039  0.6733  1.0516
   53MOL   H40738991   2.967   1.323   5.698  0.6752  1.0897 -1.1311
   53MOL   H40838992   3.120   1.134   5.863 -1.1062 -1.4371  1.6071
   53MOL   C40938993   2.928   1.098   5.824 -0.0828 -0.7854  0.3546
   53MOL   O41038994   2.820   1.137   5.782  0.3536 -0.4557  0.7587
   53MOL   C41138995   2.944   0.955   5.875  0.8333 -0.0624  1.4089
   53MOL   C41238996   2.830   0.856   5.821 -0.0947  0.2930 -0.2049
   53MOL   C41338997   2.846   0.828   5.671 -0.2422  0.1399 -0.1809
   53MOL   C41438998   2.755   0.709   5.614 -0.2321  0.0555 -0.0819
   53MOL   C41538999   2.824   0.651   5.487  0.4475 -0.4562 -0.4275
   53MOL   C41639000   2.775   0.519   5.434 -0.6156  0.3888 -0.4649
   53MOL   C41739001   2.809   0.482   5.286  0.1364 -1.3100  0.3552
   53MOL   C41839002   2.750   0.585   5.187  0.5759 -0.5371  0.0306
   53MOL   C41939003   2.769   0.537   5.040 -0.6693 -0.5020 -0.4021
   53MOL   C42039004   2.726   0.636   4.937 -0.4252 -0.0942  0.2722
   53MOL   C42139005   2.771   0.598   4.795  0.2741 -0.1150  0.6285
   53MOL   N42239006   2.679   0.505   4.726 -0.2706 -0.0848 -0.2446
   53MOL   H42339007   2.941   0.964   5.984  0.3773  1.0262  1.3171
   53MOL   H42439008   3.043   0.918   5.849  0.2345 -0.5489 -0.2137
   53MOL   H42539009   2.821   0.770   5.887 -1.2361  1.3585  1.0526
   53MOL   H42639010   2.739   0.914   5.836  0.0354  0.0253  1.7217
   53MOL   H42739011   2.945   0.784   5.654 -1.2280 -1.6137 -1.5091
   53MOL   H42839012   2.831   0.918   5.611 -2.2229 -1.0306 -1.4783
   53MOL   H42939013   2.741   0.633   5.691  0.5207 -0.8422 -0.8225
   53MOL   H43039014   2.653   0.746   5.607 -0.2288 -0.0246 -0.6030
   53MOL   H43139015   2.932   0.649   5.501  0.4159 -0.9627 -0.2243
   53MOL   H43239016   2.808   0.724   5.409  1.7898 -0.1371 -0.4041
   53MOL   H43339017   2.667   0.508   5.448 -0.4287  0.4310  1.1056
   53MOL   H43439018   2.824   0.443   5.496 -0.7168  0.8485  0.1815
   53MOL   H43539019   2.764   0.386   5.264 -1.6316  0.0250 -2.1325
   53MOL   H43639020   2.914   0.486   5.258 -0.0646  1.3815 -0.1152
   53MOL   H43739021   2.791   0.686   5.194 -0.2344 -0.1997 -0.0822
   53MOL   H43839022   2.644   0.592   5.212  0.0192 -1.7337 -1.8697
   53MOL   H43939023   2.702   0.452   5.035 -0.8652 -0.6322  3.3271
   53MOL   H44039024   2.878   0.529   5.034 -0.5573  0.9510 -0.5738
   53MOL   H44139025   2.745   0.737   4.972 -2.9547  0.6624 -0.4180
   53MOL   H44239026   2.617   0.638   4.945 -0.4937 -0.8888 -0.4487
   53MOL   H44339027   2.871   0.556   4.790  0.2187 -0.0651 -1.1714
   53MOL   H44439028   2.767   0.694   4.744 -0.9163 -0.9763 -0.9249
   53MOL   H44539029   2.580   0.526   4.728 -0.5264 -1.3114  1.9538
   53MOL   C44639030   2.704   0.391   4.655 -0.6057 -0.0737  0.3851
   53MOL   O44739031   2.820   0.353   4.636  0.7292 -0.6138  0.4347
   53MOL   C44839032   2.588   0.305   4.612 -0.3062  0.5165 -0.9002
   53MOL   C44939033   2.632   0.190   4.516  0.4470  0.2550 -0.3171
   53MOL   C45039034   2.676   0.238   4.381 -0.3864  0.5805  0.3834
   53MOL   C45139035   2.696   0.118   4.283  0.0803 -0.5582  0.1656
   53MOL   C45239036   2.738   0.170   4.143 -0.1826 -0.3307 -0.1420
   53MOL   C45339037   2.794   0.059   4.055  0.1065 -0.0382 -0.1932
   53MOL   C45439038   2.810   0.091   3.900  0.2184 -0.5529 -0.4573
   53MOL   C45539039   2.870   7.670   3.812 -0.0847  0.1084 -0.5646
   53MOL   C45639040   2.893   0.006   3.661  0.1698 -0.0384 -0.4198
   53MOL   C45739041   3.004   0.107   3.622 -0.4061  0.5444 -0.1618
   53MOL   C45839042   3.009   0.139   3.471  0.2864  0.3817 -0.4714
   53MOL   N45939043   3.118   0.219   3.426 -0.0041  0.8418  0.9150
   53MOL   H46039044   2.509   0.365   4.567 -1.5641 -1.0368 -0.8003
   53MOL   H46139045   2.547   0.249   4.696  1.7004 -0.4125 -0.5027
   53MOL   H46239046   2.702   0.117   4.555 -0.6574 -0.8466 -0.3778
   53MOL   H46339047   2.550   0.120   4.502  0.7696  0.0481 -1.1865
   53MOL   H46439048   2.771   0.290   4.390 -1.4271  2.1618  2.6402
   53MOL   H46539049   2.597   0.303   4.343  0.4156  1.7542  0.6822
   53MOL   H46639050   2.774   0.051   4.319 -0.9178 -2.3337 -0.9484
   53MOL   H46739051   2.601   0.067   4.275  0.7790 -1.8144 -0.2950
   53MOL   H46839052   2.814   0.248   4.152 -0.6313  0.1543 -0.4649
   53MOL   H46939053   2.656   0.224   4.094  0.4798 -2.0031 -3.2135
   53MOL   H47039054   2.733   7.663   4.071  1.3774 -1.1794 -1.6100
   53MOL   H47139055   2.883   0.017   4.101 -0.4414  0.2573  1.1755
   53MOL   H47239056   2.867   0.182   3.884 -0.7268  0.2421  0.6695
   53MOL   H47339057   2.708   0.104   3.862  0.6486 -2.8999 -2.5612
   53MOL   H47439058   2.802   7.585   3.819  1.6072 -1.4307 -2.1657
   53MOL   H47539059   2.965   7.642   3.856 -0.9665 -0.3097  1.1288
   53MOL   H47639060   2.795   0.043   3.631 -0.1383 -0.4512  0.0863
   53MOL   H47739061   2.901   7.604   3.610 -0.9306 -0.1934 -0.3042
   53MOL   H47839062   3.106   0.079   3.645 -0.5648  1.8759  2.4048
   53MOL   H47939063   2.990   0.202   3.675 -1.3582  1.0043 -1.2087
   53MOL   H48039064   2.913   0.186   3.449 -2.1035 -3.0212  1.9832
   53MOL   H48139065   3.012   0.050   3.408  0.8516 -0.6913  1.0182
   53MOL   H48239066   3.202   0.170   3.396  0.8996  3.3578 -0.8610
   53MOL   C48339067   3.116   0.350   3.418  0.2968  0.3039  0.6151
   53MOL   O48439068   3.022   0.421   3.449  0.5189  0.0913  0.2770
   53MOL   C48539069   3.239   0.398   3.355  0.2848  0.5474  0.0954
   53MOL   C48639070   3.313   0.516   3.421  0.2914 -0.2528 -0.1312
   53MOL   C48739071   3.370   0.498   3.559 -0.2435  0.8409 -0.5593
   53MOL   C48839072   3.454   0.622   3.607 -0.5294 -0.7991 -0.1999
   53MOL   C48939073   3.495   0.612   3.757  0.2394 -0.8801 -0.4185
   53MOL   C49039074   3.585   0.714   3.812 -0.2742  0.4082 -0.1814
   53MOL   C49139075   3.613   0.706   3.968  1.4910  0.1964  0.7671
   53MOL   C49239076   3.497   0.763   4.039  0.0091 -0.6442 -0.3024
   53MOL   C49339077   3.487   0.725   4.189  0.7145 -0.2975 -0.2680
   53MOL   C49439078   3.353   0.754   4.260 -0.7642  0.2368  0.2354
   53MOL   C49539079   3.327   0.902   4.282 -0.0491  0.5511  0.2827
   53MOL   N49639080   3.197   0.903   4.350  0.3281 -0.3215 -0.0567
   53MOL   H49739081   3.206   0.420   3.254 -1.7445 -0.2086  0.5606
   53MOL   H49839082   3.316   0.323   3.336 -0.4734 -0.5658  1.3146
   53MOL   H49939083   3.399   0.547   3.361  0.0481  0.9271  0.1160
   53MOL   H50039084   3.241   0.598   3.418  2.4129  1.6867 -0.1518
   53MOL   H50139085   3.436   0.412   3.550  1.5756  1.7321  3.2398
   53MOL   H50239086   3.299   0.476   3.639 -0.4944  0.6591 -0.8289
   53MOL   H50339087   3.532   0.646   3.535 -0.5170  0.9028  0.3372
   53MOL   H50439088   3.380   0.701   3.594 -1.8428 -2.2736 -1.7563
   53MOL   H50539089   3.549   0.519   3.773  0.8183 -0.3820  0.5687
   53MOL   H50639090   3.405   0.607   3.818  0.2415  3.2617  0.0906
   53MOL   H50739091   3.545   0.813   3.789 -0.0313  0.5823  0.1560
   53MOL   H50839092   3.677   0.723   3.754  0.5672 -0.6297  0.9606
   53MOL   H50939093   3.706   0.752   4.001  0.5364  0.3232  3.3764
   53MOL   H51039094   3.635   0.601   3.990  1.3473  0.1806  0.8311
   53MOL   H51139095   3.409   0.713   3.999  0.4430 -2.3773  0.8929
   53MOL   H51239096   3.485   0.870   4.019 -0.1089 -0.7044 -0.5664
   53MOL   H51339097   3.566   0.774   4.245 -1.1826  2.3354  0.1869
   53MOL   H51439098   3.508   0.618   4.186  1.6348 -0.0984 -2.2885
   53MOL   H51539099   3.348   0.705   4.357  1.1331  1.0004  0.7404
   53MOL   H51639100   3.278   0.724   4.186 -1.5860  0.4996  0.9541
   53MOL   H51739101   3.319   0.959   4.189 -1.0071  0.6384  0.4234
   53MOL   H51839102   3.406   0.941   4.346 -0.5658 -0.7725  1.7478
   53MOL   H51939103   3.136   0.824   4.334 -0.0330 -0.5305  2.2764
   53MOL   C52039104   3.151   1.005   4.425  0.1964  0.3412 -0.2500
   53MOL   O52139105   3.210   1.109   4.431  0.4020 -0.5226  0.3202
   53MOL   C52239106   3.012   0.999   4.477 -0.7587  0.6071 -0.2730
   53MOL   C52339107   3.003   1.001   4.633  0.4874  0.2237  0.2266
   53MOL   C52439108   3.034   0.869   4.695  0.1750  0.3650  0.2591
   53MOL   C52539109   3.018   0.873   4.842  0.1340 -0.5979 -0.3979
   53MOL   C52639110   3.086   0.760   4.915 -0.5596  0.8373  0.0685
   53MOL   C52739111   3.092   0.778   5.064  0.0200 -0.2680 -0.1202
   53MOL   C52839112   3.188   0.683   5.148  0.2132 -0.3587 -0.0190
   53MOL   C52939113   3.191   0.726   5.298  0.8309 -0.1279  0.0839
   53MOL   C53039114   3.217   0.876   5.325  0.5462 -0.6681  0.0611
   53MOL   C53139115   3.264   0.896   5.467  0.3235  0.5943  0.5550
   53MOL   C53239116   3.256   1.042   5.517 -0.3003  0.2268  0.3602
   53MOL   N53339117   3.355   1.135   5.456  0.5087  0.1209 -0.3904
   53MOL   H53439118   2.944   0.926   4.432 -1.1139  0.1561  0.9837
   53MOL   H53539119   2.976   1.091   4.432  3.7214  1.7705 -1.8070
   53MOL   H53639120   3.081   1.071   4.665  2.2041 -1.0280 -1.1315
   53MOL   H53739121   2.903   1.036   4.659  0.4000  2.5956 -2.9331
   53MOL   H53839122   3.140   0.850   4.677  0.4643  2.8833 -0.9575
   53MOL   H53939123   2.972   0.791   4.652  1.0481  0.4339 -1.1459
   53MOL   H54039124   3.072   0.960   4.880  0.2427  0.0178 -1.9608
   53MOL   H54139125   2.911   0.875   4.859 -0.1155 -2.5976 -1.5617
   53MOL   H54239126   3.190   0.746   4.884 -1.3744  0.2249 -2.5805
   53MOL   H54339127   3.042   0.663   4.894 -1.0978  1.4765 -1.8522
   53MOL   H54439128   3.001   0.765   5.123 -0.1392 -1.2972 -0.5677
   53MOL   H54539129   3.128   0.879   5.085 -0.2203 -0.0311 -0.8136
   53MOL   H54639130   3.290   0.695   5.113  0.1402 -0.9824 -0.4342
   53MOL   H54739131   3.165   0.577   5.151  0.2747 -0.3633  0.3240
   53MOL   H54839132   3.280   0.676   5.338 -0.8553 -3.0950  0.2229
   53MOL   H54939133   3.097   0.705   5.348  1.9386  0.5679  2.5143
   53MOL   H55039134   3.140   0.949   5.302  1.2868 -0.5685 -2.1857
   53MOL   H55139135   3.301   0.911   5.266  0.4795 -1.4314 -0.4960
   53MOL   H55239136   3.367   0.866   5.486  1.5932  1.8723 -3.7379
   53MOL   H55339137   3.210   0.839   5.542  1.9934  1.0392  2.1475
   53MOL   H55439138   3.277   1.037   5.623 -2.1440 -1.0419  0.6931
   53MOL   H55539139   3.155   1.083   5.519  0.3972  1.9079  1.8268
   53MOL   H55639140   3.318   1.193   5.383 -0.2659 -1.4504 -1.2679
   53MOL   C55739141   3.485   1.122   5.479 -0.2207 -0.8417  0.2296
   53MOL   O55839142   3.534   1.043   5.566  0.2271 -0.1290  0.0495
   53MOL   C55939143   3.585   1.213   5.397  0.2325 -0.3667 -0.4591
   53MOL   C56039144   3.688   1.131   5.319  0.3303 -0.1575 -0.2736
   53MOL   C56139145   3.649   1.081   5.180 -0.1754 -0.0496  0.0334
   53MOL   C56239146   3.761   0.997   5.107  0.3976  0.1841 -0.5299
   53MOL   C56339147   3.767   0.848   5.157  0.0877  0.5680 -0.0752
   53MOL   C56439148   3.643   0.762   5.113 -0.5517 -0.6064  0.1143
   53MOL   C56539149   3.688   0.622   5.076 -0.5709  0.3870 -0.4206
   53MOL   C56639150   3.581   0.513   5.053 -0.4187  0.0948 -0.4568
   53MOL   C56739151   3.626   0.367   5.036 -0.4489  0.0489 -0.2026
   53MOL   C56839152   3.512   0.266   5.012 -0.1295 -0.1003  0.3085
   53MOL   C56939153   3.553   0.122   4.990 -0.6602  0.2034 -0.3655
   53MOL   N57039154   3.436   0.045   4.942 -0.4519  0.4098 -0.4140
   53MOL   H57139155   3.650   1.259   5.471  0.1613  2.6164 -2.1274
   53MOL   H57239156   3.543   1.296   5.340  1.9215 -0.4267 -1.8452
   53MOL   H57339157   3.772   1.199   5.306  1.8937 -1.6839  1.5026
   53MOL   H57439158   3.722   1.047   5.380 -0.4256  0.1945  0.6433
   53MOL   H57539159   3.627   1.155   5.103 -1.7469 -1.5912 -1.0477
   53MOL   H57639160   3.559   1.020   5.191  0.6938 -1.4038 -0.2830
   53MOL   H57739161   3.736   0.995   5.001  0.4781 -0.6708 -0.5355
   53MOL   H57839162   3.851   1.054   5.132 -1.2473  2.0003  1.4541
   53MOL   H57939163   3.783   0.839   5.264  0.0417 -2.2370 -0.2536
   53MOL   H58039164   3.857   0.806   5.110  0.4388  0.2149  0.8916
   53MOL   H58139165   3.608   0.804   5.019  0.9755 -0.1934 -0.2841
   53MOL   H58239166   3.567   0.762   5.191 -1.2929 -0.0126 -0.5967
   53MOL   H58339167   3.762   0.593   5.151  2.2472  2.3183 -2.3289
   53MOL   H58439168   3.756   0.604   4.992  0.8789 -0.6010  0.9361
   53MOL   H58539169   3.525   0.539   4.963 -0.2286 -0.6528 -0.8006
   53MOL   H58639170   3.508   0.510   5.135 -1.5227 -1.0875 -1.4545
   53MOL   H58739171   3.692   0.349   5.121  1.2117  2.2568 -0.9688
   53MOL   H58839172   3.691   0.346   4.951  0.5764  1.0263  0.3302
   53MOL   H58939173   3.441   0.294   4.934 -0.1947 -1.2030 -0.0387
   53MOL   H59039174   3.460   0.274   5.107 -1.9615 -1.0126 -0.5971
   53MOL   H59139175   3.599   0.093   5.084  0.2235 -0.1765 -0.9111
   53MOL   H59239176   3.637   0.104   4.923 -1.4701  0.2129 -1.4006
   53MOL   H59339177   3.358   0.093   4.899  0.0948 -1.2963 -3.4413
   53MOL   C59439178   3.429   7.608   4.933 -0.3061 -0.3353  0.5000
   53MOL   O59539179   3.510   7.526   4.967 -0.0116  0.1385  0.4899
   53MOL   C59639180   3.297   7.566   4.861 -0.2093 -1.0893 -0.8192
   53MOL   C59739181   3.274   7.419   4.834  0.5244  0.7156 -0.1272
   53MOL   C59839182   3.229   7.330   4.953  0.5255 -0.0765 -0.3266
   53MOL   C59939183   3.075   7.339   4.959  0.6090 -0.3111  0.8285
   53MOL   C60039184   3.013   7.266   5.076  0.1270 -0.3946 -0.1775
   53MOL   C60139185   2.861   7.295   5.098  0.5914 -0.0495 -0.2332
   53MOL   C60239186   2.785   7.189   5.173  0.1518 -0.3147 -0.2751
   53MOL   C60339187   2.829   7.154   5.315 -0.2158  0.2115 -0.2075
   53MOL   C60439188   2.733   7.060   5.378 -0.4641 -0.5979  0.4098
   53MOL   C60539189   2.763   7.017   5.520 -0.1590  0.3997 -0.8339
   53MOL   C60639190   2.681   6.900   5.563 -0.2689  0.2500  0.0280
   53MOL   N60739191   2.691   6.883   5.710  0.4340  0.2259 -0.5576
   53MOL   H60839192   3.325   7.608   4.765  0.5771 -0.4138 -0.3028
   53MOL   H60939193   3.207   7.616   4.897  1.0104 -0.6239  1.7390
   53MOL   H61039194   3.192   7.418   4.761  0.4600 -0.0297 -0.0544
   53MOL   H61139195   3.360   7.368   4.791  0.8466  0.3753  0.9053
   53MOL   H61239196   3.271   7.374   5.044 -0.6562  1.3032 -0.4260
   53MOL   H61339197   3.248   7.223   4.951  0.1317 -0.1313 -2.9116
   53MOL   H61439198   3.051   7.446   4.961 -2.4654 -0.9062 -0.7703
   53MOL   H61539199   3.026   7.299   4.871  1.3045 -0.4831  0.5211
   53MOL   H61639200   3.065   7.284   5.170 -1.4687  0.9250  0.4909
   53MOL   H61739201   3.031   7.159   5.067  2.0800 -0.1728  0.8106
   53MOL   H61839202   2.816   7.323   5.002 -1.6569 -0.8236  0.5705
   53MOL   H61939203   2.851   7.394   5.143 -0.8805  0.2081 -1.0857
   53MOL   H62039204   2.811   7.103   5.112 -0.2098 -0.3324 -0.4056
   53MOL   H62139205   2.678   7.207   5.158 -0.7410 -3.7902  1.4184
   53MOL   H62239206   2.835   7.252   5.363 -0.8792 -0.2128  0.7590
   53MOL   H62339207   2.930   7.113   5.314 -0.6849 -0.9324 -0.8738
   53MOL   H62439208   2.726   6.973   5.312  1.6425 -0.8250  0.4458
   53MOL   H62539209   2.632   7.103   5.380 -0.5830 -0.7855 -0.7614
   53MOL   H62639210   2.754   7.099   5.590  1.8392  0.7914 -0.9975
   53MOL   H62739211   2.866   6.986   5.535 -0.1222  0.6569 -0.5527
   53MOL   H62839212   2.717   6.816   5.503  0.7037 -0.3409  1.4300
   53MOL   H62939213   2.576   6.900   5.533 -0.0907 -2.9685 -0.7453
   53MOL   H63039214   2.698   6.967   5.766  2.9009 -0.1150 -0.3220
   53MOL   C63139215   2.681   6.765   5.775  0.2470 -0.2805 -0.0271
   53MOL   O63239216   2.644   6.668   5.721  0.6327 -0.3430  0.3887
   53MOL   C63339217   2.712   6.760   5.920  0.5064 -0.3722 -0.3516
   53MOL   C63439218   2.592   6.710   6.004  0.2707  0.4192 -0.3864
   53MOL   C63539219   2.618   6.708   6.150  0.1413  0.2520  0.3048
   53MOL   C63639220   2.488   6.668   6.220 -0.0498 -0.7376 -0.0626
   53MOL   C63739221   2.491   6.646   6.364 -0.4256 -0.2290  0.0676
   53MOL   C63839222   2.355   6.635   6.431 -0.0632 -0.1789  0.3436
   53MOL   C63939223   2.302   6.768   6.479  0.6258  0.0549  0.1854
   53MOL   C64039224   2.175   6.732   6.558 -0.5223  0.3285 -0.8205
   53MOL   C64139225   2.097   6.856   6.620  0.3865  0.2770  0.2154
   53MOL   C64239226   1.968   6.802   6.694 -0.1562 -0.5051 -0.3684
   53MOL   C64339227   1.993   6.733   6.829  0.1683  0.6505 -0.1023
   53MOL   N64439228   2.054   6.823   6.927  0.1459 -0.3569 -0.1778
   53MOL   H64539229   2.741   6.856   5.963 -0.0036 -0.5533  0.4142
   53MOL   H64639230   2.799   6.695   5.926  1.2295  0.5718 -0.4617
   53MOL   H64739231   2.512   6.782   5.987  2.0962  3.0919  1.8024
   53MOL   H64839232   2.562   6.609   5.975 -1.9720  1.4249 -1.6655
   53MOL   H64939233   2.662   6.802   6.186  3.2514 -0.4203 -1.5631
   53MOL   H65039234   2.697   6.641   6.184 -1.1388 -1.5028 -0.1471
   53MOL   H65139235   2.414   6.744   6.194  2.3716  2.1021  1.0449
   53MOL   H65239236   2.460   6.570   6.183 -1.5586  0.1271 -1.2925
   53MOL   H65339237   2.549   6.721   6.419 -0.1124 -0.1247 -0.3972
   53MOL   H65439238   2.541   6.549   6.363 -0.6019 -0.3461  1.7128
   53MOL   H65539239   2.362   6.567   6.516 -3.4149 -0.1326  0.6924
   53MOL   H65639240   2.290   6.591   6.355  2.6625 -0.5440 -1.8687
   53MOL   H65739241   2.285   6.834   6.394  0.5806 -0.1163  0.0596
   53MOL   H65839242   2.376   6.805   6.550 -0.2958  2.0854  0.1203
   53MOL   H65939243   2.198   6.671   6.645  0.1828  3.8114  1.5350
   53MOL   H66039244   2.102   6.681   6.495 -1.5374 -0.2295  0.7636
   53MOL   H66139245   2.057   6.925   6.545  0.9115  1.3306  0.8873
   53MOL   H66239246   2.158   6.912   6.692 -0.8955  0.5324  1.1369
   53MOL   H66339247   1.898   6.742   6.635 -0.0623  1.3007 -2.3564
   53MOL   H66439248   1.917   6.898   6.701  0.1072 -0.1545 -2.9053
   53MOL   H66539249   2.056   6.645   6.819 -0.9398 -0.3040  1.1128
   53MOL   H66639250   1.894   6.701   6.864  0.7894 -0.8628  0.2853
   53MOL   H66739251   2.141   6.861   6.893  0.4712 -2.2455 -1.5552
   53MOL   C66839252   2.021   6.842   7.058 -0.4331 -0.3480  0.1772
   53MOL   O66939253   1.918   6.790   7.099 -0.0530 -0.2814 -0.2472
   53MOL   C67039254   2.133   6.903   7.152  0.3273  0.7707  0.4858
   53MOL   C67139255   2.143   7.060   7.140  1.3298  0.0763 -0.0147
   53MOL   C67239256   2.220   7.108   7.274  0.0767  0.4235  0.0304
   53MOL   C67339257   2.239   7.266   7.278 -0.2539  0.1348 -0.1639
   53MOL   C67439258   2.264   7.322   7.425  0.2361 -0.2826  0.6717
   53MOL   C67539259   2.299   7.471   7.421 -0.3567 -0.2418  0.5672
   53MOL   C67639260   2.310   7.528   7.557  0.0895  0.2854  0.4720
   53MOL   C67739261   2.351   7.673   7.565  0.4275 -0.3552 -0.0608
   53MOL   C67839262   2.399   0.020   0.011  0.2426 -0.1389  0.1832
   53MOL   C67939263   2.445   0.161   0.022  0.8182 -0.1476  0.6799
   53MOL   C68039264   2.575   0.189   7.649 -0.6583  0.2617 -0.3537
   53MOL   N68139265   2.622   0.329   7.675 -0.0478  0.3358  0.6866
   53MOL   H68239266   2.230   6.865   7.121 -0.9878  0.2640 -3.3164
   53MOL   H68339267   2.120   6.870   7.255  0.7130  0.2892  0.3814
   53MOL   H68439268   2.178   7.081   7.039  1.2567 -1.4882 -0.3913
   53MOL   H68539269   2.042   7.099   7.143  1.4527  0.3629  0.4773
   53MOL   H68639270   2.320   7.064   7.276 -0.0141  0.2631  1.3757
   53MOL   H68739271   2.154   7.083   7.357 -1.1987 -0.0739 -1.1208
   53MOL   H68839272   2.315   7.305   7.210  1.4443 -2.4235  0.1808
   53MOL   H68939273   2.149   7.316   7.243 -1.8702 -1.4075  1.6746
   53MOL   H69039274   2.339   7.256   7.468  1.8450 -0.2492 -1.9693
   53MOL   H69139275   2.173   7.303   7.482  0.0740 -0.4446  0.3650
   53MOL   H69239276   2.228   7.536   7.371 -2.0242  0.0037  3.1869
   53MOL   H69339277   2.398   7.486   7.378 -1.1945 -1.1056 -1.7506
   53MOL   H69439278   2.372   7.464   7.620  2.7798  0.1656 -2.2228
   53MOL   H69539279   2.214   7.529   7.610  0.2312 -1.7409  0.8017
   53MOL   H69639280   2.266   0.038   7.531  1.1996  1.3579  0.8867
   53MOL   H69739281   2.432   0.002   7.496 -0.4976 -1.1899 -1.4278
   53MOL   H69839282   2.474   7.647   0.053  0.1540 -0.8816 -0.8264
   53MOL   H69939283   2.309   0.020   0.072  0.8095  0.6455  1.0403
   53MOL   H70039284   2.446   0.173   0.131 -0.5760  1.7912  0.5017
   53MOL   H70139285   2.370   0.230   7.676  1.8963  0.4505 -0.3434
   53MOL   H70239286   2.555   0.178   7.542 -1.2243 -2.5807  0.0109
   53MOL   H70339287   2.653   0.116   7.671  0.2707  1.1985 -0.4853
   53MOL   H70439288   2.584   0.400   7.614  0.4624 -2.3824 -2.9972
   53MOL   C70539289   2.698   0.366   0.081 -0.7168 -0.3008  0.0424
   53MOL   O70639290   2.750   0.287   0.164  0.1196 -0.8845  0.4735
   53MOL   C70739291   2.727   0.513   0.082 -0.5874 -0.9475 -0.2813
   53MOL   C70839292   2.683   0.575   0.213 -1.2447 -0.5757 -0.0196
   53MOL   C70939293   2.533   0.593   0.226 -0.2209 -0.1648  0.6172
   53MOL   C71039294   2.493   0.654   0.356  0.1136  0.2637 -0.1020
   53MOL   C71139295   2.530   0.798   0.388  0.6708 -0.4287 -0.2042
   53MOL   C71239296   2.523   0.826   0.540  0.1832 -0.5175  0.4488
   53MOL   C71339297   2.504   0.976   0.565 -0.3155  0.1214 -0.3705
   53MOL   C71439298   2.474   1.001   0.714 -0.0329 -0.0509 -0.3243
   53MOL   C71539299   2.340   0.937   0.758  0.1306 -0.1174  0.4979
   53MOL   C71639300   2.284   1.007   0.882 -0.4986  0.1522  0.8931
   53MOL   C71739301   2.153   0.946   0.931 -0.3962  0.4180  0.6958
   53MOL   N71839302   2.156   0.957   1.076  0.0949  0.5887 -0.3154
   53MOL   H71939303   2.682   0.569   0.000 -1.1456 -3.1151 -1.5134
   53MOL   H72039304   2.826   0.554   0.062 -1.8562  2.1175 -0.5773
   53MOL   H72139305   2.707   0.499   0.287  0.0662 -2.5062 -2.3649
   53MOL   H72239306   2.740   0.667   0.224 -1.2601 -0.6021  0.2832
   53MOL   H72339307   2.471   0.505   0.208  0.0377 -0.3325  0.5537
   53MOL   H72439308   2.498   0.664   0.151  0.7418 -1.6676 -1.2926
   53MOL   H72539309   2.384   0.650   0.368  0.0047  1.3410 -0.7290
   53MOL   H72639310   2.524   0.590   0.439 -0.9628  0.0790  0.1672
   53MOL   H72739311   2.463   0.860   0.330  1.8038 -1.8028 -3.1030
   53MOL   H72839312   2.635   0.802   0.358  0.6382  0.4738 -0.1919
   53MOL   H72939313   2.619   0.800   0.586 -0.1151  0.2847  1.5647
   53MOL   H73039314   2.436   0.777   0.583  0.7802 -0.3178  1.9276
   53MOL   H73139315   2.423   1.016   0.503 -0.9506 -0.1810  0.2582
   53MOL   H73239316   2.584   1.044   0.536  0.9702 -0.2215  2.2995
   53MOL   H73339317   2.459   1.109   0.719 -1.0201 -0.1664 -0.6494
   53MOL   H73439318   2.549   0.972   0.787  1.7964  1.2373 -1.6352
   53MOL   H73539319   2.346   0.831   0.781 -1.2304 -0.3206 -0.0252
   53MOL   H73639320   2.269   0.953   0.677 -0.4912 -0.0626  1.0445
   53MOL   H73739321   2.270   1.114   0.866  1.6324  0.4015  0.5820
   53MOL   H73839322   2.363   1.005   0.956  1.7100  1.2460 -1.3723
   53MOL   H73939323   2.139   0.844   0.897  0.8807  0.6510 -0.5438
   53MOL   H74039324   2.069   0.993   0.879 -1.2724 -0.3725  1.3657
   53MOL   H74139325   2.076   0.907   1.114 -0.5422  1.3215 -0.6770
   53MOL   H74239326   2.236   0.904   1.107  1.0162  2.3680  0.3783
   54MOL     C139327   6.949   4.717   2.009  0.2182 -0.3267 -0.2379
   54MOL     O239328   6.992   4.673   2.112  0.1781  0.0175 -0.0131
   54MOL     C339329   6.885   4.851   2.000 -0.5643 -0.9897 -1.0214
   54MOL     C439330   6.730   4.848   1.988  0.3285 -0.1325  0.5334
   54MOL     C539331   6.673   4.838   1.848 -0.0057  0.5162  0.2335
   54MOL     C639332   6.684   4.970   1.779 -0.4626  0.4234 -0.9213
   54MOL     C739333   6.593   4.972   1.654 -0.8170 -0.2764  0.3593
   54MOL     C839334   6.620   5.088   1.549 -0.1717 -0.7059  0.5616
   54MOL     C939335   6.582   5.235   1.599 -0.3332 -0.5024  0.8254
   54MOL    C1039336   6.561   5.341   1.499  0.0112  0.1511 -0.3691
   54MOL    C1139337   6.505   5.463   1.567 -0.0130 -0.1153  0.7015
   54MOL    C1239338   6.592   5.523   1.681  0.0381  0.4499  0.1405
   54MOL    C1339339   6.526   5.658   1.731 -0.3714  0.5510 -0.1671
   54MOL    N1439340   6.513   5.752   1.620  0.6110 -0.1012 -0.5585
   54MOL    H1539341   6.934   4.896   1.913  1.0598  1.9931  1.3237
   54MOL    H1639342   6.911   4.907   2.090 -1.5156 -0.9599 -0.7622
   54MOL    H1739343   6.692   4.761   2.042 -0.1911 -0.1798  0.0948
   54MOL    H1839344   6.681   4.932   2.038  0.8941 -0.3086  1.4052
   54MOL    H1939345   6.568   4.811   1.845  0.4766 -1.5369  1.1647
   54MOL    H2039346   6.729   4.766   1.788  0.6807  2.9857 -2.1903
   54MOL    H2139347   6.664   5.051   1.850 -0.8487 -0.7592  0.3508
   54MOL    H2239348   6.790   4.977   1.759 -0.1596 -0.8663  0.1528
   54MOL    H2339349   6.490   4.984   1.689 -0.1748  1.5735  1.6683
   54MOL    H2439350   6.595   4.876   1.602 -0.0303 -0.3517  0.5176
   54MOL    H2539351   6.562   5.059   1.461 -1.7462  0.3994  1.2153
   54MOL    H2639352   6.722   5.095   1.511  0.2349 -3.2768  1.0946
   54MOL    H2739353   6.668   5.262   1.661  0.7679 -1.0722 -0.4323
   54MOL    H2839354   6.502   5.237   1.674 -0.9272 -0.0919  0.1772
   54MOL    H2939355   6.499   5.317   1.412  1.2976  1.8195 -1.7867
   54MOL    H3039356   6.657   5.363   1.452  0.2537 -1.3213 -0.6073
   54MOL    H3139357   6.403   5.446   1.604  0.3916 -0.2345  1.7919
   54MOL    H3239358   6.492   5.535   1.487 -2.2873  0.5051  1.5857
   54MOL    H3339359   6.691   5.549   1.645 -0.3852  0.6775 -0.8801
   54MOL    H3439360   6.607   5.457   1.766  0.6542  1.4123  0.7882
   54MOL    H3539361   6.585   5.705   1.810  0.3544 -0.6322  0.0150
   54MOL    H3639362   6.429   5.647   1.780 -0.0321  1.9258  0.8534
   54MOL    H3739363   6.584   5.750   1.547  1.8952 -2.2561  0.7195
   54MOL    H3839364   6.944   4.667   1.912  0.3632  1.1339 -1.0236
   54MOL    C3939365   6.439   5.865   1.615 -0.0145  0.2019 -0.3542
   54MOL    O4039366   6.360   5.909   1.704  1.1063  0.1700 -0.3803
   54MOL    C4139367   6.450   5.943   1.486  0.7149 -0.4666 -0.6851
   54MOL    C4239368   6.394   6.084   1.496 -0.5215  0.3728  0.2026
   54MOL    C4339369   6.484   6.175   1.582 -0.0425 -0.5189  0.8598
   54MOL    C4439370   6.553   6.288   1.510  0.2286  0.1243 -0.2465
   54MOL    C4539371   6.650   6.362   1.602 -0.1276  0.5553 -0.3967
   54MOL    C4639372   6.708   6.492   1.537 -0.7698 -0.0091  0.2149
   54MOL    C4739373   6.807   6.563   1.628 -0.2356 -0.5467 -0.7728
   54MOL    C4839374   6.879   6.671   1.554 -0.6857 -0.9138  0.2059
   54MOL    C4939375   6.960   6.765   1.641  0.4661  0.0392  0.4091
   54MOL    C5039376   7.021   6.885   1.570 -0.0795 -0.5448 -0.0099
   54MOL    C5139377   7.100   6.978   1.661 -0.7903 -0.1011 -0.5463
   54MOL    N5239378   7.133   7.103   1.589 -0.1512 -0.5077 -0.6097
   54MOL    H5339379   6.394   5.879   1.418 -0.1024 -0.5337  0.0443
   54MOL    H5439380   6.555   5.947   1.456  0.8056 -0.2567 -0.3392
   54MOL    H5539381   6.377   6.133   1.400  2.7235  1.2582 -0.0121
   54MOL    H5639382   6.299   6.069   1.546 -0.5580 -1.6827 -0.4313
   54MOL    H5739383   6.574   6.125   1.620  0.1034 -2.2317 -1.5906
   54MOL    H5839384   6.425   6.205   1.668 -0.3375 -1.1598  0.8884
   54MOL    H5939385   6.606   6.250   1.423  1.2300  0.8191  0.0587
   54MOL    H6039386   6.478   6.357   1.472  0.8501 -0.4507 -2.6176
   54MOL    H6139387   6.723   6.289   1.638 -0.6594 -0.0556 -0.5418
   54MOL    H6239388   6.590   6.384   1.691  0.1794  1.3697 -0.3832
   54MOL    H6339389   6.630   6.560   1.502  0.2307  1.9102  1.5706
   54MOL    H6439390   6.760   6.452   1.450 -0.0280 -0.4984  0.8788
   54MOL    H6539391   6.879   6.497   1.678  0.8197  1.1152 -0.0536
   54MOL    H6639392   6.739   6.603   1.703  0.4571 -2.8079  1.1253
   54MOL    H6739393   6.798   6.728   1.510 -1.4006 -1.3204  0.9674
   54MOL    H6839394   6.933   6.637   1.466 -0.9335 -0.2199 -0.2140
   54MOL    H6939395   7.045   6.706   1.674 -0.1202 -0.8048  0.4396
   54MOL    H7039396   6.921   6.787   1.740  1.1687  1.0294  0.4700
   54MOL    H7139397   6.947   6.950   1.524 -0.5479 -0.1202  1.3119
   54MOL    H7239398   7.089   6.866   1.487 -0.8998 -0.0267 -0.7946
   54MOL    H7339399   7.196   6.937   1.694 -1.0048 -2.3908 -2.6380
   54MOL    H7439400   7.047   7.011   1.750 -0.1807 -0.1795 -0.1507
   54MOL    H7539401   7.061   7.129   1.523  0.3935 -0.7936 -1.3200
   54MOL    C7639402   7.216   7.202   1.630 -0.4167 -0.0382  0.3489
   54MOL    O7739403   7.295   7.181   1.721  0.1141  0.3450  0.1542
   54MOL    C7839404   7.208   7.347   1.569 -0.8338 -0.1084 -0.7327
   54MOL    C7939405   7.272   7.463   1.658  0.3287  0.0640 -0.3105
   54MOL    C8039406   7.182   7.487   1.786  0.3070  0.2543 -0.3554
   54MOL    C8139407   7.255   7.589   1.876 -0.1071  0.4558 -0.3225
   54MOL    C8239408   7.161   7.656   1.977 -0.1271  0.2064  0.0302
   54MOL    C8339409   7.227   7.655   2.121 -0.3934  0.3237  0.1668
   54MOL    C8439410   7.150   0.024   2.232 -0.2502 -0.0258 -0.4246
   54MOL    C8539411   7.197   7.678   2.375  0.2372  0.8016 -0.2929
   54MOL    C8639412   7.101   0.058   2.477  0.0362 -0.2285 -0.1938
   54MOL    C8739413   7.142   0.048   2.627 -0.0305  0.2527  0.0601
   54MOL    C8839414   7.084   7.620   2.697  0.0942  0.4974 -0.3651
   54MOL    N8939415   7.149   7.494   2.666 -0.0571 -0.3611 -0.6513
   54MOL    H9039416   7.102   7.372   1.564 -0.5730  1.2695  0.3534
   54MOL    H9139417   7.249   7.356   1.469  0.7007 -0.8789 -0.1830
   54MOL    H9239418   7.378   7.441   1.677  0.5910 -0.0689 -1.8555
   54MOL    H9339419   7.286   7.554   1.600 -0.1388 -0.5079 -1.3327
   54MOL    H9439420   7.165   7.405   1.856 -0.8244  0.5774 -0.2459
   54MOL    H9539421   7.084   7.531   1.766  1.3402  2.0488 -1.6641
   54MOL    H9639422   7.332   7.531   1.929 -0.1519 -0.5170 -1.3135
   54MOL    H9739423   7.303   7.668   1.817  1.0862  1.2990  1.7164
   54MOL    H9839424   7.063   7.609   1.978  0.4577 -1.1049 -1.2413
   54MOL    H9939425   7.146   0.068   1.957  3.4532  0.6442 -0.6643
   54MOL   H10039426   7.319   0.017   2.102 -0.7815  0.2454 -2.0901
   54MOL   H10139427   7.238   7.549   2.146 -0.4659 -0.2122 -1.9836
   54MOL   H10239428   7.043   0.018   2.213 -0.4878 -2.9079  1.4946
   54MOL   H10339429   7.177   0.130   2.235  0.7989 -0.2900 -0.2781
   54MOL   H10439430   7.297   0.024   2.395  0.3076 -0.6776  2.5334
   54MOL   H10539431   7.192   7.571   2.395  1.0083  0.1837 -3.1854
   54MOL   H10639432   6.999   0.021   2.468  0.3168 -1.6861  2.1313
   54MOL   H10739433   7.097   0.166   2.462  0.1318 -0.0801  0.7696
   54MOL   H10839434   7.108   0.132   2.688  0.6912  1.3748 -1.0523
   54MOL   H10939435   7.251   0.047   2.634  0.2383 -0.4706 -3.3796
   54MOL   H11039436   6.981   7.626   2.662 -0.3462  0.1454  0.8599
   54MOL   H11139437   7.067   7.631   2.804  0.9619  3.1461 -0.4640
   54MOL   H11239438   7.092   7.426   2.616 -0.7917  2.3271 -3.6580
   54MOL   C11339439   7.264   7.454   2.718 -0.1238 -0.1154 -0.2393
   54MOL   O11439440   7.337   7.526   2.788 -0.0215  0.2121 -0.4886
   54MOL   C11539441   7.298   7.308   2.677 -0.2719  0.2326 -0.5233
   54MOL   C11639442   7.429   7.297   2.601 -0.3549  0.3177  0.1977
   54MOL   C11739443   7.410   7.301   2.445 -0.0013 -0.1472  0.1598
   54MOL   C11839444   7.537   7.295   2.369  0.3273  0.5105 -0.1664
   54MOL   C11939445   7.594   7.152   2.356 -0.0176  0.2647  0.0276
   54MOL   C12039446   0.027   7.119   2.275  0.0507 -0.1086  0.4827
   54MOL   C12139447   0.144   7.205   2.305 -0.5386 -0.1011  0.6241
   54MOL   C12239448   0.181   7.205   2.455 -0.0255 -0.2033 -0.0724
   54MOL   C12339449   0.302   7.295   2.494 -0.3814 -0.0580  0.1934
   54MOL   C12439450   0.329   7.282   2.650 -0.0380  0.1634  0.1492
   54MOL   C12539451   0.448   7.363   2.704 -0.1713  0.2790 -0.1758
   54MOL   N12639452   0.442   7.361   2.846 -0.0591 -0.6622 -0.3796
   54MOL   H12739453   7.219   7.259   2.619 -1.7454  1.0229  0.7946
   54MOL   H12839454   7.298   7.243   2.765 -0.4173  1.3184  0.2797
   54MOL   H12939455   7.508   7.365   2.632 -0.5003  0.5056  0.1565
   54MOL   H13039456   7.477   7.203   2.630 -1.1980  0.2212  1.2969
   54MOL   H13139457   7.367   7.399   2.424 -0.6240 -0.5220 -0.3527
   54MOL   H13239458   7.346   7.222   2.406  1.4365 -0.1177 -2.3203
   54MOL   H13339459   7.507   7.324   2.268 -0.1061  0.5116 -0.0384
   54MOL   H13439460   7.612   7.367   2.404  0.0621 -0.1653  1.8557
   54MOL   H13539461   7.509   7.102   2.309 -0.0937 -0.8625  1.3171
   54MOL   H13639462   7.603   7.115   2.459  0.0960 -0.2497 -0.1636
   54MOL   H13739463   7.692   7.141   2.172  2.9402  2.4215  0.1468
   54MOL   H13839464   0.053   7.013   2.276  1.8368  0.3039 -0.1500
   54MOL   H13939465   0.134   7.313   2.293  0.2809 -0.1063 -0.1803
   54MOL   H14039466   0.227   7.170   2.243 -0.1170 -0.0224  1.1357
   54MOL   H14139467   0.211   7.103   2.482  1.0976  0.4817  1.2868
   54MOL   H14239468   0.099   7.233   2.520 -0.3537 -0.0969 -0.5329
   54MOL   H14339469   0.290   7.399   2.463 -1.1152  0.9908  3.8584
   54MOL   H14439470   0.388   7.259   2.438 -0.2178 -0.3897  0.6556
   54MOL   H14539471   0.330   7.176   2.676 -2.0196  0.0758 -0.0781
   54MOL   H14639472   0.233   7.316   2.689 -0.7275 -0.5657 -0.8987
   54MOL   H14739473   0.431   7.460   2.657 -3.9445 -1.2514 -2.2276
   54MOL   H14839474   0.537   7.313   2.666  0.4093 -0.4755  2.1231
   54MOL   H14939475   0.397   7.444   2.883  1.0859  1.1853 -2.9403
   54MOL   C15039476   0.486   7.256   2.919 -0.0600 -0.0893  0.4997
   54MOL   O15139477   0.539   7.157   2.868  0.2712  0.2934  0.5354
   54MOL   C15239478   0.451   7.255   3.067 -0.4019  0.6156 -0.2012
   54MOL   C15339479   0.309   7.199   3.099  0.0522  0.3983  0.4552
   54MOL   C15439480   0.294   7.046   3.091  0.6919  0.5291 -0.4129
   54MOL   C15539481   0.154   6.997   3.130 -0.0285  0.4868  0.6250
   54MOL   C15639482   0.145   6.846   3.128 -0.1488 -0.0780  0.0703
   54MOL   C15739483   0.011   6.788   3.109  0.3042  0.3968 -0.4951
   54MOL   C15839484   0.007   6.637   3.147 -0.0536  0.1766 -0.1359
   54MOL   C15939485   7.569   6.578   3.106  0.4207  0.2170  0.6209
   54MOL   C16039486   7.548   6.434   3.158 -0.2932  0.5122  0.3898
   54MOL   C16139487   7.403   6.378   3.134  0.0390 -0.2368 -0.4051
   54MOL   C16239488   7.378   6.234   3.190 -0.0646  0.0909 -0.0157
   54MOL   N16339489   7.246   6.205   3.210  0.9056  0.3360 -0.3170
   54MOL   H16439490   0.457   7.361   3.093  1.3623  0.5898 -0.4572
   54MOL   H16539491   0.531   7.200   3.117 -2.3232 -0.0426  2.2866
   54MOL   H16639492   0.282   7.230   3.201 -0.2206  0.6511  0.3065
   54MOL   H16739493   0.232   7.247   3.038 -0.4138 -3.0467 -1.7662
   54MOL   H16839494   0.368   6.992   3.150 -1.3690 -1.4237  0.4616
   54MOL   H16939495   0.315   7.018   2.988  1.8493 -1.2426  0.2795
   54MOL   H17039496   0.125   7.024   3.232 -0.7836 -0.9863  0.8133
   54MOL   H17139497   0.079   7.039   3.063 -0.3056 -0.8239  0.1047
   54MOL   H17239498   0.180   6.828   3.230 -2.6804 -2.9216  0.5092
   54MOL   H17339499   0.214   6.807   3.053  0.0830  0.8414 -0.1971
   54MOL   H17439500   7.682   6.790   3.002 -3.2997 -1.3295  0.1836
   54MOL   H17539501   7.628   6.840   3.165 -0.0972 -0.6676 -0.0439
   54MOL   H17639502   0.034   6.619   3.251  1.0910  2.9677  0.0880
   54MOL   H17739503   0.083   6.588   3.084  0.4039  1.0278 -0.2553
   54MOL   H17839504   7.558   6.572   2.998 -0.9998 -0.8120  0.8037
   54MOL   H17939505   7.495   6.649   3.143  1.8354  2.3329 -0.4774
   54MOL   H18039506   7.563   6.438   3.266  1.5862 -0.7359  0.1858
   54MOL   H18139507   7.626   6.370   3.118  0.8244  0.7076  2.2125
   54MOL   H18239508   7.387   6.384   3.027 -1.6457 -0.1405 -0.1585
   54MOL   H18339509   7.335   6.455   3.171  1.4523 -0.2027  2.3289
   54MOL   H18439510   7.447   6.213   3.272 -0.8694 -0.5991  0.4961
   54MOL   H18539511   7.416   6.164   3.117  0.5993  0.6491 -0.2132
   54MOL   H18639512   7.171   6.266   3.182 -0.1718 -0.5296  0.6324
   54MOL   C18739513   7.198   6.094   3.259  0.1443 -0.3232  0.5403
   54MOL   O18839514   7.269   5.997   3.284  0.0554  0.2364 -0.4374
   54MOL   C18939515   7.045   6.095   3.266 -0.0279  0.1513 -0.3882
   54MOL   C19039516   6.986   5.957   3.297 -0.4823 -0.5633 -0.1949
   54MOL   C19139517   6.843   5.964   3.349  0.4067 -0.1203 -0.2368
   54MOL   C19239518   6.838   6.001   3.499  0.7860  0.5363  0.0446
   54MOL   C19339519   6.712   5.947   3.568  0.3459  0.7620 -1.0986
   54MOL   C19439520   6.700   5.972   3.722  0.0133 -0.3051 -1.2479
   54MOL   C19539521   6.562   5.961   3.790  0.0681  0.3019  0.6748
   54MOL   C19639522   6.512   5.829   3.807 -0.5067  0.1161 -0.6282
   54MOL   C19739523   6.454   5.760   3.681 -0.1012  0.0585  0.0328
   54MOL   C19839524   6.354   5.646   3.719  0.3560  0.0181 -0.6048
   54MOL   C19939525   6.310   5.570   3.592  0.5939  0.6191  0.8445
   54MOL   N20039526   6.182   5.500   3.592  0.1502 -0.1929  0.4520
   54MOL   H20139527   7.002   6.125   3.171 -1.5284 -0.2937  0.1231
   54MOL   H20239528   7.015   6.169   3.340 -0.0342 -0.1111 -0.1255
   54MOL   H20339529   6.984   5.896   3.206 -0.4866  0.6161 -0.9985
   54MOL   H20439530   7.037   5.899   3.373  1.5796 -0.7858 -1.7055
   54MOL   H20539531   6.801   5.867   3.323  0.7317  0.2044 -2.0537
   54MOL   H20639532   6.778   6.033   3.295 -0.8826 -0.0694  1.3351
   54MOL   H20739533   6.924   5.965   3.555  0.0917  0.2547  0.9543
   54MOL   H20839534   6.839   6.110   3.501  0.1147  0.5345  2.0074
   54MOL   H20939535   6.694   5.843   3.544  0.7284  0.1060  1.2892
   54MOL   H21039536   6.626   5.993   3.520 -1.5970 -1.8449 -0.2179
   54MOL   H21139537   6.735   6.071   3.752 -2.8689  0.3362  0.2007
   54MOL   H21239538   6.767   5.893   3.756 -1.0367 -0.6951 -0.0464
   54MOL   H21339539   6.487   6.023   3.741 -0.9604  1.0853  3.1830
   54MOL   H21439540   6.572   6.004   3.890  1.3119 -2.5774  1.8416
   54MOL   H21539541   6.430   5.844   3.878 -0.7759 -1.3147 -0.6237
   54MOL   H21639542   6.592   5.775   3.858 -1.9227  0.6315  2.2569
   54MOL   H21739543   6.534   5.714   3.623  1.4801  0.6784  1.6731
   54MOL   H21839544   6.393   5.830   3.624  0.8316  2.0264  1.3772
   54MOL   H21939545   6.266   5.681   3.772 -0.0769 -0.4666 -0.9921
   54MOL   H22039546   6.404   5.569   3.778 -0.0161 -0.7110 -1.2283
   54MOL   H22139547   6.381   5.495   3.556 -0.1105  0.7226 -0.7952
   54MOL   H22239548   6.290   5.649   3.520  0.0222  0.2127  0.5453
   54MOL   H22339549   6.136   5.502   3.681  0.3718 -0.6589  0.5799
   54MOL   C22439550   6.129   5.452   3.479 -0.0608 -0.0557 -0.2957
   54MOL   O22539551   6.184   5.449   3.370 -0.2760 -0.6027  0.3729
   54MOL   C22639552   5.987   5.390   3.497 -0.1304 -0.4919 -0.1349
   54MOL   C22739553   5.965   5.304   3.629  0.4870 -1.2353 -0.2858
   54MOL   C22839554   5.829   5.238   3.654  0.4090  0.2162 -0.4133
   54MOL   C22939555   5.706   5.336   3.682  0.3305 -0.4213 -0.6369
   54MOL   C23039556   5.569   5.270   3.685  0.2727 -0.1035 -0.1159
   54MOL   C23139557   5.441   5.349   3.721 -0.5524 -0.4913  0.4290
   54MOL   C23239558   5.318   5.261   3.725 -0.4744 -0.1938  0.4317
   54MOL   C23339559   5.193   5.336   3.754  0.2948 -0.2498  0.3466
   54MOL   C23439560   5.070   5.253   3.778 -0.3465  0.1323 -0.4477
   54MOL   C23539561   4.958   5.324   3.851  0.2012 -0.2565  0.1331
   54MOL   C23639562   4.875   5.414   3.758  1.0405 -0.7781 -0.0064
   54MOL   N23739563   4.760   5.477   3.828 -0.3571 -0.3290  0.5703
   54MOL   H23839564   5.963   5.329   3.410  0.8053 -1.0967  0.0275
   54MOL   H23939565   5.912   5.469   3.489  0.0670  0.3131  4.5153
   54MOL   H24039566   6.045   5.231   3.626  0.6374 -1.0281 -1.3251
   54MOL   H24139567   5.993   5.374   3.709  1.5757 -1.3724 -0.5459
   54MOL   H24239568   5.827   5.162   3.732  0.0440  0.1052 -0.5267
   54MOL   H24339569   5.800   5.173   3.571 -0.4160  0.6649 -0.4857
   54MOL   H24439570   5.721   5.390   3.775  0.4914  0.0235 -0.9181
   54MOL   H24539571   5.707   5.420   3.613  2.2311  1.4818  1.6148
   54MOL   H24639572   5.575   5.178   3.743 -2.1446  0.4943  1.1695
   54MOL   H24739573   5.550   5.245   3.580 -0.4236 -1.2021  0.2618
   54MOL   H24839574   5.435   5.425   3.644  1.2667  0.3199  1.0670
   54MOL   H24939575   5.457   5.396   3.818  2.2915 -0.4748 -0.0292
   54MOL   H25039576   5.325   5.192   3.809 -1.5072  1.1765  1.6666
   54MOL   H25139577   5.311   5.210   3.629  3.0815 -3.2524  1.6834
   54MOL   H25239578   5.166   5.400   3.669  2.0725  1.4176  1.0074
   54MOL   H25339579   5.216   5.401   3.838  0.3394  1.4471 -0.9472
   54MOL   H25439580   5.090   5.151   3.813  0.2558  0.1148 -0.8275
   54MOL   H25539581   5.036   5.219   3.680 -2.1773 -2.6219  1.0873
   54MOL   H25639582   4.994   5.359   3.947 -0.0039  1.8838 -0.5480
   54MOL   H25739583   4.896   5.243   3.891  0.0475 -0.5502 -0.6843
   54MOL   H25839584   4.840   5.349   3.677 -0.5840 -1.9191  1.5607
   54MOL   H25939585   4.933   5.494   3.714 -1.2318  1.0759  0.2715
   54MOL   H26039586   4.769   5.471   3.928  2.4028 -0.6291  0.3551
   54MOL   C26139587   4.654   5.527   3.765 -0.6137 -0.3550  0.9649
   54MOL   O26239588   4.635   5.514   3.642 -0.1078  0.0120  0.1287
   54MOL   C26339589   4.554   5.611   3.845  0.1355 -0.0607 -0.2939
   54MOL   C26439590   4.405   5.604   3.798  0.7951 -0.0849 -0.4903
   54MOL   C26539591   4.377   5.690   3.676  0.0331 -0.5155 -0.2175
   54MOL   C26639592   4.248   5.669   3.599 -0.2704  0.4444 -0.0783
   54MOL   C26739593   4.247   5.748   3.469 -0.0193  0.1170 -0.3265
   54MOL   C26839594   4.127   5.710   3.389  0.6747 -0.0659 -0.5997
   54MOL   C26939595   4.124   5.767   3.241 -0.3129  0.1534  0.5150
   54MOL   C27039596   4.016   5.695   3.153  0.2905 -0.0708 -0.2157
   54MOL   C27139597   4.047   5.737   3.006  0.0247  0.1366  0.1187
   54MOL   C27239598   3.945   5.692   2.910 -0.0721  1.2834 -0.0656
   54MOL   C27339599   3.990   5.741   2.768  0.5413  0.0728 -0.0040
   54MOL   N27439600   3.923   5.667   2.661 -0.5589  0.0592 -0.3793
   54MOL   H27539601   4.595   5.711   3.857 -2.7532  0.8583  2.6120
   54MOL   H27639602   4.572   5.579   3.947 -0.5419  0.7786  0.0932
   54MOL   H27739603   4.379   5.499   3.779  1.3602 -0.6865  1.9448
   54MOL   H27839604   4.328   5.628   3.871  0.7307 -0.0942 -0.5540
   54MOL   H27939605   4.457   5.677   3.603 -1.1274  2.3860 -2.0825
   54MOL   H28039606   4.372   5.795   3.704  1.8176 -1.1098  2.4999
   54MOL   H28139607   4.235   5.563   3.576  0.2600  0.9665 -2.8745
   54MOL   H28239608   4.162   5.690   3.663 -0.9186  1.3456 -1.2361
   54MOL   H28339609   4.336   5.734   3.409 -0.9235  0.0081 -1.6504
   54MOL   H28439610   4.237   5.855   3.487  1.4965  0.3259 -0.6877
   54MOL   H28539611   4.037   5.744   3.440  1.0365 -0.4759  0.3217
   54MOL   H28639612   4.118   5.601   3.387 -0.2185 -0.0332  0.8436
   54MOL   H28739613   4.224   5.763   3.198 -1.4142  0.4315 -2.2114
   54MOL   H28839614   4.101   5.873   3.244 -2.0333 -0.2129  1.0398
   54MOL   H28939615   3.913   5.719   3.180  0.3269 -0.3029  0.1431
   54MOL   H29039616   4.021   5.586   3.159 -0.7974 -0.0988  0.4570
   54MOL   H29139617   4.140   5.691   2.974 -0.0908 -0.4019  0.5344
   54MOL   H29239618   4.063   5.844   2.993  1.6092 -0.2231 -1.0416
   54MOL   H29339619   3.855   5.754   2.904 -1.5076 -0.6728  0.6879
   54MOL   H29439620   3.932   5.584   2.905 -0.7232  1.3273  0.6043
   54MOL   H29539621   4.095   5.715   2.755  0.9396  0.9317  1.3590
   54MOL   H29639622   3.986   5.848   2.749  2.1430  0.1974  0.2989
   54MOL   H29739623   3.848   5.604   2.687  1.7189 -3.6158 -2.2440
   54MOL   C29839624   3.957   5.679   2.538 -0.1506 -0.6353  1.0882
   54MOL   O29939625   4.048   5.755   2.500 -0.4134 -0.0602  0.1707
   54MOL   C30039626   3.887   5.602   2.436 -0.2046 -0.4240  0.3660
   54MOL   C30139627   3.944   5.452   2.423 -0.0316 -0.0283  0.2648
   54MOL   C30239628   4.095   5.448   2.388 -0.2360  1.0839 -0.1363
   54MOL   C30339629   4.172   5.361   2.497 -0.0263  0.4702  0.1558
   54MOL   C30439630   4.184   5.421   2.630 -0.1186  0.6949  0.3736
   54MOL   C30539631   4.245   5.323   2.739  0.4069 -0.2323 -0.9642
   54MOL   C30639632   4.255   5.399   2.877 -0.8893  0.1672 -0.2417
   54MOL   C30739633   4.322   5.316   2.981  0.4339 -0.5862 -0.0942
   54MOL   C30839634   4.276   5.369   3.123 -1.1580 -0.2324 -0.2174
   54MOL   C30939635   4.373   5.309   3.236 -0.9244 -0.2149 -0.2624
   54MOL   C31039636   4.354   5.357   3.380  0.2734  0.5014 -0.1662
   54MOL   N31139637   4.454   5.296   3.459 -0.4698 -0.5101 -0.7763
   54MOL   H31239638   3.910   5.660   2.347 -1.0334  0.7843  0.9175
   54MOL   H31339639   3.779   5.607   2.450 -0.1129  0.7548  0.6504
   54MOL   H31439640   3.922   5.409   2.520 -2.8471  2.0240  0.5929
   54MOL   H31539641   3.896   5.386   2.350  1.2629 -0.8412  0.1356
   54MOL   H31639642   4.141   5.545   2.369  0.2122  0.6249 -1.4353
   54MOL   H31739643   4.104   5.407   2.287  3.0466  0.1668  0.4897
   54MOL   H31839644   4.123   5.263   2.494  2.1356 -0.5914 -2.6162
   54MOL   H31939645   4.274   5.344   2.462 -0.0464 -1.6517  1.0123
   54MOL   H32039646   4.086   5.450   2.667 -0.6411  1.3162 -1.4428
   54MOL   H32139647   4.240   5.515   2.626 -0.0132  0.6135 -0.0782
   54MOL   H32239648   4.345   5.287   2.713  0.5796 -0.8687  0.5530
   54MOL   H32339649   4.180   5.237   2.751  1.9368 -1.0631  1.9100
   54MOL   H32439650   4.148   5.408   2.896 -0.8224  1.9840 -0.6479
   54MOL   H32539651   4.301   5.497   2.862  0.4699 -0.5098 -0.6444
   54MOL   H32639652   4.430   5.316   2.964  0.6529 -0.8555  1.2100
   54MOL   H32739653   4.295   5.213   2.963 -0.3292 -0.7307  1.7609
   54MOL   H32839654   4.172   5.341   3.139 -0.3737 -2.9820  0.2844
   54MOL   H32939655   4.289   5.477   3.128 -2.4191 -0.0736 -0.1371
   54MOL   H33039656   4.475   5.325   3.201 -0.2766 -1.0933  1.1867
   54MOL   H33139657   4.358   5.201   3.238  0.7883 -0.4684 -0.4100
   54MOL   H33239658   4.267   5.314   3.431  0.6771 -0.3434 -0.1792
   54MOL   H33339659   4.357   5.465   3.389  0.1344  0.6017 -1.2436
   54MOL   H33439660   4.512   5.367   3.502  1.1117 -1.2164 -1.7071
   54MOL   C33539661   4.464   5.176   3.511  0.0473  0.5814 -0.4482
   54MOL   O33639662   4.389   5.086   3.479 -0.3737  0.3110  0.2964
   54MOL   C33739663   4.570   5.157   3.622 -0.1220  0.2150  0.2358
   54MOL   C33839664   4.542   5.036   3.716  0.0312 -0.5956 -0.1071
   54MOL   C33939665   4.642   5.036   3.831 -0.2403 -0.3848  0.3266
   54MOL   C34039666   4.617   4.912   3.919  0.7626  0.1257  0.2531
   54MOL   C34139667   4.702   4.928   4.046 -0.3889 -0.4630  0.5995
   54MOL   C34239668   4.679   4.807   4.141 -0.6862  0.0445 -0.0346
   54MOL   C34339669   4.750   4.832   4.268  0.0185 -0.0500 -0.3228
   54MOL   C34439670   4.723   4.721   4.371 -0.0082  0.1043 -0.6096
   54MOL   C34539671   4.784   4.751   4.506  0.3143  0.4540 -0.3651
   54MOL   C34639672   4.764   4.627   4.598 -0.2383 -1.0717 -0.6163
   54MOL   C34739673   4.866   4.643   4.715  0.3871 -0.7691  0.4388
   54MOL   N34839674   4.860   4.539   4.814 -0.0746  0.0615  0.4688
   54MOL   H34939675   4.576   5.251   3.677  1.1655 -1.0607  2.3716
   54MOL   H35039676   4.668   5.138   3.579  0.5785 -0.9942  2.2872
   54MOL   H35139677   4.443   5.050   3.760  0.5071 -1.4469  1.2621
   54MOL   H35239678   4.531   4.943   3.660 -1.0313 -1.0879  0.9167
   54MOL   H35339679   4.644   5.128   3.891 -2.0201 -0.3619  0.4004
   54MOL   H35439680   4.746   5.030   3.801 -0.5401  1.7991 -1.2534
   54MOL   H35539681   4.512   4.903   3.946 -0.6295  1.8266 -4.1742
   54MOL   H35639682   4.643   4.824   3.859  0.1170 -0.0140  0.1809
   54MOL   H35739683   4.674   5.023   4.091  2.3835  0.4312  0.5232
   54MOL   H35839684   4.807   4.943   4.022 -0.1420 -1.3137  1.1028
   54MOL   H35939685   4.719   4.718   4.093 -1.9981 -0.3832 -0.3485
   54MOL   H36039686   4.572   4.802   4.163 -0.6422 -0.2995  0.1116
   54MOL   H36139687   4.710   4.928   4.302 -2.5127 -1.1179 -0.2372
   54MOL   H36239688   4.857   4.843   4.250  0.5344 -0.1680  2.4478
   54MOL   H36339689   4.766   4.629   4.331  1.2924  1.2449 -1.9069
   54MOL   H36439690   4.616   4.701   4.376  0.0117  0.1890  0.2643
   54MOL   H36539691   4.742   4.840   4.553  2.4130  1.9013 -1.1848
   54MOL   H36639692   4.888   4.781   4.496 -0.2885  2.4301 -0.8030
   54MOL   H36739693   4.792   4.535   4.547  0.5846 -1.6490  0.8497
   54MOL   H36839694   4.662   4.609   4.632  0.0829 -1.4268  0.1733
   54MOL   H36939695   4.859   4.735   4.773  0.1780 -1.7876  2.0500
   54MOL   H37039696   4.968   4.621   4.684  0.8532 -0.5192  1.7999
   54MOL   H37139697   4.927   4.464   4.801 -0.5999 -0.1258 -1.3652
   54MOL   C37239698   4.773   4.545   4.914  0.4588  0.2320  0.1689
   54MOL   O37339699   4.692   4.636   4.916  1.1642  0.2530  0.1807
   54MOL   C37439700   4.766   4.432   5.024 -0.4148 -0.1147  0.5991
   54MOL   C37539701   4.646   4.446   5.130 -0.1055 -0.1921 -0.2011
   54MOL   C37639702   4.659   4.353   5.254  0.9373 -0.1516 -0.7452
   54MOL   C37739703   4.554   4.374   5.363  0.4314 -0.2999  0.0511
   54MOL   C37839704   4.575   4.271   5.476  0.1736 -0.6153  0.2345
   54MOL   C37939705   4.701   4.290   5.555 -0.5023 -0.4474 -0.3008
   54MOL   C38039706   4.716   4.418   5.635  0.0865  0.0070 -0.0351
   54MOL   C38139707   4.619   4.447   5.751 -0.0687 -0.9834 -0.2867
   54MOL   C38239708   4.658   4.380   5.891  0.1330  0.7873  0.7350
   54MOL   C38339709   4.547   4.377   6.006  0.3254  0.0603 -0.3622
   54MOL   C38439710   4.571   4.273   6.113 -0.0975 -0.6477 -0.0367
   54MOL   N38539711   4.459   4.275   6.215  0.3295  0.2630 -0.4298
   54MOL   H38639712   4.863   4.449   5.070  1.0868  0.2707 -2.5686
   54MOL   H38739713   4.769   4.337   4.969  2.7044  1.9442 -3.0589
   54MOL   H38839714   4.645   4.550   5.164  4.1128  0.3968 -1.5169
   54MOL   H38939715   4.558   4.437   5.068 -0.0723 -1.2171 -0.1186
   54MOL   H39039716   4.751   4.387   5.301 -0.0457  3.2209 -1.1424
   54MOL   H39139717   4.682   4.251   5.223  1.6822  0.6692 -3.0109
   54MOL   H39239718   4.556   4.475   5.403 -0.8556 -0.0146 -0.5882
   54MOL   H39339719   4.451   4.357   5.332 -0.2712  1.5286  1.3152
   54MOL   H39439720   4.580   4.173   5.428  0.8741  0.1184 -1.2173
   54MOL   H39539721   4.496   4.266   5.551  0.6078  2.8344  1.0034
   54MOL   H39639722   4.795   4.275   5.501  0.1852 -0.3800  0.8722
   54MOL   H39739723   4.708   4.208   5.626  1.0815  0.1144  0.2224
   54MOL   H39839724   4.711   4.510   5.576  1.3111  0.5050  0.6148
   54MOL   H39939725   4.816   4.413   5.678 -0.9946  1.8805  2.7970
   54MOL   H40039726   4.515   4.417   5.738  0.0510 -1.8453  0.7112
   54MOL   H40139727   4.621   4.556   5.758 -2.0244 -0.8573 -1.2799
   54MOL   H40239728   4.746   4.431   5.928  0.5661  0.6955 -0.1600
   54MOL   H40339729   4.700   4.282   5.868 -0.4501  0.5163  0.8124
   54MOL   H40439730   4.445   4.366   5.971  0.3311 -0.1253 -0.3169
   54MOL   H40539731   4.553   4.478   6.047  3.2625 -1.0738  2.2674
   54MOL   H40639732   4.667   4.286   6.162  0.5160 -2.8029 -0.6185
   54MOL   H40739733   4.572   4.175   6.065 -4.1890 -0.6269 -0.3532
   54MOL   H40839734   4.407   4.360   6.232  2.3768  0.7995  3.8770
   54MOL   C40939735   4.417   4.166   6.281  0.4679  1.0573 -0.1292
   54MOL   O41039736   4.471   4.054   6.259  0.1210 -0.0780 -0.8737
   54MOL   C41139737   4.303   4.178   6.386 -0.7605  0.6128  0.0175
   54MOL   C41239738   4.352   4.163   6.535 -0.1860  0.3335  0.5650
   54MOL   C41339739   4.396   4.020   6.570 -0.8307  0.0434 -0.2372
   54MOL   C41439740   4.420   3.993   6.722 -0.5027 -0.9881 -0.8347
   54MOL   C41539741   4.467   3.855   6.752  0.4196  0.0112  0.7201
   54MOL   C41639742   4.521   3.827   6.893  0.5223  0.3952 -0.3947
   54MOL   C41739743   4.574   3.686   6.906 -0.2208  0.0465  0.1462
   54MOL   C41839744   4.694   3.683   7.000 -0.3004 -0.4903  0.8088
   54MOL   C41939745   4.747   3.534   7.014 -1.2363  0.1231  0.0056
   54MOL   C42039746   4.809   3.478   6.892  0.2799 -0.2872 -0.2010
   54MOL   C42139747   4.850   3.332   6.922 -0.5750 -0.0499  0.3325
   54MOL   N42239748   4.918   3.271   6.806 -0.0163 -0.1592 -0.4588
   54MOL   H42339749   4.243   4.088   6.372 -0.2616  0.0666  1.2779
   54MOL   H42439750   4.231   4.257   6.367 -0.0827  1.1465 -0.3220
   54MOL   H42539751   4.420   4.242   6.567  0.2645  1.1445 -2.2258
   54MOL   H42639752   4.259   4.192   6.584 -1.8392 -1.1245 -1.5980
   54MOL   H42739753   4.485   3.978   6.523 -0.7831 -1.7215  1.3725
   54MOL   H42839754   4.312   3.960   6.536 -0.0654 -1.3843  0.3388
   54MOL   H42939755   4.500   4.058   6.758 -1.2746 -0.9949  0.9295
   54MOL   H43039756   4.329   4.014   6.777 -0.6203 -1.3682 -0.8795
   54MOL   H43139757   4.545   3.829   6.680 -1.8805 -2.2230 -1.0789
   54MOL   H43239758   4.385   3.784   6.739  0.8866 -0.0314 -2.2185
   54MOL   H43339759   4.447   3.846   6.971  0.5033  2.4508 -0.8987
   54MOL   H43439760   4.595   3.907   6.903 -0.5808  1.2293  1.4434
   54MOL   H43539761   4.600   3.636   6.813  1.9775  0.9455  0.2513
   54MOL   H43639762   4.502   3.617   6.950 -0.6391 -1.0677 -2.1956
   54MOL   H43739763   4.671   3.728   7.097  0.4147  0.6218  0.4673
   54MOL   H43839764   4.780   3.736   6.959 -1.0821 -1.0486 -1.6050
   54MOL   H43939765   4.663   3.470   7.042 -1.4484 -0.6216 -2.2214
   54MOL   H44039766   4.811   3.529   7.102 -2.4406 -1.4425  0.8201
   54MOL   H44139767   4.903   3.524   6.860  1.4810 -3.3705 -1.3509
   54MOL   H44239768   4.737   3.472   6.811 -1.8737  1.2045  1.5434
   54MOL   H44339769   4.754   3.284   6.943 -0.2218 -0.6834  0.5314
   54MOL   H44439770   4.909   3.312   7.011 -1.0058 -3.5759 -0.0842
   54MOL   H44539771   4.967   3.328   6.739 -1.3968  0.1347 -1.2236
   54MOL   C44639772   4.926   3.140   6.781  0.2060  0.7495 -0.1477
   54MOL   O44739773   4.858   3.054   6.845 -0.1625 -0.5867  0.1564
   54MOL   C44839774   5.021   3.107   6.666  0.8651  0.4976 -0.3001
   54MOL   C44939775   4.988   2.963   6.604  0.1168 -0.8196  0.3961
   54MOL   C45039776   4.869   2.965   6.503  0.5645 -0.1525 -0.1816
   54MOL   C45139777   4.830   2.827   6.447 -0.0113 -0.1942  0.1941
   54MOL   C45239778   4.692   2.817   6.370 -0.8028 -0.5925 -0.1342
   54MOL   C45339779   4.666   2.682   6.300 -0.5410  0.3246 -0.2548
   54MOL   C45439780   4.545   2.691   6.209 -0.7532  0.1996  0.7263
   54MOL   C45539781   4.504   2.559   6.147 -0.1541  0.1759  0.3244
   54MOL   C45639782   4.422   2.586   6.020 -0.4250  0.0855 -0.1925
   54MOL   C45739783   4.369   2.452   5.970 -0.0847 -0.3869 -0.6542
   54MOL   C45839784   4.315   2.456   5.828  0.1749 -1.0275  0.2740
   54MOL   N45939785   4.183   2.519   5.818  0.2040 -0.5433  0.3756
   54MOL   H46039786   5.120   3.102   6.709  0.0639  4.8277  2.3851
   54MOL   H46139787   5.032   3.186   6.592  0.0833 -0.8362 -1.8612
   54MOL   H46239788   5.067   2.908   6.553 -0.2245 -1.2452  0.3281
   54MOL   H46339789   4.961   2.898   6.687  1.9747 -0.1819  1.5148
   54MOL   H46439790   4.873   3.044   6.428 -0.8819 -0.1357 -0.2477
   54MOL   H46539791   4.781   3.001   6.558  0.5659 -0.4010 -0.0151
   54MOL   H46639792   4.914   2.780   6.394  1.1213  1.0939  0.8154
   54MOL   H46739793   4.821   2.756   6.529  0.2387 -0.7685 -0.2676
   54MOL   H46839794   4.695   2.902   6.302 -1.5822  0.1622  0.7407
   54MOL   H46939795   4.609   2.836   6.439  2.5953 -1.8518  4.5920
   54MOL   H47039796   4.654   2.611   6.382 -2.4244  0.3155 -0.5214
   54MOL   H47139797   4.750   2.649   6.239  0.5717  2.3760  0.0878
   54MOL   H47239798   4.563   2.768   6.135  2.0418 -0.6048  0.5299
   54MOL   H47339799   4.469   2.741   6.270 -1.5202  0.7513 -0.6671
   54MOL   H47439800   4.449   2.499   6.219  0.5504  0.7295  1.3330
   54MOL   H47539801   4.591   2.501   6.116 -0.2103  0.1246  0.2624
   54MOL   H47639802   4.491   2.623   5.945  1.8949  1.5148  2.5324
   54MOL   H47739803   4.343   2.660   6.025 -0.5545 -0.0387 -0.3896
   54MOL   H47839804   4.287   2.418   6.033  0.5529  1.4416  1.2444
   54MOL   H47939805   4.448   2.376   5.968 -0.1566 -0.5905  2.0543
   54MOL   H48039806   4.293   2.354   5.798  0.0241 -0.9125 -0.0055
   54MOL   H48139807   4.393   2.489   5.759 -1.3220  2.4473  0.1083
   54MOL   H48239808   4.101   2.463   5.836 -2.1072  3.0982  1.6731
   54MOL   C48339809   4.158   2.645   5.773 -0.5213 -0.2042 -0.1061
   54MOL   O48439810   4.248   2.731   5.767 -0.1075  0.0291 -0.4196
   54MOL   C48539811   4.010   2.678   5.740  0.3721  0.8744  0.2087
   54MOL   C48639812   3.974   2.830   5.730  0.1825  0.2097  0.1034
   54MOL   C48739813   4.036   2.908   5.615  0.8089  0.1317  0.0893
   54MOL   C48839814   3.975   2.867   5.478 -0.4108  0.1541  0.2104
   54MOL   C48939815   4.064   2.927   5.366  0.3846 -0.0492  0.1264
   54MOL   C49039816   4.185   2.848   5.334 -0.6118  0.3344  0.2067
   54MOL   C49139817   4.266   2.903   5.218 -1.0018 -0.0503  0.2551
   54MOL   C49239818   4.414   2.854   5.225  0.9540  0.1836  0.0991
   54MOL   C49339819   4.505   2.871   5.103  0.6028  0.7589 -0.9867
   54MOL   C49439820   4.468   2.755   5.004  0.1437 -0.5170 -0.2382
   54MOL   C49539821   4.550   2.762   4.877  0.0155 -1.2052 -0.3720
   54MOL   N49639822   4.490   2.678   4.777 -0.0874  0.5227 -0.3695
   54MOL   H49739823   3.942   2.631   5.811  2.7171  1.1507  2.7207
   54MOL   H49839824   3.982   2.620   5.652 -0.1058 -1.4819  1.8706
   54MOL   H49939825   3.865   2.832   5.725  0.1548 -3.4381 -2.5832
   54MOL   H50039826   3.987   2.870   5.831 -0.0855 -0.2820  0.3347
   54MOL   H50139827   4.145   2.909   5.623  0.8657 -1.0298 -0.4738
   54MOL   H50239828   4.008   3.010   5.643 -1.2943 -0.5019  0.3546
   54MOL   H50339829   3.959   2.759   5.477  1.3259 -0.1193 -0.6708
   54MOL   H50439830   3.880   2.910   5.445 -0.7831 -0.8522 -0.0482
   54MOL   H50539831   4.089   3.031   5.386 -1.6656  1.0344 -2.6140
   54MOL   H50639832   4.000   2.937   5.279 -1.6056  0.4999  1.6076
   54MOL   H50739833   4.160   2.745   5.308  0.1181  0.5189 -1.2944
   54MOL   H50839834   4.259   2.841   5.413  0.6668  2.2727 -0.7717
   54MOL   H50939835   4.277   3.011   5.217 -0.0549 -0.1432  0.3036
   54MOL   H51039836   4.213   2.867   5.130 -1.6047  1.1232  0.1318
   54MOL   H51139837   4.418   2.746   5.244 -0.3767 -0.3215 -2.2802
   54MOL   H51239838   4.464   2.905   5.308  2.0998  1.2003 -1.1965
   54MOL   H51339839   4.609   2.853   5.128  0.4708 -0.7277 -1.3964
   54MOL   H51439840   4.493   2.969   5.058 -1.1540  0.9113 -0.2269
   54MOL   H51539841   4.362   2.748   4.979 -0.1692  1.2052  0.5515
   54MOL   H51639842   4.480   2.653   5.040  0.7927 -0.1596  0.5729
   54MOL   H51739843   4.655   2.747   4.906 -0.0432 -0.7580  0.0874
   54MOL   H51839844   4.550   2.861   4.832  1.6176  0.0329  2.1962
   54MOL   H51939845   4.413   2.711   4.720  2.2292  1.3169 -3.1266
   54MOL   C52039846   4.503   2.548   4.773 -0.2093  0.5551  0.0932
   54MOL   O52139847   4.598   2.489   4.828  0.1814 -0.3117  0.9126
   54MOL   C52239848   4.389   2.469   4.712  0.2342 -0.3254  0.4995
   54MOL   C52339849   4.342   2.357   4.805 -0.1229 -0.4815 -0.0203
   54MOL   C52439850   4.283   2.414   4.931 -0.7926 -0.8264 -0.4842
   54MOL   C52539851   4.148   2.483   4.905  0.7069  0.4972  0.2224
   54MOL   C52639852   4.093   2.574   5.017 -1.1287 -0.1493 -0.3316
   54MOL   C52739853   3.971   2.647   4.974  0.8265 -0.9493  0.9891
   54MOL   C52839854   3.906   2.715   5.096 -0.0385  0.2266 -0.3192
   54MOL   C52939855   3.756   2.765   5.090  0.0718  0.5863 -1.2063
   54MOL   C53039856   3.730   2.884   4.992 -0.5105 -0.3767 -0.4018
   54MOL   C53139857   3.640   2.841   4.884  0.6498 -0.0884 -0.4541
   54MOL   C53239858   3.626   2.952   4.773  0.2894 -0.7187  0.4925
   54MOL   N53339859   3.574   2.897   4.648 -0.4999  1.0872 -0.1776
   54MOL   H53439860   4.432   2.422   4.624  1.5255 -2.1213  2.0402
   54MOL   H53539861   4.304   2.526   4.675 -0.1370  0.0084  1.8454
   54MOL   H53639862   4.273   2.291   4.752  1.1999 -0.2916 -2.0415
   54MOL   H53739863   4.431   2.299   4.830 -0.1266  0.5803  2.6042
   54MOL   H53839864   4.347   2.481   4.988 -0.0001 -1.6360 -0.4131
   54MOL   H53939865   4.260   2.332   4.999 -1.7735 -0.3335 -0.2128
   54MOL   H54039866   4.149   2.529   4.806 -1.5828 -0.9189 -0.5088
   54MOL   H54139867   4.077   2.403   4.883 -0.5621  1.1972  1.6467
   54MOL   H54239868   4.165   2.646   5.056 -0.4249 -0.4281 -1.1029
   54MOL   H54339869   4.081   2.503   5.100  0.9921  1.9012  1.8190
   54MOL   H54439870   3.892   2.584   4.934 -1.0552 -0.2572  3.4586
   54MOL   H54539871   3.992   2.717   4.893 -0.6164  1.7357  2.8681
   54MOL   H54639872   3.978   2.794   5.118 -0.2267  0.0645  0.8797
   54MOL   H54739873   3.913   2.640   5.175 -0.3351  0.6834  0.1373
   54MOL   H54839874   3.720   2.795   5.189 -0.2675 -1.4587 -0.6691
   54MOL   H54939875   3.697   2.677   5.065  1.8421 -1.0105  0.0677
   54MOL   H55039876   3.814   2.929   4.940 -0.6818  2.8821  2.0256
   54MOL   H55139877   3.693   2.971   5.046  0.1266 -0.2220 -0.2097
   54MOL   H55239878   3.545   2.813   4.930  0.0518 -0.3968 -1.8307
   54MOL   H55339879   3.692   2.757   4.839  3.0866  0.8822  0.5190
   54MOL   H55439880   3.717   3.011   4.761 -0.3111 -0.0116 -0.6771
   54MOL   H55539881   3.550   3.023   4.806 -0.9812 -1.4120 -0.8728
   54MOL   H55639882   3.475   2.902   4.628  0.0803  2.4076 -3.0206
   54MOL   C55739883   3.652   2.851   4.550  0.2883  0.0658  0.4686
   54MOL   O55839884   3.772   2.841   4.555  0.0485 -0.5111 -0.4701
   54MOL   C55939885   3.581   2.809   4.424  0.0508  0.4507 -0.4401
   54MOL   C56039886   3.656   2.844   4.295 -0.7635 -0.4483  0.0961
   54MOL   C56139887   3.683   2.998   4.273 -0.5748 -0.2706 -0.4770
   54MOL   C56239888   3.768   3.041   4.153  0.1299  0.2203  0.1791
   54MOL   C56339889   3.778   3.193   4.135  0.1843 -0.0544  0.0400
   54MOL   C56439890   3.805   3.279   4.262 -0.1188 -0.1056 -0.2791
   54MOL   C56539891   3.957   3.272   4.298  0.2345 -0.0111  0.1324
   54MOL   C56639892   4.004   3.340   4.427 -0.1771  0.0646 -0.5967
   54MOL   C56739893   4.155   3.333   4.459 -0.2575 -0.3255 -0.0517
   54MOL   C56839894   4.196   3.398   4.592  0.3237 -0.6773 -0.2087
   54MOL   C56939895   4.351   3.379   4.623  0.3880  0.0532  0.1199
   54MOL   N57039896   4.372   3.439   4.754  0.6353  0.5373  0.3963
   54MOL   H57139897   3.489   2.867   4.426  0.3849  1.0080 -1.1195
   54MOL   H57239898   3.555   2.704   4.432 -0.4397  0.7210  1.9889
   54MOL   H57339899   3.755   2.800   4.288 -0.4090  0.2961  0.3541
   54MOL   H57439900   3.596   2.807   4.211  2.1079 -0.9293 -1.8106
   54MOL   H57539901   3.742   3.038   4.356  1.4140  2.0515 -2.9388
   54MOL   H57639902   3.588   3.052   4.274 -0.6753 -0.4466  2.0379
   54MOL   H57739903   3.869   3.001   4.152  0.5983  1.2981  1.6930
   54MOL   H57839904   3.712   2.999   4.070 -0.8346  0.2092  0.8346
   54MOL   H57939905   3.696   3.234   4.076  0.5386  0.0821 -0.3640
   54MOL   H58039906   3.862   3.216   4.069 -0.5337  0.7123 -0.6237
   54MOL   H58139907   3.734   3.248   4.339  1.3274 -1.0764  0.6936
   54MOL   H58239908   3.778   3.384   4.249  0.6972 -0.4089 -5.8755
   54MOL   H58339909   4.010   3.327   4.220 -0.9298 -0.9748 -1.3705
   54MOL   H58439910   3.989   3.168   4.296  3.0676  0.8266 -0.2790
   54MOL   H58539911   3.948   3.301   4.513 -2.1022  1.1485 -1.3213
   54MOL   H58639912   3.973   3.444   4.421 -1.5421 -0.3797 -1.6264
   54MOL   H58739913   4.211   3.370   4.373 -0.9963  1.9167  0.4070
   54MOL   H58839914   4.181   3.227   4.458  0.3441 -0.1977  1.1769
   54MOL   H58939915   4.133   3.368   4.676 -1.8294 -1.4653 -2.0457
   54MOL   H59039916   4.188   3.506   4.584 -0.2008 -0.7023 -0.1001
   54MOL   H59139917   4.419   3.431   4.556  0.7766 -0.5070  0.0732
   54MOL   H59239918   4.371   3.272   4.621 -1.5004 -0.3766  2.1331
   54MOL   H59339919   4.315   3.518   4.780 -0.6167  0.2253 -1.3942
   54MOL   C59439920   4.470   3.394   4.839  0.5298  0.0333 -0.0947
   54MOL   O59539921   4.549   3.302   4.812  0.3037  0.2594 -0.3934
   54MOL   C59639922   4.484   3.469   4.961 -0.1245  0.5875 -0.1753
   54MOL   C59739923   4.568   3.401   5.077  0.4167 -0.1153  0.6835
   54MOL   C59839924   4.505   3.279   5.147 -0.6449  0.0726  0.2427
   54MOL   C59939925   4.583   3.242   5.273  0.0844 -0.6376  0.9970
   54MOL   C60039926   4.537   3.334   5.386 -0.3760 -0.0477  0.0980
   54MOL   C60139927   4.591   3.287   5.522  0.5539  0.1038 -0.2151
   54MOL   C60239928   4.567   3.388   5.634 -0.4141 -0.2132 -0.4059
   54MOL   C60339929   4.612   3.325   5.764 -0.5067  0.2244  0.3202
   54MOL   C60439930   4.614   3.426   5.874  0.1017  0.5626 -0.0162
   54MOL   C60539931   4.664   3.367   6.009 -0.7877 -0.5211 -0.1112
   54MOL   C60639932   4.800   3.290   5.995  0.7302 -0.8282 -0.9193
   54MOL   N60739933   4.899   3.375   5.936 -0.1925 -0.1549  0.2124
   54MOL   H60839934   4.382   3.478   4.997 -0.4375 -0.0969 -0.8881
   54MOL   H60939935   4.526   3.567   4.942  1.1756 -0.2079 -1.5086
   54MOL   H61039936   4.665   3.372   5.037  1.0168  1.5609  0.8916
   54MOL   H61139937   4.594   3.484   5.143  1.7950  0.5917 -0.7058
   54MOL   H61239938   4.525   3.201   5.073 -0.3565  1.0546 -0.7348
   54MOL   H61339939   4.397   3.277   5.163 -0.4979  0.4741  1.3029
   54MOL   H61439940   4.563   3.139   5.303 -0.7529 -0.2856  1.6447
   54MOL   H61539941   4.686   3.262   5.242 -0.6955  2.9938  0.5627
   54MOL   H61639942   4.428   3.331   5.389 -0.3045 -2.7161  1.4258
   54MOL   H61739943   4.561   3.439   5.372  1.8744 -0.2342  2.2939
   54MOL   H61839944   4.697   3.262   5.512  1.1082  1.3638  2.2026
   54MOL   H61939945   4.540   3.192   5.539 -2.9889  1.6613 -1.5523
   54MOL   H62039946   4.462   3.411   5.652 -0.3764 -0.0170 -0.4337
   54MOL   H62139947   4.622   3.481   5.626  0.1921 -0.6038 -0.7780
   54MOL   H62239948   4.713   3.285   5.752 -0.7564 -0.2598 -0.1917
   54MOL   H62339949   4.548   3.242   5.793 -2.3855  0.7406 -2.1574
   54MOL   H62439950   4.513   3.459   5.896 -0.3444 -0.9889  0.2957
   54MOL   H62539951   4.678   3.512   5.853 -1.4658  1.5752 -0.7461
   54MOL   H62639952   4.589   3.303   6.056  0.1995 -0.9070  0.9818
   54MOL   H62739953   4.677   3.452   6.076  0.9679 -0.7571 -0.1405
   54MOL   H62839954   4.772   3.196   5.948 -3.4598 -0.1730  0.0500
   54MOL   H62939955   4.842   3.271   6.093  1.0807  0.7875 -0.7455
   54MOL   H63039956   4.923   3.362   5.839  0.0632  0.3301  0.2101
   54MOL   C63139957   4.950   3.489   5.990  0.3413 -0.1280 -0.2831
   54MOL   O63239958   4.933   3.527   6.107 -0.0341  0.0635 -0.4603
   54MOL   C63339959   5.031   3.565   5.894 -0.4254 -0.3169  0.0578
   54MOL   C63439960   4.938   3.642   5.797 -0.6769 -1.1349 -0.3162
   54MOL   C63539961   4.858   3.763   5.860 -0.0542  0.1343  0.9435
   54MOL   C63639962   4.759   3.814   5.758 -0.7106  0.1862  0.1650
   54MOL   C63739963   4.662   3.922   5.816 -0.1291  0.6281 -0.7079
   54MOL   C63839964   4.540   3.952   5.728  0.3874 -0.6961  0.3940
   54MOL   C63939965   4.444   4.061   5.803 -0.0470 -0.1405 -0.1549
   54MOL   C64039966   4.314   4.089   5.727  0.1077 -0.3047 -0.3079
   54MOL   C64139967   4.223   4.199   5.779  0.2606  0.0188 -0.4449
   54MOL   C64239968   4.182   4.172   5.927 -0.3550 -0.6996 -0.5417
   54MOL   C64339969   4.077   4.263   5.993  0.1593  0.4183  0.5931
   54MOL   N64439970   4.103   4.396   5.957  0.0670 -0.8387  0.1880
   54MOL   H64539971   5.098   3.506   5.832  1.6789  0.6790  1.3546
   54MOL   H64639972   5.103   3.620   5.954  1.4203 -1.1071 -1.3659
   54MOL   H64739973   4.986   3.675   5.705  0.6537  1.0769  1.1009
   54MOL   H64839974   4.864   3.567   5.771 -1.4572 -1.3063  2.2871
   54MOL   H64939975   4.918   3.847   5.895  1.4595 -0.0082 -1.1474
   54MOL   H65039976   4.801   3.723   5.943  0.6440 -0.5153  1.1180
   54MOL   H65139977   4.812   3.859   5.674 -0.1252  1.9381  1.4505
   54MOL   H65239978   4.703   3.727   5.724  0.6638 -0.4462 -0.5308
   54MOL   H65339979   4.712   4.016   5.838 -0.0321  0.7405 -1.4225
   54MOL   H65439980   4.627   3.885   5.913 -2.1944 -0.5667 -1.8555
   54MOL   H65539981   4.482   3.866   5.696  1.4878 -0.1572 -3.2404
   54MOL   H65639982   4.563   3.993   5.630 -1.1823 -2.0335 -0.5544
   54MOL   H65739983   4.501   4.153   5.819  0.4376 -0.6233  0.9486
   54MOL   H65839984   4.416   4.014   5.897  0.1368  1.4740  0.7154
   54MOL   H65939985   4.256   3.998   5.714  0.4793 -0.4374 -1.0710
   54MOL   H66039986   4.343   4.111   5.624 -0.7802  2.6874  0.0386
   54MOL   H66139987   4.135   4.208   5.716  0.5654 -0.9549 -1.0188
   54MOL   H66239988   4.273   4.295   5.769 -0.2756  0.5830  1.8685
   54MOL   H66339989   4.278   4.181   5.979 -1.0273  1.1852  0.3931
   54MOL   H66439990   4.150   4.068   5.938 -0.1761 -0.7802 -0.7530
   54MOL   H66539991   4.082   4.245   6.100 -1.2875  0.0547  0.6035
   54MOL   H66639992   3.981   4.232   5.952  0.6323 -0.6725  0.3007
   54MOL   H66739993   4.091   4.413   5.858  2.0180  0.3219  0.1163
   54MOL   C66839994   4.149   4.492   6.038 -0.1437  0.3986  0.7155
   54MOL   O66939995   4.188   4.460   6.148 -0.1005  0.0313 -0.6073
   54MOL   C67039996   4.158   4.631   5.991 -0.2095 -0.6403  0.4577
   54MOL   C67139997   4.197   4.735   6.101  0.6697 -0.4861 -0.2274
   54MOL   C67239998   4.182   4.885   6.069  0.1765  0.0874 -0.0855
   54MOL   C67339999   4.038   4.934   6.105 -0.1003  0.5181 -0.7877
   54MOL   C67440000   4.024   5.092   6.074 -0.2779 -0.2489 -0.2486
   54MOL   C67540001   3.891   5.143   6.122 -0.2106 -0.4263 -0.2122
   54MOL   C67640002   3.860   5.286   6.081  0.3521  0.6119  0.6203
   54MOL   C67740003   3.722   5.328   6.146  0.1767  0.4638 -0.0893
   54MOL   C67840004   3.673   5.466   6.103 -0.3521  0.3196 -0.7093
   54MOL   C67940005   3.534   5.513   6.163  0.0174  0.1604  0.1575
   54MOL   C68040006   3.505   5.665   6.123 -0.2135  0.9265 -0.0853
   54MOL   N68140007   3.605   5.760   6.156 -0.0867 -0.2529  0.4136
   54MOL   H68240008   4.055   4.665   5.980 -0.1532 -0.6751 -0.2079
   54MOL   H68340009   4.213   4.655   5.900 -0.4205  2.8159  1.1669
   54MOL   H68440010   4.150   4.712   6.197  3.8349  1.8588  1.9875
   54MOL   H68540011   4.304   4.730   6.118  0.5279 -1.5224  0.4332
   54MOL   H68640012   4.205   4.903   5.964  0.2878  1.5534  0.1721
   54MOL   H68740013   4.259   4.935   6.128 -0.1299  1.2479 -0.6488
   54MOL   H68840014   3.963   4.876   6.051  1.3649 -2.6657  0.4886
   54MOL   H68940015   4.025   4.909   6.210 -0.9831 -0.7385 -1.1889
   54MOL   H69040016   4.028   5.106   5.966 -1.9247 -2.8717 -0.6911
   54MOL   H69140017   4.116   5.136   6.113 -0.8299 -0.0260  0.8161
   54MOL   H69240018   3.885   5.137   6.231  0.2642  0.8673 -0.0996
   54MOL   H69340019   3.806   5.087   6.084 -1.5922  0.5473  1.3428
   54MOL   H69440020   3.862   5.295   5.973 -0.2298 -0.8487  0.4666
   54MOL   H69540021   3.940   5.352   6.112  2.0274 -0.6146 -1.0149
   54MOL   H69640022   3.729   5.324   6.255  0.2280 -2.0901 -0.1565
   54MOL   H69740023   3.645   5.256   6.119  2.2240 -1.0498 -2.1425
   54MOL   H69840024   3.658   5.454   5.995 -1.6309 -0.3200 -0.4611
   54MOL   H69940025   3.753   5.539   6.118  1.2861 -1.8424  1.4757
   54MOL   H70040026   3.527   5.489   6.269  0.6548  0.1143  0.1917
   54MOL   H70140027   3.468   5.441   6.116  2.3762 -1.4658 -0.7552
   54MOL   H70240028   3.422   5.683   6.191  1.1205  1.1034  1.5332
   54MOL   H70340029   3.482   5.682   6.018  2.8562 -0.7321 -1.0900
   54MOL   H70440030   3.699   5.726   6.137 -0.0273 -0.8833  1.8196
   54MOL   C70540031   3.580   5.887   6.203 -0.2462 -0.0529 -0.1960
   54MOL   O70640032   3.464   5.933   6.208 -0.0375  0.1308 -0.2874
   54MOL   C70740033   3.701   5.979   6.238  0.1504 -0.3177 -0.0060
   54MOL   C70840034   3.669   6.129   6.243 -0.1178 -0.5696  1.0706
   54MOL   C70940035   3.607   6.175   6.374  0.3680 -0.2140  0.0669
   54MOL   C71040036   3.577   6.324   6.359  0.5635  0.3259  0.5953
   54MOL   C71140037   3.516   6.390   6.480  0.3296  0.0502  0.0154
   54MOL   C71240038   3.472   6.537   6.458 -0.1760  0.2591  0.3807
   54MOL   C71340039   3.593   6.628   6.450  0.1913 -0.4863  0.8905
   54MOL   C71440040   3.560   6.774   6.405 -0.6494 -0.2003  0.0944
   54MOL   C71540041   3.685   6.859   6.383  0.2347  0.5445 -0.0637
   54MOL   C71640042   3.758   6.834   6.250  0.2650  0.2468  0.1893
   54MOL   C71740043   3.889   6.906   6.254 -1.1848 -0.4265 -0.1821
   54MOL   N71840044   3.881   7.048   6.273  1.0497  0.1651  0.0908
   54MOL   H71940045   3.784   5.966   6.168 -0.3802  0.6530 -0.8276
   54MOL   H72040046   3.754   5.961   6.332  1.2531  2.6176 -0.0279
   54MOL   H72140047   3.753   6.194   6.218 -0.2921 -0.1611  1.5371
   54MOL   H72240048   3.597   6.150   6.164  0.0253 -1.5572  0.6731
   54MOL   H72340049   3.668   6.159   6.462  0.1482 -1.7428 -0.0496
   54MOL   H72440050   3.518   6.117   6.397  0.3122 -0.0561  0.2462
   54MOL   H72540051   3.656   6.387   6.319  0.6902  1.3128  2.3573
   54MOL   H72640052   3.498   6.331   6.284  0.8197  0.6302  0.3563
   54MOL   H72740053   3.585   6.387   6.565 -0.8419 -0.3796  0.9672
   54MOL   H72840054   3.430   6.332   6.513 -0.3848 -1.2744 -3.9156
   54MOL   H72940055   3.397   6.570   6.530  0.3820  0.2370  0.9745
   54MOL   H73040056   3.421   6.549   6.362 -1.1807  1.9289  1.1067
   54MOL   H73140057   3.663   6.596   6.373 -0.8207  3.6003 -1.8857
   54MOL   H73240058   3.644   6.617   6.546  3.0225  2.1422 -0.2006
   54MOL   H73340059   3.491   6.822   6.475  0.5236  0.5796  0.7412
   54MOL   H73440060   3.505   6.765   6.312 -0.9313  1.0219  0.1395
   54MOL   H73540061   3.746   6.835   6.470  0.8955  1.4888 -0.2548
   54MOL   H73640062   3.652   6.962   6.390 -3.0780 -0.4662  0.0228
   54MOL   H73740063   3.709   6.868   6.159 -0.2097  0.2908  0.4620
   54MOL   H73840064   3.778   6.730   6.223  3.9197 -0.0258  3.5411
   54MOL   H73940065   3.931   6.891   6.154  0.9874  1.8858  0.3455
   54MOL   H74040066   3.964   6.882   6.330  1.8910  3.4664 -1.7816
   54MOL   H74140067   3.787   7.063   6.305  0.9922 -0.6950  0.3315
   54MOL   H74240068   3.876   7.078   6.176  0.7507 -0.2128 -0.0116
   55MOL     C140069   6.868   7.340   2.426 -0.5570  0.0526  0.0685
   55MOL     O240070   6.976   7.339   2.478  0.2407  0.1678  0.0911
   55MOL     C340071   6.843   7.322   2.275  0.7520 -0.3010  0.3923
   55MOL     C440072   6.966   7.319   2.176  0.0163  0.0019 -0.7719
   55MOL     C540073   7.050   7.190   2.191 -0.4385 -0.7089 -0.0083
   55MOL     C640074   7.185   7.194   2.114  0.6179 -0.1530 -0.6658
   55MOL     C740075   7.264   7.064   2.138 -0.4201 -0.2156 -0.4888
   55MOL     C840076   7.221   6.938   2.063  0.6946 -0.4953 -0.4060
   55MOL     C940077   7.327   6.819   2.077 -0.0949  0.1585 -0.0606
   55MOL    C1040078   7.299   6.707   1.971  0.0878 -0.0196 -0.4509
   55MOL    C1140079   7.213   6.595   2.022  0.2958  0.3984 -0.0733
   55MOL    C1240080   7.269   6.508   2.133 -0.6428  0.8609  0.7336
   55MOL    C1340081   7.173   6.397   2.170 -0.4442  0.2652  0.2657
   55MOL    N1440082   7.167   6.306   2.065  0.3878  0.9564 -0.0372
   55MOL    H1540083   6.775   7.395   2.230 -0.5552 -2.4988 -1.3006
   55MOL    H1640084   6.783   7.232   2.262 -1.8685  1.1837  1.6850
   55MOL    H1740085   6.931   7.329   2.073  0.4833 -0.1757 -0.9472
   55MOL    H1840086   7.028   7.404   2.203 -2.4541  1.3521  0.8739
   55MOL    H1940087   6.997   7.100   2.161 -1.2812 -0.9245  2.0372
   55MOL    H2040088   7.085   7.171   2.293 -0.9636 -0.5110  0.2156
   55MOL    H2140089   7.174   7.216   2.008 -1.7980 -0.3212 -0.4850
   55MOL    H2240090   7.253   7.276   2.135 -0.7530  0.7312  0.4939
   55MOL    H2340091   7.283   7.049   2.245 -2.2855  1.5767  0.1288
   55MOL    H2440092   7.365   7.080   2.099  0.3626 -1.2409  1.0596
   55MOL    H2540093   7.203   6.979   1.964  1.4168 -0.0948 -0.3740
   55MOL    H2640094   7.125   6.900   2.097  0.5579 -2.2975 -2.7000
   55MOL    H2740095   7.327   6.776   2.177  0.3462 -0.5097 -0.3462
   55MOL    H2840096   7.427   6.859   2.058  0.2506  0.1798  1.7565
   55MOL    H2940097   7.392   6.658   1.940  1.2401  0.8830  1.4918
   55MOL    H3040098   7.254   6.753   1.883 -0.9340  2.1052  1.1388
   55MOL    H3140099   7.179   6.526   1.944 -2.2105 -0.8911  2.0798
   55MOL    H3240100   7.121   6.642   2.057 -0.0775 -0.4485  0.0953
   55MOL    H3340101   7.289   6.570   2.221 -1.6346 -0.1583  1.6888
   55MOL    H3440102   7.365   6.476   2.092 -1.6420  0.1621 -1.0892
   55MOL    H3540103   7.074   6.444   2.173 -0.8775 -0.6319  0.0522
   55MOL    H3640104   7.211   6.363   2.266 -0.0717 -0.4266 -0.1342
   55MOL    H3740105   7.249   6.303   2.007 -0.3951  0.5568 -1.1283
   55MOL    H3840106   6.776   7.350   2.483 -0.5834  0.0423  0.0274
   55MOL    C3940107   7.076   6.207   2.051  0.1198 -0.8111 -0.0206
   55MOL    O4040108   6.976   6.201   2.125  0.0897  0.1989 -0.1010
   55MOL    C4140109   7.109   6.102   1.945  0.2853 -0.2737 -0.4596
   55MOL    C4240110   7.023   6.103   1.827  0.0148 -0.0141 -0.3345
   55MOL    C4340111   7.035   6.231   1.741  0.7340 -0.0375  0.3292
   55MOL    C4440112   7.151   6.233   1.636 -0.8400  0.0832  0.0712
   55MOL    C4540113   7.148   6.333   1.520  0.2810  0.0783 -0.5715
   55MOL    C4640114   7.282   6.350   1.450  0.0984  0.7737 -0.4905
   55MOL    C4740115   7.319   6.241   1.352 -0.4519 -0.7511  0.0581
   55MOL    C4840116   7.440   6.271   1.269 -0.1862 -1.0114 -0.5128
   55MOL    C4940117   7.470   6.162   1.166  0.4017  0.1045 -0.3185
   55MOL    C5040118   7.572   6.182   1.057 -1.4056 -0.5095 -0.2427
   55MOL    C5140119   7.618   6.058   0.982  0.3783  0.1671 -0.1166
   55MOL    N5240120   0.017   6.096   0.882  0.6616  0.6123 -0.3318
   55MOL    H5340121   7.104   6.009   2.002  0.4158 -1.1189 -1.7999
   55MOL    H5440122   7.216   6.120   1.933  0.6110 -0.5390  1.8425
   55MOL    H5540123   7.050   6.010   1.777 -1.3623 -0.9965  0.7027
   55MOL    H5640124   6.919   6.091   1.858  0.8479  1.4893  3.3349
   55MOL    H5740125   7.008   6.318   1.800 -1.8258  0.3743 -1.3367
   55MOL    H5840126   6.946   6.233   1.678  2.3658  1.2445 -2.0231
   55MOL    H5940127   7.249   6.241   1.683 -1.7173 -1.7150  2.3477
   55MOL    H6040128   7.159   6.144   1.574  2.6966  2.9063 -3.7901
   55MOL    H6140129   7.125   6.429   1.565 -0.4904 -0.9264  1.2419
   55MOL    H6240130   7.074   6.307   1.444 -0.8505 -0.1411  0.5776
   55MOL    H6340131   7.355   6.343   1.531  0.7916 -0.9282 -1.2492
   55MOL    H6440132   7.301   6.445   1.400  0.1440  1.4223  0.7266
   55MOL    H6540133   7.230   6.232   1.290  1.0673  0.2634 -2.3257
   55MOL    H6640134   7.335   6.144   1.399  0.9396 -0.4570  0.2302
   55MOL    H6740135   7.524   6.310   1.326 -0.1669 -1.6297 -0.1158
   55MOL    H6840136   7.426   6.350   1.196 -1.7695  0.5225  1.4023
   55MOL    H6940137   7.374   6.139   1.120  0.4933 -2.7469  0.8073
   55MOL    H7040138   7.497   6.070   1.218 -0.2482 -0.2835 -0.6602
   55MOL    H7140139   7.658   6.228   1.106 -1.7598  0.6548 -0.6762
   55MOL    H7240140   7.540   6.268   0.997 -1.8716 -0.8378 -0.4685
   55MOL    H7340141   7.530   6.002   0.949  0.4623  0.7217 -1.3329
   55MOL    H7440142   7.681   5.995   1.043  0.0152 -0.8736 -0.8015
   55MOL    H7540143   0.077   6.170   0.917  1.1228  0.5536 -0.9825
   55MOL    C7640144   0.023   6.057   0.755 -0.1702 -0.0137 -0.0113
   55MOL    O7740145   7.655   5.965   0.701  0.0428  0.4777 -0.1240
   55MOL    C7840146   0.123   6.134   0.669  0.6467  0.6455 -0.0980
   55MOL    C7940147   0.183   6.033   0.564  0.3499 -0.2531  0.5506
   55MOL    C8040148   0.258   5.920   0.624 -0.2156  0.4002  0.3220
   55MOL    C8140149   0.237   5.795   0.554 -0.3773 -0.1887  0.0293
   55MOL    C8240150   0.339   5.675   0.571  0.0100  0.5687  0.1652
   55MOL    C8340151   0.339   5.562   0.464  0.7794  0.1843  0.5155
   55MOL    C8440152   0.200   5.523   0.426 -0.0679 -0.2683 -0.0262
   55MOL    C8540153   0.142   5.429   0.523  0.0061  0.1898 -0.2481
   55MOL    C8640154   0.021   5.348   0.469 -0.2369 -0.7796  0.1824
   55MOL    C8740155   7.645   5.272   0.579 -0.2305  0.2405  0.4849
   55MOL    C8840156   7.537   5.164   0.531 -0.1348 -0.1218  0.7492
   55MOL    N8940157   7.429   5.232   0.468 -0.2677 -0.8372 -0.4853
   55MOL    H9040158   0.200   6.176   0.733  1.3418  0.4935 -0.8181
   55MOL    H9140159   0.078   6.215   0.611  0.7470 -0.7153 -2.1502
   55MOL    H9240160   0.110   5.995   0.493  0.6357  0.9398 -0.3851
   55MOL    H9340161   0.253   6.092   0.505  2.0070 -3.7454 -1.1259
   55MOL    H9440162   0.230   5.902   0.728 -1.5459 -3.1789 -0.5940
   55MOL    H9540163   0.363   5.949   0.620 -0.8224  2.4550 -2.0693
   55MOL    H9640164   0.137   5.754   0.566 -0.0213 -2.2899 -3.4370
   55MOL    H9740165   0.236   5.813   0.446 -0.3709 -0.0672  0.0489
   55MOL    H9840166   0.328   5.625   0.667 -0.2737 -0.6600 -0.4937
   55MOL    H9940167   0.437   5.723   0.572  0.3766 -0.1807  1.0701
   55MOL   H10040168   0.401   5.478   0.494  0.5743 -0.2758 -0.3259
   55MOL   H10140169   0.378   5.592   0.366 -1.9228  1.6880 -0.1324
   55MOL   H10240170   0.217   5.467   0.334 -0.9977 -0.8979  0.1797
   55MOL   H10340171   0.128   5.602   0.406 -2.0597 -1.8049  0.9212
   55MOL   H10440172   0.093   5.480   0.606  1.1075  0.9632 -0.0572
   55MOL   H10540173   0.217   5.356   0.553 -1.5017 -1.7166 -1.0312
   55MOL   H10640174   0.044   5.282   0.386  0.1571 -2.4801  1.6057
   55MOL   H10740175   7.642   5.414   0.423  0.7582 -2.4890 -4.0504
   55MOL   H10840176   7.601   5.347   0.645  1.7971  1.6781  0.2755
   55MOL   H10940177   0.019   5.214   0.642 -0.8325 -1.9724 -0.8803
   55MOL   H11040178   7.500   5.106   0.616 -0.3456 -2.0877 -0.6680
   55MOL   H11140179   7.582   5.096   0.459  0.1136  1.9678 -1.1145
   55MOL   H11240180   7.404   5.322   0.506  0.7511 -1.9588  3.1379
   55MOL   C11340181   7.372   5.193   0.360 -0.8056 -0.8397  0.2266
   55MOL   O11440182   7.388   5.085   0.305 -0.4318 -0.4705 -0.1683
   55MOL   C11540183   7.274   5.291   0.297  0.3877  0.3168 -0.5286
   55MOL   C11640184   7.154   5.229   0.219 -0.3960  0.3117  1.0472
   55MOL   C11740185   7.045   5.146   0.297 -0.4857  1.0516  0.0216
   55MOL   C11840186   6.920   5.132   0.206  0.3146  0.0355  0.5661
   55MOL   C11940187   6.800   5.076   0.273  0.2975  0.3246 -0.0753
   55MOL   C12040188   6.738   5.181   0.366  0.5121  0.0265 -0.3512
   55MOL   C12140189   6.596   5.158   0.427 -0.2307 -0.0469  0.5696
   55MOL   C12240190   6.472   5.157   0.334 -0.1786  0.2769  0.5278
   55MOL   C12340191   6.345   5.126   0.423 -0.0342 -0.6483 -0.0702
   55MOL   C12440192   6.219   5.150   0.334  0.0692 -0.5348 -0.2408
   55MOL   C12540193   6.108   5.163   0.433 -0.2377  0.2693 -0.8435
   55MOL   N12640194   5.985   5.164   0.363 -0.2072  0.9485 -0.0405
   55MOL   H12740195   7.333   5.353   0.230 -1.0111 -0.4233 -2.5092
   55MOL   H12840196   7.238   5.358   0.375  0.1191  0.6681 -0.9538
   55MOL   H12940197   7.105   5.308   0.162  0.8411 -1.3735 -2.4632
   55MOL   H13040198   7.187   5.169   0.135 -3.1260 -3.8436  2.8016
   55MOL   H13140199   7.000   5.191   0.385 -2.3283  1.0262 -0.8884
   55MOL   H13240200   7.079   5.045   0.323 -0.8092  0.3209 -2.2436
   55MOL   H13340201   6.895   5.231   0.168  0.3670 -0.1954 -0.0877
   55MOL   H13440202   6.947   5.075   0.117 -1.9120 -0.8805  0.4454
   55MOL   H13540203   6.831   4.985   0.326  0.4615 -0.7896 -2.0285
   55MOL   H13640204   6.727   5.047   0.197  1.4803 -1.3353 -0.6261
   55MOL   H13740205   6.727   5.271   0.305 -0.7091 -0.1311 -0.3569
   55MOL   H13840206   6.804   5.211   0.448 -1.3028  0.9123  0.8034
   55MOL   H13940207   6.582   5.231   0.507 -0.2482  1.9853 -1.2126
   55MOL   H14040208   6.601   5.057   0.467 -1.3107 -1.0647 -1.7462
   55MOL   H14140209   6.486   5.073   0.265 -3.3520  0.0930  0.0388
   55MOL   H14240210   6.460   5.248   0.276  0.2288 -1.1116 -1.7834
   55MOL   H14340211   6.346   5.201   0.501 -3.0035 -1.6852  1.0290
   55MOL   H14440212   6.358   5.031   0.474 -0.9469 -1.4004 -1.2154
   55MOL   H14540213   6.198   5.065   0.271  1.0031 -0.6766 -0.3758
   55MOL   H14640214   6.223   5.246   0.282 -0.8152  0.5055  1.5490
   55MOL   H14740215   6.124   5.253   0.492  3.6426 -0.4491 -0.6021
   55MOL   H14840216   6.104   5.076   0.499  1.3151  0.8327  0.0278
   55MOL   H14940217   5.990   5.192   0.266 -1.3175  2.2620  0.2518
   55MOL   C15040218   5.856   5.170   0.419 -0.0339  0.2193  0.3166
   55MOL   O15140219   5.847   5.149   0.538  0.3557  0.0294 -0.3998
   55MOL   C15240220   5.738   5.216   0.330  0.6338  0.0769 -0.1041
   55MOL   C15340221   5.613   5.261   0.411 -0.4978  0.6917  0.1305
   55MOL   C15440222   5.501   5.321   0.320 -0.3411  0.3953  0.2523
   55MOL   C15540223   5.398   5.211   0.304 -0.9403  0.2272  0.3893
   55MOL   C15640224   5.278   5.245   0.222  0.2715 -0.5932  0.3772
   55MOL   C15740225   5.310   5.311   0.086 -0.7918 -0.4077 -0.2582
   55MOL   C15840226   5.394   5.233   7.679  0.4451 -0.1710 -0.1083
   55MOL   C15940227   5.441   5.321   7.568 -0.4938 -0.6079 -0.3947
   55MOL   C16040228   5.576   5.390   7.591  0.0059  0.2546 -0.0165
   55MOL   C16140229   5.696   5.302   7.569 -0.4136  0.3010 -0.2672
   55MOL   C16240230   5.824   5.369   7.612  0.2034 -0.3011 -0.3782
   55MOL   N16340231   5.939   5.280   7.591 -0.4255 -0.4365  0.5567
   55MOL   H16440232   5.711   5.133   0.265  1.7352 -2.1100  2.1346
   55MOL   H16540233   5.776   5.305   0.278 -1.0229 -0.6928 -2.7442
   55MOL   H16640234   5.588   5.167   0.461 -0.1288  0.2203 -0.5551
   55MOL   H16740235   5.638   5.332   0.489  0.7997 -0.5604  0.8902
   55MOL   H16840236   5.548   5.348   0.225  1.6028 -0.9577  0.7795
   55MOL   H16940237   5.453   5.404   0.372  0.5549  0.2168  1.4097
   55MOL   H17040238   5.447   5.134   0.245  0.4004  2.6172 -1.6949
   55MOL   H17140239   5.367   5.170   0.401 -0.8263 -0.1215  0.2798
   55MOL   H17240240   5.221   5.316   0.283  0.4159 -0.3318  0.2085
   55MOL   H17340241   5.210   5.161   0.207 -1.3774  0.8812 -0.6943
   55MOL   H17440242   5.367   5.404   0.101 -0.5330 -0.5644 -0.2614
   55MOL   H17540243   5.217   5.334   0.035 -0.7994 -0.4060 -0.2436
   55MOL   H17640244   5.324   5.156   7.648 -1.6862  2.2276 -1.3727
   55MOL   H17740245   5.477   5.181   0.035  0.8670 -0.0103 -0.6414
   55MOL   H17840246   5.362   5.394   7.552 -1.2626 -0.6236  2.8172
   55MOL   H17940247   5.435   5.258   7.480 -2.3669 -2.9745  1.3466
   55MOL   H18040248   5.576   5.436   7.690  0.2715  0.4273 -0.0945
   55MOL   H18140249   5.575   5.473   7.520  0.1466 -0.6233 -1.0517
   55MOL   H18240250   5.701   5.259   7.469 -1.0583 -0.3083 -0.0471
   55MOL   H18340251   5.682   5.216   7.635  0.9956 -2.2479 -3.2039
   55MOL   H18440252   5.813   5.412   0.018 -0.2445 -2.3110  0.4578
   55MOL   H18540253   5.827   5.449   7.537  0.8316 -1.6766 -1.8541
   55MOL   H18640254   5.956   5.252   7.495 -0.3872 -0.3867  0.5491
   55MOL   C18740255   6.035   5.241   7.678  0.5729 -0.1830 -0.3818
   55MOL   O18840256   6.037   5.259   0.103 -0.1059  0.3806 -0.6310
   55MOL   C18940257   6.150   5.168   7.608  0.3988  0.1101 -0.2109
   55MOL   C19040258   6.283   5.250   7.642  0.3448 -0.4725 -0.4339
   55MOL   C19140259   6.403   5.185   7.577  0.5621  0.7789 -0.2709
   55MOL   C19240260   6.539   5.240   7.612 -0.2056  0.0519 -0.4089
   55MOL   C19340261   6.642   5.198   7.500 -0.2862 -0.5082 -0.4995
   55MOL   C19440262   6.794   5.222   7.529  0.0060 -0.3127 -0.0668
   55MOL   C19540263   6.836   5.367   7.501  0.1828  0.2656 -0.0819
   55MOL   C19640264   6.987   5.389   7.531  0.0404  0.4563 -0.1227
   55MOL   C19740265   7.025   5.542   7.523 -0.0380 -0.8741 -0.6568
   55MOL   C19840266   7.070   5.576   7.380  0.0666 -0.3980  0.1218
   55MOL   C19940267   7.088   5.727   7.359  0.7639 -0.2127 -0.5384
   55MOL   N20040268   7.181   5.793   7.452  0.2831 -0.6178  0.2873
   55MOL   H20140269   6.149   5.168   7.499 -1.1833  0.3718 -0.2066
   55MOL   H20240270   6.166   5.063   7.632  2.2338  0.5832  0.7803
   55MOL   H20340271   6.283   5.352   7.604  1.4896 -0.9456 -1.7324
   55MOL   H20440272   6.303   5.259   0.055 -1.9914 -2.4587  0.2210
   55MOL   H20540273   6.385   5.196   7.470 -1.5674 -1.5704 -0.2017
   55MOL   H20640274   6.402   5.078   7.597 -0.3091  0.3238 -2.5699
   55MOL   H20740275   6.529   5.349   7.616  0.3604  0.1484 -1.3901
   55MOL   H20840276   6.572   5.198   0.013  1.3503  1.6457 -0.2085
   55MOL   H20940277   6.606   5.241   7.407 -3.2773  0.6860  1.1387
   55MOL   H21040278   6.624   5.092   7.480 -2.4549 -0.4686  1.0928
   55MOL   H21140279   6.851   5.161   7.459 -0.2308 -0.2060 -0.3494
   55MOL   H21240280   6.812   5.200   7.635  0.5962 -2.2567 -0.5582
   55MOL   H21340281   6.771   5.432   7.559 -1.0320 -0.5753 -0.4746
   55MOL   H21440282   6.814   5.391   7.397  1.8429  0.5491 -0.3902
   55MOL   H21540283   7.053   5.330   7.467 -2.1024 -2.5947  0.3730
   55MOL   H21640284   7.008   5.358   7.634  1.1920  0.2895 -0.3927
   55MOL   H21740285   7.101   5.566   7.597 -2.0619 -1.2480  1.6042
   55MOL   H21840286   6.938   5.605   7.538  1.5592  1.6870 -1.8445
   55MOL   H21940287   6.997   5.547   7.304  0.1705  0.4267 -0.2981
   55MOL   H22040288   7.165   5.527   7.359  0.5353  0.9291 -0.9242
   55MOL   H22140289   6.990   5.772   7.374  0.7157 -1.1628  2.3577
   55MOL   H22240290   7.109   5.749   7.254  2.1334  1.8889  0.1442
   55MOL   H22340291   7.240   5.728   7.501  1.5782 -0.1933 -0.6662
   55MOL   C22440292   7.213   5.923   7.458 -0.9669 -0.1116 -0.0903
   55MOL   O22540293   7.149   6.009   7.401  0.1516 -0.2401  0.1195
   55MOL   C22640294   7.336   5.949   7.539 -0.4262 -0.3717  0.1321
   55MOL   C22740295   7.429   6.053   7.482  0.7772 -0.1397  0.7828
   55MOL   C22840296   7.404   6.193   7.542  0.5003 -0.1173  0.0422
   55MOL   C22940297   7.494   6.302   7.484  0.3165  0.6797  0.5713
   55MOL   C23040298   7.483   6.430   7.559 -0.1190 -0.2197  0.5115
   55MOL   C23140299   7.563   6.537   7.490 -0.1725  0.6797  0.1647
   55MOL   C23240300   7.511   6.600   7.363 -0.0124 -0.4037  0.0388
   55MOL   C23340301   7.575   6.737   7.330  1.2327 -0.4217  0.6228
   55MOL   C23440302   7.498   6.825   7.230  0.5644 -0.4394 -0.0278
   55MOL   C23540303   7.471   6.778   7.087  0.2088  0.2247  0.3272
   55MOL   C23640304   7.371   6.864   7.014 -0.0427 -0.0234  0.6803
   55MOL   N23740305   7.327   6.805   6.892 -0.0117  0.0077 -0.3803
   55MOL   H23840306   7.397   5.862   7.562  0.9134  0.0982 -1.5842
   55MOL   H23940307   7.299   5.994   7.632  0.4307  0.7512 -0.0576
   55MOL   H24040308   7.533   6.030   7.504  0.6385  1.1810  2.9941
   55MOL   H24140309   7.416   6.053   7.374 -1.1469 -0.4948  0.9884
   55MOL   H24240310   7.403   6.197   7.651 -0.1416  0.1925  0.0266
   55MOL   H24340311   7.298   6.219   7.541  0.4381  0.0102  3.5296
   55MOL   H24440312   7.596   6.263   7.483  0.5280  1.2422 -0.4349
   55MOL   H24540313   7.471   6.321   7.380  0.3144 -0.5812  0.3372
   55MOL   H24640314   7.532   6.414   7.655 -0.3465  0.2680  0.7081
   55MOL   H24740315   7.383   6.460   7.591 -1.2889 -0.6165 -2.5927
   55MOL   H24840316   7.664   6.504   7.469 -0.2660 -0.1308  0.9281
   55MOL   H24940317   7.572   6.615   7.565  1.3908  0.8105 -0.1614
   55MOL   H25040318   7.406   6.621   7.384  0.0673  1.3977 -1.2234
   55MOL   H25140319   7.518   6.544   7.269 -1.4640 -1.1998  0.3944
   55MOL   H25240320   7.671   6.715   7.283  0.0219 -0.9073 -1.7628
   55MOL   H25340321   7.607   6.796   7.415 -1.6491 -0.0317  1.4807
   55MOL   H25440322   7.534   6.927   7.232  0.0804 -0.1986 -2.5302
   55MOL   H25540323   7.394   6.822   7.265  0.3674 -0.1456 -0.5866
   55MOL   H25640324   7.432   6.677   7.092 -1.3585  0.7820 -0.3281
   55MOL   H25740325   7.561   6.774   7.025  0.3415  1.9466  0.3687
   55MOL   H25840326   7.407   6.960   6.977 -0.0665 -1.1502 -2.4765
   55MOL   H25940327   7.283   6.887   7.075 -0.0394 -1.7700  1.3837
   55MOL   H26040328   7.232   6.773   6.904  0.7597 -1.4316  2.1835
   55MOL   C26140329   7.386   6.825   6.774  0.0156 -0.5188  0.0215
   55MOL   O26240330   7.487   6.891   6.763 -0.1905 -0.3698 -0.0551
   55MOL   C26340331   7.314   6.761   6.648  1.2290  0.7744  0.2984
   55MOL   C26440332   7.378   6.634   6.590  0.0067 -0.5996 -0.1057
   55MOL   C26540333   7.479   6.658   6.466 -0.0740  0.2834  0.2328
   55MOL   C26640334   7.602   6.732   6.509  0.1620  0.3610 -0.4608
   55MOL   C26740335   0.021   6.721   6.402  0.1099  0.0449  0.0457
   55MOL   C26840336   0.145   6.805   6.430  0.0264  0.2693  0.0347
   55MOL   C26940337   0.243   6.796   6.310  0.2650 -0.8529 -0.2488
   55MOL   C27040338   0.342   6.916   6.301 -0.1238 -0.5213 -0.0595
   55MOL   C27140339   0.476   6.869   6.235 -0.0133  0.6415 -0.1463
   55MOL   C27240340   0.576   6.981   6.232  0.2393 -0.0887  0.4474
   55MOL   C27340341   0.712   6.948   6.172 -0.0712 -0.2711  0.9991
   55MOL   N27440342   0.694   6.942   6.027  0.6838 -0.5847 -0.0545
   55MOL   H27540343   7.315   6.837   6.570  2.2276  0.6206  0.1539
   55MOL   H27640344   7.211   6.753   6.684  0.5881 -2.6156 -1.9914
   55MOL   H27740345   7.436   6.579   6.664  1.2535  2.2499  1.1140
   55MOL   H27840346   7.290   6.575   6.563 -0.3814  0.8841 -2.2450
   55MOL   H27940347   7.425   6.713   6.389  0.8393 -0.6423 -1.1018
   55MOL   H28040348   7.496   6.559   6.423  0.2205  1.6811 -2.9542
   55MOL   H28140349   7.575   6.834   6.536 -0.9491  0.1752 -0.8496
   55MOL   H28240350   7.634   6.682   6.601  0.4119 -0.9935 -1.2720
   55MOL   H28340351   7.675   6.742   6.303  1.7637 -0.3381 -0.7077
   55MOL   H28440352   0.049   6.616   6.402  0.3457  0.1052 -0.3930
   55MOL   H28540353   0.200   6.773   6.518  1.2271  1.1776 -0.3545
   55MOL   H28640354   0.131   6.911   6.453 -0.2709  0.4114 -0.7773
   55MOL   H28740355   0.185   6.797   6.218  2.1812 -0.3894 -1.4807
   55MOL   H28840356   0.288   6.696   6.311  1.2009 -0.4370  0.0733
   55MOL   H28940357   0.364   6.937   6.406 -2.2258 -1.9342  0.7205
   55MOL   H29040358   0.291   7.003   6.260  0.6013  0.4430  1.0642
   55MOL   H29140359   0.463   6.833   6.133  2.2617 -0.9398  0.0926
   55MOL   H29240360   0.506   6.777   6.286  1.3511  1.0116 -0.2658
   55MOL   H29340361   0.591   6.999   6.339 -0.0969 -1.0257  0.6542
   55MOL   H29440362   0.536   7.080   6.210  1.1733 -0.0712 -1.1992
   55MOL   H29540363   0.742   6.847   6.202  0.8592 -0.7300 -1.3745
   55MOL   H29640364   0.784   7.024   6.202 -0.8051  1.3474 -1.2500
   55MOL   H29740365   0.683   6.854   5.979  0.7550 -1.8453  2.1876
   55MOL   C29840366   0.667   7.048   5.947  0.5851  0.1690 -0.2792
   55MOL   O29940367   0.658   7.163   5.991 -0.5894 -0.2751  0.0993
   55MOL   C30040368   0.624   7.017   5.799 -0.1070 -0.4470  0.3977
   55MOL   C30140369   0.480   6.969   5.791  0.0440 -0.1590  0.2310
   55MOL   C30240370   0.379   7.066   5.848 -0.1235 -0.3353 -0.2128
   55MOL   C30340371   0.261   7.006   5.921  0.4572 -0.1713  0.3548
   55MOL   C30440372   0.164   6.915   5.849  0.3524 -0.0674 -0.0831
   55MOL   C30540373   0.046   6.875   5.933 -0.6240  0.4901 -0.0424
   55MOL   C30640374   7.651   6.771   5.866 -0.3424  0.0417  0.1241
   55MOL   C30740375   7.572   6.817   5.746  0.3626  0.8108  0.5899
   55MOL   C30840376   7.445   6.737   5.727 -0.1934 -0.0137 -0.1369
   55MOL   C30940377   7.362   6.786   5.607 -0.5621  0.4704  0.0741
   55MOL   C31040378   7.248   6.689   5.572  0.2362 -0.2416 -0.0653
   55MOL   N31140379   7.186   6.735   5.451 -0.4373  0.1401  0.0355
   55MOL   H31240380   0.697   6.941   5.773 -0.2646 -0.1487 -0.9049
   55MOL   H31340381   0.642   7.105   5.738 -0.2446  0.4547  1.6226
   55MOL   H31440382   0.454   6.938   5.690  0.8026 -0.1016  0.0147
   55MOL   H31540383   0.465   6.875   5.845  0.4135  0.0729  0.7399
   55MOL   H31640384   0.341   7.137   5.774 -0.7508 -0.1342  0.2860
   55MOL   H31740385   0.423   7.134   5.921  1.7696 -0.6320 -1.0712
   55MOL   H31840386   0.306   6.944   5.999  0.6626 -1.3757 -0.7089
   55MOL   H31940387   0.199   7.080   5.972 -1.2910 -0.9829 -0.5699
   55MOL   H32040388   0.221   6.835   5.803  0.8105 -0.1766  0.6690
   55MOL   H32140389   0.133   6.976   5.764  0.3856  1.0822  0.7123
   55MOL   H32240390   7.677   6.958   5.963  2.2431  1.7237  2.8902
   55MOL   H32340391   0.080   6.845   6.033 -1.0798 -0.2170 -0.0921
   55MOL   H32440392   7.599   6.726   5.950 -1.7510  0.5236 -0.4789
   55MOL   H32540393   0.020   6.691   5.826  0.5820  0.9512 -0.2719
   55MOL   H32640394   7.634   6.815   5.656  0.3066  0.4229  0.5605
   55MOL   H32740395   7.540   6.921   5.754  0.9788  0.8466  2.7146
   55MOL   H32840396   7.391   6.740   5.822 -0.8518 -1.2606 -0.4609
   55MOL   H32940397   7.468   6.633   5.705 -0.9358  0.2658 -2.3686
   55MOL   H33040398   7.417   6.816   5.517 -1.1816  1.2194 -0.0668
   55MOL   H33140399   7.316   6.878   5.644  0.5153  0.8935  0.3789
   55MOL   H33240400   7.172   6.679   5.649  0.6783 -1.9942  0.1646
   55MOL   H33340401   7.286   6.588   5.559 -0.5418 -0.2339 -2.6085
   55MOL   H33440402   7.183   6.834   5.431  0.3885 -0.0371 -1.0100
   55MOL   C33540403   7.179   6.662   5.341  0.4047  0.1697 -0.6521
   55MOL   O33640404   7.184   6.542   5.343 -0.1899  0.0233  0.1634
   55MOL   C33740405   7.155   6.735   5.208  0.2487  0.0860 -0.1485
   55MOL   C33840406   7.241   6.685   5.090 -0.1780  0.6425 -0.2503
   55MOL   C33940407   7.390   6.737   5.098  0.3384  0.0176  0.9497
   55MOL   C34040408   7.478   6.683   5.214  0.5131  0.0613  0.3317
   55MOL   C34140409   7.625   6.731   5.214 -1.2527 -0.3783  0.8261
   55MOL   C34240410   7.689   6.674   5.339  0.3231  0.0341  0.1433
   55MOL   C34340411   0.146   6.696   5.353  0.9167 -0.1811  0.1195
   55MOL   C34440412   0.208   6.619   5.467  0.6087 -0.3340  0.3204
   55MOL   C34540413   0.355   6.653   5.487  0.3522 -0.3333  0.3945
   55MOL   C34640414   0.410   6.571   5.599 -0.2367 -0.3057  0.7906
   55MOL   C34740415   0.552   6.598   5.639 -0.6853  0.2192  0.1845
   55MOL   N34840416   0.597   6.527   5.754 -0.0647 -0.3692 -0.2461
   55MOL   H34940417   7.185   6.838   5.224  1.1077  0.0697 -1.5803
   55MOL   H35040418   7.047   6.730   5.189  0.1092 -0.2499  0.6842
   55MOL   H35140419   7.244   6.577   5.079  1.6604  0.6839 -0.2568
   55MOL   H35240420   7.204   6.729   4.997  2.0560  1.6406 -0.6997
   55MOL   H35340421   7.395   6.845   5.093  2.6743 -0.1363 -0.7234
   55MOL   H35440422   7.442   6.709   5.007 -0.7552 -2.2828  0.9891
   55MOL   H35540423   7.426   6.697   5.308 -3.2274  1.2016 -1.7904
   55MOL   H35640424   7.478   6.576   5.193 -2.3171  0.2256 -0.6741
   55MOL   H35740425   7.616   6.840   5.218 -0.1623 -0.2132 -0.6074
   55MOL   H35840426   7.664   6.692   5.121 -0.9201 -2.7585  1.9248
   55MOL   H35940427   7.672   6.566   5.340  2.6845 -0.3714 -0.5048
   55MOL   H36040428   7.634   6.709   5.426 -2.2599  1.3524 -1.9740
   55MOL   H36140429   0.166   6.803   5.359  0.0310 -0.0556  0.9017
   55MOL   H36240430   0.179   6.657   5.257 -2.5346  1.4837 -1.8176
   55MOL   H36340431   0.177   6.514   5.473 -0.9300  0.1107  0.4098
   55MOL   H36440432   0.150   6.636   5.558 -0.0814 -0.8757 -0.0056
   55MOL   H36540433   0.350   6.760   5.509  0.6295 -0.3864  0.7286
   55MOL   H36640434   0.418   6.648   5.399  0.8270  0.4806  0.6766
   55MOL   H36740435   0.397   6.465   5.576 -1.3174 -0.3361  1.4968
   55MOL   H36840436   0.354   6.593   5.689 -0.9508 -1.5396  0.6634
   55MOL   H36940437   0.554   6.703   5.667  2.2692  0.6516 -1.4812
   55MOL   H37040438   0.609   6.568   5.552 -1.5581  0.3174 -0.4250
   55MOL   H37140439   0.593   6.426   5.752  1.6712 -0.5338  2.1925
   55MOL   C37240440   0.665   6.590   5.854 -0.0992 -0.5004  0.3328
   55MOL   O37340441   0.686   6.718   5.856 -0.3160 -0.1036 -0.5967
   55MOL   C37440442   0.739   6.500   5.964  0.2455  0.7574 -0.2220
   55MOL   C37540443   0.752   6.579   6.096  0.5606 -0.0795  0.4728
   55MOL   C37640444   0.802   6.497   6.222  0.4280  0.2017 -0.1332
   55MOL   C37740445   0.911   6.389   6.181  0.1255 -0.4365 -0.0385
   55MOL   C37840446   0.989   6.329   6.304  0.3248 -0.2021 -0.1878
   55MOL   C37940447   1.053   6.196   6.284 -0.1156  0.3600  0.0650
   55MOL   C38040448   1.123   6.130   6.400  0.4894  0.2453 -0.3119
   55MOL   C38140449   1.186   5.998   6.374 -0.3751  0.8528 -0.5872
   55MOL   C38240450   1.266   5.990   6.243 -0.1169  0.4887  0.4358
   55MOL   C38340451   1.393   6.082   6.237 -0.3242  0.7857  0.4216
   55MOL   C38440452   1.454   6.083   6.100  0.4244 -0.5142 -0.0909
   55MOL   N38540453   1.589   6.141   6.094 -0.3443  0.0997 -0.3513
   55MOL   H38640454   0.839   6.482   5.925  0.9825  0.5084  1.7829
   55MOL   H38740455   0.681   6.408   5.971 -0.4519  0.9099 -3.1692
   55MOL   H38840456   0.822   6.661   6.078  1.1747 -0.5930  0.5167
   55MOL   H38940457   0.657   6.628   6.122 -0.7140  0.1070 -4.0229
   55MOL   H39040458   0.712   6.453   6.265  0.1348  2.0792  1.2189
   55MOL   H39140459   0.846   6.568   6.291  0.4343 -0.8042  0.9079
   55MOL   H39240460   0.863   6.308   6.127 -1.2497  1.3286 -1.5211
   55MOL   H39340461   0.986   6.443   6.122  1.7413 -0.0674  2.2705
   55MOL   H39440462   0.917   6.314   6.385 -1.9005  1.1385 -1.8687
   55MOL   H39540463   1.053   6.406   6.346  1.7542 -2.2051  1.4038
   55MOL   H39640464   1.128   6.206   6.205 -0.8347  3.0810 -0.3104
   55MOL   H39740465   0.982   6.126   6.239  0.9779 -1.3850  1.0138
   55MOL   H39840466   1.047   6.131   6.479 -0.2963 -1.3080 -1.0063
   55MOL   H39940467   1.205   6.191   6.437 -0.4438  1.3997 -0.0992
   55MOL   H40040468   1.104   5.926   6.374  0.9363 -0.6768 -1.0286
   55MOL   H40140469   1.244   5.968   6.461 -0.9565 -1.5223 -0.9802
   55MOL   H40240470   1.210   5.998   6.149  0.4580 -1.9893 -0.1694
   55MOL   H40340471   1.305   5.888   6.236  0.4221  0.8320 -2.0847
   55MOL   H40440472   1.469   6.067   6.315  0.6692  0.4827 -0.5844
   55MOL   H40540473   1.369   6.185   6.261 -0.9374  0.8682 -0.5355
   55MOL   H40640474   1.381   6.125   6.030  0.7910  1.4219  0.6530
   55MOL   H40740475   1.458   5.980   6.066 -0.2220  0.0002 -1.8168
   55MOL   H40840476   1.647   6.143   6.176  1.1340 -2.4425 -1.2920
   55MOL   C40940477   1.657   6.173   5.983  0.4032  0.2677  0.0529
   55MOL   O41040478   1.599   6.167   5.878  0.1148  0.5084  0.3869
   55MOL   C41140479   1.804   6.220   5.984  0.7203  0.3512  0.0668
   55MOL   C41240480   1.874   6.204   5.846 -0.2896  0.6938  0.2292
   55MOL   C41340481   1.896   6.062   5.802 -0.4135  0.1051  0.1770
   55MOL   C41440482   2.023   6.006   5.854  0.2587 -0.6480 -0.2902
   55MOL   C41540483   2.154   6.053   5.776  0.6397 -0.1705  0.7967
   55MOL   C41640484   2.288   6.029   5.837 -0.4508 -0.4306  0.0792
   55MOL   C41740485   2.399   6.115   5.776 -0.2694 -0.1474 -0.2391
   55MOL   C41840486   2.452   6.073   5.639 -0.2179 -0.7675 -0.0439
   55MOL   C41940487   2.580   6.155   5.602 -0.2663  0.1919 -0.9157
   55MOL   C42040488   2.545   6.300   5.561  0.8295 -0.1236  0.2365
   55MOL   C42140489   2.669   6.375   5.505 -0.5123 -0.4775  0.5171
   55MOL   N42240490   2.630   6.509   5.462  0.2262  0.0651  0.0708
   55MOL   H42340491   1.855   6.170   6.067 -0.4977 -0.3506  0.4051
   55MOL   H42440492   1.801   6.326   6.009  1.2364  0.4704 -0.3628
   55MOL   H42540493   1.824   6.258   5.766 -0.5500  0.0580 -0.0432
   55MOL   H42640494   1.966   6.262   5.850  0.3523 -0.2742 -0.2902
   55MOL   H42740495   1.894   6.070   5.693  1.0006  1.6969  0.2497
   55MOL   H42840496   1.814   5.992   5.817 -0.0385 -0.4641 -0.4005
   55MOL   H42940497   2.032   6.040   5.957  0.9267  0.1725 -0.6160
   55MOL   H43040498   2.017   5.897   5.854 -2.8380 -0.5388  1.4368
   55MOL   H43140499   2.139   6.155   5.742 -0.4374  0.5433  3.3016
   55MOL   H43240500   2.158   5.999   5.681 -1.5428  0.6727  0.1967
   55MOL   H43340501   2.314   5.924   5.826 -0.4820 -0.4324  0.0187
   55MOL   H43440502   2.288   6.050   5.944  1.3879  1.3649 -0.2386
   55MOL   H43540503   2.478   6.097   5.849  0.5693 -0.1948 -1.1416
   55MOL   H43640504   2.373   6.221   5.774 -0.6046 -0.2510 -2.3334
   55MOL   H43740505   2.377   6.088   5.562  2.3544  1.1550 -2.2604
   55MOL   H43840506   2.489   5.970   5.642 -1.6149 -1.2861  0.0113
   55MOL   H43940507   2.623   6.107   5.514  0.1710 -1.4308  0.1448
   55MOL   H44040508   2.654   6.149   5.681 -1.0473  0.4998 -0.1504
   55MOL   H44140509   2.499   6.355   5.643 -2.4405  0.7469 -2.0707
   55MOL   H44240510   2.468   6.303   5.484 -1.4633  0.1579  2.4552
   55MOL   H44340511   2.698   6.323   5.413 -0.4538  0.3559  0.0564
   55MOL   H44440512   2.756   6.386   5.570 -0.9220  2.2135  0.6767
   55MOL   H44540513   2.639   6.571   5.541  2.2061 -1.4783  1.0837
   55MOL   C44640514   2.581   6.546   5.341 -0.6652  0.0876 -0.4582
   55MOL   O44740515   2.591   6.474   5.238 -0.3303 -0.0422 -0.3295
   55MOL   C44840516   2.520   6.684   5.335 -0.3165 -0.1082  0.3769
   55MOL   C44940517   2.378   6.683   5.276 -0.3032  0.9970  0.4459
   55MOL   C45040518   2.308   6.826   5.255  0.0304  0.7862  0.1173
   55MOL   C45140519   2.392   6.928   5.170 -0.2346  0.2133  0.2504
   55MOL   C45240520   2.363   7.069   5.185  0.4321 -0.0059  0.2297
   55MOL   C45340521   2.211   7.101   5.149 -0.5780 -0.2824  0.4757
   55MOL   C45440522   2.169   7.248   5.159 -0.2636 -0.1500  0.0079
   55MOL   C45540523   2.035   7.285   5.100 -0.0079 -0.1822  0.3374
   55MOL   C45640524   2.023   7.428   5.050  0.2642 -0.0463 -0.2048
   55MOL   C45740525   1.892   7.475   4.987 -0.5374  0.1375 -0.7082
   55MOL   C45840526   1.908   7.586   4.886  0.2465 -0.3284 -0.2405
   55MOL   N45940527   1.775   7.619   4.825  0.1161 -0.5034  0.0398
   55MOL   H46040528   2.588   6.746   5.277 -1.2853  1.0491  0.4622
   55MOL   H46140529   2.512   6.727   5.435 -3.8009 -2.2465  1.1198
   55MOL   H46240530   2.385   6.626   5.184  1.0544  0.1228  1.0646
   55MOL   H46340531   2.323   6.620   5.347 -0.8398 -0.3189 -1.1152
   55MOL   H46440532   2.276   6.880   5.344  1.6408  1.1402  0.5115
   55MOL   H46540533   2.216   6.789   5.210 -1.0937  2.1682  1.2686
   55MOL   H46640534   2.499   6.915   5.189  0.2566  0.4204 -2.1859
   55MOL   H46740535   2.386   6.898   5.065 -0.1277  1.3237 -0.0734
   55MOL   H46840536   2.423   7.116   5.107  2.4794 -0.7919  1.3108
   55MOL   H46940537   2.384   7.100   5.287  0.9991 -0.6768  0.3147
   55MOL   H47040538   2.148   7.025   5.195  1.0236 -1.9940 -0.1091
   55MOL   H47140539   2.202   7.070   5.045  0.7237 -2.8655  1.0805
   55MOL   H47240540   2.250   7.313   5.123 -1.0459  0.4834 -0.6196
   55MOL   H47340541   2.148   7.277   5.262 -1.4926 -0.2147 -0.2244
   55MOL   H47440542   1.963   7.261   5.178  1.2521  0.4535  1.7221
   55MOL   H47540543   2.002   7.219   5.020  1.2242 -0.5209  0.1054
   55MOL   H47640544   2.105   7.444   4.979  0.3126  2.5117  0.4153
   55MOL   H47740545   2.062   7.500   5.121 -0.8427 -0.7411  1.1180
   55MOL   H47840546   1.819   7.496   5.065 -0.5909 -1.9886 -0.1704
   55MOL   H47940547   1.853   7.386   4.937 -1.1787  0.3627 -0.6099
   55MOL   H48040548   1.976   7.560   4.805  0.7238 -1.3902  0.4943
   55MOL   H48140549   1.945   7.667   4.949 -3.1433  0.8243  0.3661
   55MOL   H48240550   1.700   7.599   4.889 -1.0326  0.7739 -0.8568
   55MOL   C48340551   1.738   7.637   4.698 -0.4918  0.0358 -0.2013
   55MOL   O48440552   1.628   7.627   4.666  0.6770  0.2783  0.6434
   55MOL   C48540553   1.854   7.676   4.603 -0.9749 -0.4124 -0.2881
   55MOL   C48640554   1.817   0.034   4.463  0.5058  0.0083  0.3365
   55MOL   C48740555   1.772   0.188   4.464 -0.6749  0.0503 -0.0788
   55MOL   C48840556   1.708   0.221   4.332 -0.7315  0.3606  0.8912
   55MOL   C48940557   1.661   0.364   4.319 -0.1541 -0.4378 -0.2235
   55MOL   C49040558   1.769   0.460   4.279 -0.3454 -0.0361 -0.1795
   55MOL   C49140559   1.716   0.598   4.246  0.9513  0.1342  0.3229
   55MOL   C49240560   1.833   0.688   4.248 -0.3156  0.4223  0.4172
   55MOL   C49340561   1.799   0.834   4.211  0.2125 -0.2345 -0.3255
   55MOL   C49440562   1.719   0.912   4.328  0.5782  0.3945  0.8219
   55MOL   C49540563   1.689   1.063   4.293 -0.3585  0.1751 -0.1149
   55MOL   N49640564   1.635   1.134   4.402 -0.0254 -0.2896 -0.1517
   55MOL   H49740565   1.892   7.578   4.572  0.2927  0.1940 -0.6852
   55MOL   H49840566   1.936   0.042   4.642 -1.9095  1.1276 -0.6770
   55MOL   H49940567   1.898   0.019   4.392  1.0655 -0.2698  1.0268
   55MOL   H50040568   1.740   7.657   4.434  2.4155 -2.0548  0.1623
   55MOL   H50140569   1.854   0.255   4.485  0.0043  0.1492 -2.8679
   55MOL   H50240570   1.693   0.194   4.539  0.5625  3.0365  1.0389
   55MOL   H50340571   1.782   0.192   4.257 -0.1077  1.1888  1.1897
   55MOL   H50440572   1.624   0.154   4.312 -0.8189  0.9544 -0.8783
   55MOL   H50540573   1.615   0.388   4.415  1.2484 -3.9567  1.3859
   55MOL   H50640574   1.590   0.370   4.236  0.1563  2.7241 -0.3389
   55MOL   H50740575   1.821   0.430   4.188  0.9985 -0.6135  0.7575
   55MOL   H50840576   1.841   0.457   4.362 -1.2755  0.8919  0.6738
   55MOL   H50940577   1.633   0.631   4.310  0.5481 -0.7322  0.2444
   55MOL   H51040578   1.671   0.602   4.147  0.6074 -1.5850  0.4022
   55MOL   H51140579   1.914   0.646   4.188  1.3033 -0.3071  3.0050
   55MOL   H51240580   1.879   0.690   4.348 -1.2784 -0.4227  0.8794
   55MOL   H51340581   1.752   0.839   4.113  0.3908  0.0338 -0.3989
   55MOL   H51440582   1.889   0.893   4.194 -1.5959  2.4762 -0.9304
   55MOL   H51540583   1.783   0.907   4.417  1.6609 -1.8197 -0.0432
   55MOL   H51640584   1.624   0.861   4.344 -0.2842  1.6029 -0.3542
   55MOL   H51740585   1.628   1.069   4.204  2.0589 -0.8358 -1.8966
   55MOL   H51840586   1.785   1.111   4.277  1.2383 -2.4694  1.0917
   55MOL   H51940587   1.650   1.080   4.486  4.9182  1.1924  0.0681
   55MOL   C52040588   1.573   1.255   4.392 -0.4557  0.3046  0.1262
   55MOL   O52140589   1.556   1.310   4.291 -0.0310 -0.1568 -0.2599
   55MOL   C52240590   1.531   1.308   4.533  0.1489  0.2647  0.5034
   55MOL   C52340591   1.425   1.418   4.520  0.6006  0.0606  1.7470
   55MOL   C52440592   1.371   1.464   4.656 -0.4403 -0.0618  0.5584
   55MOL   C52540593   1.462   1.573   4.717 -0.2778 -0.7165 -0.1252
   55MOL   C52640594   1.446   1.582   4.866  0.0388  0.2512 -1.0818
   55MOL   C52740595   1.509   1.717   4.926 -0.3353  0.1739 -0.5617
   55MOL   C52840596   1.507   1.723   5.076 -0.0088 -0.2208  0.3084
   55MOL   C52940597   1.573   1.845   5.133 -0.6788  0.7624  0.0301
   55MOL   C53040598   1.574   1.853   5.289  0.0257  0.0951  0.4173
   55MOL   C53140599   1.644   1.979   5.347 -0.2927  0.2009  0.1265
   55MOL   C53240600   1.656   1.989   5.497  0.2396  0.5099  0.0928
   55MOL   N53340601   1.525   2.027   5.559 -0.3579  0.3391 -0.5908
   55MOL   H53440602   1.617   1.343   4.590 -0.2687  0.0126  1.2912
   55MOL   H53540603   1.483   1.225   4.586 -2.8610  1.6037 -0.0574
   55MOL   H53640604   1.470   1.505   4.472  0.0805  0.4438  1.9408
   55MOL   H53740605   1.349   1.380   4.452  1.6335  2.0064 -0.5537
   55MOL   H53840606   1.364   1.381   4.727 -0.2622 -1.3090 -0.8523
   55MOL   H53940607   1.274   1.513   4.646 -0.5122 -0.5434 -1.2584
   55MOL   H54040608   1.564   1.555   4.683 -0.1895 -1.7266  0.6336
   55MOL   H54140609   1.438   1.663   4.662 -2.0246 -1.2965 -0.3476
   55MOL   H54240610   1.477   1.491   4.917  1.1011 -0.5425 -3.0942
   55MOL   H54340611   1.340   1.580   4.890  0.3000 -2.8378 -0.0638
   55MOL   H54440612   1.450   1.795   4.877  1.2721  0.6441 -1.8171
   55MOL   H54540613   1.605   1.740   4.881 -0.1074 -1.5529 -1.0109
   55MOL   H54640614   1.558   1.632   5.108 -0.7016 -1.1408 -1.1794
   55MOL   H54740615   1.405   1.717   5.113 -0.7607  0.8033 -1.5207
   55MOL   H54840616   1.533   1.936   5.088 -0.8709  0.6890  0.0521
   55MOL   H54940617   1.676   1.843   5.097 -1.5791  1.1432 -2.6783
   55MOL   H55040618   1.611   1.756   5.321 -3.2562 -1.5014 -0.4627
   55MOL   H55140619   1.473   1.857   5.331  1.6430 -0.6300  4.6150
   55MOL   H55240620   1.602   2.068   5.301 -1.8394 -1.3580 -1.5990
   55MOL   H55340621   1.746   1.982   5.310  0.6577 -2.8630  2.2774
   55MOL   H55440622   1.742   2.045   5.535  0.8631 -1.3004  1.3869
   55MOL   H55540623   1.667   1.892   5.545  2.0239  0.2883 -0.7164
   55MOL   H55640624   1.436   1.995   5.524  0.2600 -2.6555  0.4033
   55MOL   C55740625   1.521   2.099   5.669  0.4161  0.3911  0.2789
   55MOL   O55840626   1.612   2.142   5.738  0.3489  0.3152 -0.3573
   55MOL   C55940627   1.380   2.135   5.718 -0.1511  0.0859 -0.2875
   55MOL   C56040628   1.374   2.128   5.868 -0.4453 -0.2356  0.2543
   55MOL   C56140629   1.380   1.991   5.928  0.3691  0.5415  0.2061
   55MOL   C56240630   1.311   1.982   6.068 -0.5000  0.0922 -0.0528
   55MOL   C56340631   1.421   2.007   6.176  0.6022 -0.0231 -0.5795
   55MOL   C56440632   1.503   1.882   6.189 -0.5025 -0.1565  0.0717
   55MOL   C56540633   1.619   1.893   6.290  0.8069  0.1611  0.3983
   55MOL   C56640634   1.695   1.758   6.289  0.0058 -0.4921 -0.0118
   55MOL   C56740635   1.837   1.765   6.354  0.4153 -0.8375 -0.7378
   55MOL   C56840636   1.899   1.625   6.333 -0.4469 -0.2421  0.7762
   55MOL   C56940637   1.866   1.525   6.444  0.1486  0.3013 -0.1277
   55MOL   N57040638   1.914   1.394   6.414 -0.9092  0.7885 -0.0651
   55MOL   H57140639   1.318   2.061   5.668  1.2907 -1.3800  0.0483
   55MOL   H57240640   1.346   2.232   5.682 -2.1738 -0.9139 -1.1692
   55MOL   H57340641   1.443   2.195   5.919 -0.9322 -0.8439  1.7457
   55MOL   H57440642   1.279   2.176   5.893 -0.4317 -0.0871  0.0193
   55MOL   H57540643   1.478   1.945   5.922  0.8809  1.7206 -0.7898
   55MOL   H57640644   1.321   1.917   5.873  1.8210  0.1240 -0.8028
   55MOL   H57740645   1.225   2.048   6.082  0.1992  1.2826 -1.2892
   55MOL   H57840646   1.269   1.882   6.084  1.9002 -0.7187  1.3594
   55MOL   H57940647   1.390   2.037   6.277 -0.5507 -0.8121 -0.6929
   55MOL   H58040648   1.493   2.084   6.148 -2.3989  2.0281 -3.0192
   55MOL   H58140649   1.545   1.858   6.091 -0.6309 -0.0462 -0.0095
   55MOL   H58240650   1.438   1.800   6.219 -0.5479 -1.0238 -2.2621
   55MOL   H58340651   1.577   1.916   6.388 -2.4477 -0.9381 -0.6800
   55MOL   H58440652   1.689   1.971   6.262 -1.0076  1.5340 -0.4772
   55MOL   H58540653   1.687   1.728   6.184  0.5016 -0.7830  0.0296
   55MOL   H58640654   1.629   1.689   6.342 -2.8054  0.8999 -1.6168
   55MOL   H58740655   1.827   1.796   6.458 -1.6007  2.1971 -1.7678
   55MOL   H58840656   1.900   1.838   6.302  1.0238 -0.8102  0.0232
   55MOL   H58940657   2.007   1.632   6.337 -0.3517 -1.4745  0.7433
   55MOL   H59040658   1.891   1.592   6.230 -0.6669  1.6753  0.1693
   55MOL   H59140659   1.758   1.524   6.458 -0.0284  2.2589 -1.2121
   55MOL   H59240660   1.894   1.565   6.541  2.0470 -2.0742  0.3631
   55MOL   H59340661   1.996   1.359   6.461  0.5268  2.2607 -1.3988
   55MOL   C59440662   1.851   1.299   6.342  0.6790  0.1163  0.3944
   55MOL   O59540663   1.737   1.315   6.301  0.0481 -0.3318  0.6803
   55MOL   C59640664   1.923   1.164   6.310 -0.2269 -0.9694 -0.2756
   55MOL   C59740665   1.828   1.040   6.295  0.1350  0.1929  0.0457
   55MOL   C59840666   1.902   0.912   6.246  0.0722  0.4467  0.4964
   55MOL   C59940667   1.802   0.784   6.235 -0.0080  0.1381 -0.0789
   55MOL   C60040668   1.867   0.657   6.188 -0.3701 -0.2464  0.0883
   55MOL   C60140669   1.937   0.575   6.294 -0.0834  0.1337 -0.1684
   55MOL   C60240670   1.999   0.447   6.243 -0.3693  0.0201  0.4554
   55MOL   C60340671   2.112   0.388   6.328  0.2498  0.2392 -0.3795
   55MOL   C60440672   2.074   0.308   6.457  0.6269  0.1478  0.1599
   55MOL   C60540673   2.194   0.299   6.547 -0.5103 -1.0957 -0.4706
   55MOL   C60640674   2.179   0.247   6.688  0.0994 -0.4100 -0.2945
   55MOL   N60740675   2.316   0.259   6.751 -0.1976 -0.0140 -0.3067
   55MOL   H60840676   2.013   1.141   6.367 -1.1672 -1.3863  1.0723
   55MOL   H60940677   1.965   1.184   6.211 -1.1427 -0.3324 -0.5370
   55MOL   H61040678   1.764   1.019   6.382  0.5232 -3.2286 -0.4370
   55MOL   H61140679   1.756   1.060   6.216  0.0632  1.9057  0.5280
   55MOL   H61240680   1.974   0.901   6.328 -0.3608 -0.7606  0.7212
   55MOL   H61340681   1.948   0.938   6.151 -0.1225  0.7823  0.4929
   55MOL   H61440682   1.755   0.769   6.332  0.7137 -2.1580 -0.0494
   55MOL   H61540683   1.728   0.821   6.165  0.3852  0.3824 -0.3659
   55MOL   H61640684   1.942   0.683   6.113  1.0111 -1.8377  0.8974
   55MOL   H61740685   1.801   0.584   6.142 -0.9644  0.5990 -0.4225
   55MOL   H61840686   1.862   0.550   6.369  0.3461 -2.5415 -0.5946
   55MOL   H61940687   2.009   0.641   6.343 -1.4490  1.4592  0.0891
   55MOL   H62040688   2.036   0.466   6.142 -0.1159  1.8506  0.8822
   55MOL   H62140689   1.914   0.378   6.238  0.5755 -1.3232  2.1252
   55MOL   H62240690   2.188   0.466   6.338 -0.0994  0.4319  0.8201
   55MOL   H62340691   2.168   0.322   6.262  1.0898  1.2337 -0.6847
   55MOL   H62440692   2.027   0.212   6.437 -0.6609  1.0001 -0.9583
   55MOL   H62540693   2.002   0.367   6.513 -0.1932  0.1722 -0.9242
   55MOL   H62640694   2.249   0.393   6.550  0.3023 -1.4597 -2.7807
   55MOL   H62740695   2.257   0.223   6.500 -1.8190 -0.4339 -3.4239
   55MOL   H62840696   2.157   0.140   6.685  1.1672 -0.6676  0.9430
   55MOL   H62940697   2.109   0.315   6.737  0.2460 -1.2058  1.0621
   55MOL   H63040698   2.348   0.349   6.785  2.0162  0.4516 -3.4882
   55MOL   C63140699   2.427   0.186   6.747  0.8061  0.0352  0.0732
   55MOL   O63240700   2.419   0.074   6.692  0.6322 -0.4413  0.3811
   55MOL   C63340701   2.559   0.236   6.805  0.2597  0.4958 -0.2096
   55MOL   C63440702   2.557   0.245   6.960  0.6013 -0.1160  0.1097
   55MOL   C63540703   2.682   0.294   7.034  0.0230  0.4302 -0.5242
   55MOL   C63640704   2.652   0.315   7.186  0.0166  0.0664 -0.4686
   55MOL   C63740705   2.763   0.355   7.271 -0.4909  0.4142 -0.7909
   55MOL   C63840706   2.820   0.492   7.235  0.1384 -0.1279 -0.1790
   55MOL   C63940707   2.941   0.563   7.307  1.0297  0.3449  0.3513
   55MOL   C64040708   3.062   0.462   7.320  0.6589 -0.2524  0.5221
   55MOL   C64140709   3.158   0.524   7.433  0.4030 -0.3238  0.2689
   55MOL   C64240710   3.300   0.459   7.436  0.1055 -0.7848  0.1736
   55MOL   C64340711   3.411   0.531   7.524 -0.1821  0.2178  0.4643
   55MOL   N64440712   3.363   0.550   7.657 -1.1817 -0.2869  0.0287
   55MOL   H64540713   2.591   0.335   6.775 -4.1905  2.3670  0.8379
   55MOL   H64640714   2.643   0.172   6.775  0.1520  0.0700  0.3794
   55MOL   H64740715   2.464   0.294   6.988 -0.8200 -2.3793 -0.5818
   55MOL   H64840716   2.538   0.140   6.982  0.7694  0.3305  2.5404
   55MOL   H64940717   2.733   0.380   6.991  2.3033 -1.0640 -0.9355
   55MOL   H65040718   2.766   0.224   7.034 -1.6657 -1.6646 -0.8522
   55MOL   H65140719   2.577   0.393   7.199 -0.9147 -1.2729  2.8337
   55MOL   H65240720   2.617   0.223   7.233  1.6566  0.2995  1.2955
   55MOL   H65340721   2.843   0.283   7.260 -0.3064  0.5449 -0.3172
   55MOL   H65440722   2.737   0.357   7.377 -0.1392  0.3269 -0.7045
   55MOL   H65540723   2.732   0.554   7.253 -0.0318 -0.5590  0.4883
   55MOL   H65640724   2.854   0.484   7.131  0.8285  0.1162  0.0290
   55MOL   H65740725   2.914   0.612   7.400 -3.7282  0.1424 -0.8131
   55MOL   H65840726   2.966   0.645   7.240 -2.2650  0.3552 -0.9325
   55MOL   H65940727   3.104   0.446   7.220  0.2703  0.8131  0.1750
   55MOL   H66040728   3.027   0.367   7.359 -0.6438 -0.1269 -0.3243
   55MOL   H66140729   3.111   0.513   7.530  0.6229  1.9419  0.6682
   55MOL   H66240730   3.162   0.631   7.411 -0.5081 -0.5647 -1.0984
   55MOL   H66340731   3.343   0.466   7.336  0.8336  2.0335  0.6498
   55MOL   H66440732   3.289   0.352   7.451  1.5126 -0.5517  3.1734
   55MOL   H66540733   3.438   0.628   7.484 -0.7777  0.2339  0.0954
   55MOL   H66640734   3.505   0.476   7.527  0.7403  1.8605  2.1494
   55MOL   H66740735   3.383   0.479   0.032 -1.7100  1.5176  2.0810
   55MOL   C66840736   3.313   0.665   0.011  0.1107 -0.1915  0.0415
   55MOL   O66940737   3.294   0.773   7.646  0.3054  0.4025 -0.8155
   55MOL   C67040738   3.280   0.665   0.161  0.4349 -0.6752 -0.2167
   55MOL   C67140739   3.390   0.751   0.236  0.1856 -0.3718 -0.1106
   55MOL   C67240740   3.371   0.771   0.391 -0.2245 -0.2255 -1.0422
   55MOL   C67340741   3.489   0.840   0.458  0.0429  0.0393 -0.7714
   55MOL   C67440742   3.461   0.869   0.606  0.5003 -0.8054  0.3344
   55MOL   C67540743   3.567   0.953   0.687  0.6227 -0.6170  0.9012
   55MOL   C67640744   3.525   0.969   0.839 -0.0895  0.3370  0.1069
   55MOL   C67740745   3.561   0.854   0.931 -0.7348  0.0670 -0.0540
   55MOL   C67840746   3.533   0.891   1.074  0.2307 -0.0992  0.3430
   55MOL   C67940747   3.384   0.935   1.106 -0.1377 -0.4487 -1.2071
   55MOL   C68040748   3.354   0.943   1.252 -0.5772  0.3759  0.0263
   55MOL   N68140749   3.214   0.966   1.270  0.0988  0.6662 -0.6474
   55MOL   H68240750   3.274   0.567   0.208  0.1405  0.1216  1.4424
   55MOL   H68340751   3.179   0.704   0.169 -0.5709 -3.3901  0.9341
   55MOL   H68440752   3.485   0.705   0.209  1.7179  1.2270  2.3167
   55MOL   H68540753   3.387   0.849   0.187  0.9739  0.1982  0.9564
   55MOL   H68640754   3.353   0.671   0.431  0.6858 -0.0976 -0.3167
   55MOL   H68740755   3.280   0.829   0.404  0.8828  0.8660  2.1253
   55MOL   H68840756   3.579   0.780   0.443  0.1977  0.1800 -0.4143
   55MOL   H68940757   3.510   0.924   0.392 -0.6202 -0.4981 -1.6621
   55MOL   H69040758   3.445   0.776   0.660  0.0347 -1.2636 -0.5796
   55MOL   H69140759   3.370   0.928   0.618  0.7435 -0.1423 -1.0246
   55MOL   H69240760   3.574   1.051   0.639 -0.8283 -0.5393  0.8068
   55MOL   H69340761   3.663   0.902   0.678  0.6528 -0.0082 -3.1862
   55MOL   H69440762   3.419   0.994   0.842 -0.4448 -1.1293 -0.0203
   55MOL   H69540763   3.574   1.059   0.877 -0.0776  1.2541 -2.0010
   55MOL   H69640764   3.670   0.851   0.923 -0.7630  2.3934 -1.9753
   55MOL   H69740765   3.534   0.752   0.907 -0.9400  0.1331 -0.1038
   55MOL   H69840766   3.600   0.963   1.120  1.6106 -1.1168 -0.0453
   55MOL   H69940767   3.562   0.802   1.129  2.0749  1.5629  2.1606
   55MOL   H70040768   3.314   0.864   1.062 -1.4293 -1.5179  2.3722
   55MOL   H70140769   3.365   1.030   1.056 -1.6968  0.4990  1.1014
   55MOL   H70240770   3.416   1.013   1.309 -0.4678  1.3175 -1.2223
   55MOL   H70340771   3.367   0.852   1.310 -1.1956  2.3140  3.3160
   55MOL   H70440772   3.159   0.965   1.185  0.4691 -0.4188 -0.8798
   55MOL   C70540773   3.154   0.966   1.393  0.0817  0.4495 -0.5787
   55MOL   O70640774   3.219   0.979   1.496 -0.3968 -0.6370 -0.0178
   55MOL   C70740775   2.995   0.957   1.394  0.5235 -0.4033  0.4193
   55MOL   C70840776   2.942   0.961   1.532 -0.3063  0.4375  0.2060
   55MOL   C70940777   2.791   0.950   1.529 -0.5760  0.6027 -0.2668
   55MOL   C71040778   2.729   0.978   1.670 -0.9477  0.2089 -1.0338
   55MOL   C71140779   2.579   0.932   1.693  0.2815 -0.2600 -0.7050
   55MOL   C71240780   2.482   1.007   1.594  0.5122  0.1186 -0.1556
   55MOL   C71340781   2.344   0.941   1.582  0.0910  0.3616  0.1160
   55MOL   C71440782   2.241   1.028   1.505  0.0892  0.0892  0.3139
   55MOL   C71540783   2.106   0.963   1.470 -0.0781 -0.5991 -0.3033
   55MOL   C71640784   2.113   0.832   1.401  0.0931  0.3328 -0.5333
   55MOL   C71740785   1.980   0.768   1.383  0.0246  0.0749  0.0537
   55MOL   N71840786   1.914   0.822   1.270 -0.8357  0.8666  0.5065
   55MOL   H71940787   2.968   0.868   1.338 -1.4529  0.6683 -0.3607
   55MOL   H72040788   2.960   1.044   1.339 -0.5071  0.0901  1.8172
   55MOL   H72140789   2.981   0.873   1.582 -0.7578  0.6534  0.9433
   55MOL   H72240790   2.973   1.057   1.573 -1.7392  0.7681  0.5357
   55MOL   H72340791   2.775   0.846   1.499 -1.4283  0.8614 -0.7394
   55MOL   H72440792   2.741   1.015   1.457  1.8073  1.5324 -1.1078
   55MOL   H72540793   2.781   0.926   1.749  0.6979  0.5931 -1.8333
   55MOL   H72640794   2.730   1.084   1.695 -0.9006 -0.3420  1.3872
   55MOL   H72740795   2.545   0.929   1.796  1.0987 -0.9632 -0.4563
   55MOL   H72840796   2.582   0.826   1.669  2.6485 -0.2263 -0.6980
   55MOL   H72940797   2.532   1.026   1.500 -0.4512  0.8941 -0.5159
   55MOL   H73040798   2.454   1.108   1.624 -1.7962 -0.1182 -1.4072
   55MOL   H73140799   2.291   0.925   1.676 -0.2486 -1.4865 -0.3739
   55MOL   H73240800   2.361   0.848   1.527 -1.2378  1.8936 -3.0021
   55MOL   H73340801   2.289   1.062   1.413 -0.3691 -0.7335 -0.2400
   55MOL   H73440802   2.226   1.108   1.577  0.3096  1.2732 -0.9262
   55MOL   H73540803   2.040   1.030   1.415 -0.1969 -1.0923 -0.7719
   55MOL   H73640804   2.049   0.946   1.562 -0.4636 -1.7355 -0.7402
   55MOL   H73740805   2.172   0.764   1.464 -2.2728  0.7909  2.2630
   55MOL   H73840806   2.168   0.833   1.307 -2.2422  2.1917 -1.9415
   55MOL   H73940807   1.922   0.791   1.473 -1.1611  2.0031 -1.1815
   55MOL   H74040808   1.997   0.660   1.383  0.6701  0.1480  2.3525
   55MOL   H74140809   1.894   0.919   1.290 -0.5175  1.0278  0.0462
   55MOL   H74240810   1.827   0.772   1.283 -0.2094 -0.1371  0.8940
   56MOL     C140811   0.369   0.748   3.004 -0.3316  0.3480 -0.1351
   56MOL     O240812   0.354   0.789   3.122 -0.0253  0.6015  0.6047
   56MOL     C340813   0.441   0.613   2.979 -0.1829 -0.1223 -0.0910
   56MOL     C440814   0.432   0.509   3.087  0.2754  0.5788  0.2197
   56MOL     C540815   0.553   0.407   3.082  0.6372  0.3003 -0.1729
   56MOL     C640816   0.683   0.467   3.122  0.3192 -0.0991 -0.1357
   56MOL     C740817   0.800   0.369   3.124  0.4400  0.7402  0.0080
   56MOL     C840818   0.929   0.436   3.156 -0.0805 -0.4934 -0.0442
   56MOL     C940819   1.054   0.349   3.125  0.6363  0.2209 -0.7718
   56MOL    C1040820   1.189   0.430   3.116  0.7363  0.2784 -0.4336
   56MOL    C1140821   1.295   0.319   3.114 -0.0180 -0.0944  0.0120
   56MOL    C1240822   1.438   0.377   3.085  0.2247 -0.3477 -0.2265
   56MOL    C1340823   1.543   0.256   3.050  0.3857 -0.1395 -0.0840
   56MOL    N1440824   1.550   0.168   3.169 -0.3729  0.2556  0.7022
   56MOL    H1540825   0.549   0.626   2.976 -0.0849 -1.2617 -1.8550
   56MOL    H1640826   0.404   0.566   2.888  1.3203 -0.5478 -0.4963
   56MOL    H1740827   0.426   0.559   3.184 -3.8191 -0.3212  0.5376
   56MOL    H1840828   0.340   0.451   3.084  0.1023  0.8601  0.1563
   56MOL    H1940829   0.563   0.382   2.977 -1.4521 -0.2691 -0.2580
   56MOL    H2040830   0.528   0.319   3.141 -0.4374  1.0188  0.4742
   56MOL    H2140831   0.708   0.552   3.059  2.4626  0.7591  1.7723
   56MOL    H2240832   0.678   0.512   3.221  0.3826 -0.3700 -0.0078
   56MOL    H2340833   0.798   0.310   3.033 -0.1327 -0.8319  1.0287
   56MOL    H2440834   0.778   0.287   3.193  0.7368 -0.4410 -1.2835
   56MOL    H2540835   0.935   0.468   3.259 -2.0344 -0.7217  0.1465
   56MOL    H2640836   0.925   0.530   3.100 -1.7055 -0.0032  0.8832
   56MOL    H2740837   1.040   0.290   3.034 -1.5477 -0.5101 -0.0119
   56MOL    H2840838   1.056   0.269   3.199  1.2898  0.9070 -0.0521
   56MOL    H2940839   1.214   0.498   3.197 -1.9472 -1.0997  1.6358
   56MOL    H3040840   1.195   0.494   3.028  1.5679 -1.0328 -1.3551
   56MOL    H3140841   1.270   0.249   3.034  1.9657  0.6351 -1.2838
   56MOL    H3240842   1.290   0.264   3.207 -0.7645  0.0723  0.0749
   56MOL    H3340843   1.476   0.444   3.162 -2.6698  1.6391 -0.4714
   56MOL    H3440844   1.430   0.431   2.991  2.6335 -1.0999 -0.9210
   56MOL    H3540845   1.639   0.297   3.020  0.2173  0.9794  0.8759
   56MOL    H3640846   1.510   0.191   2.970 -0.2217  0.3410 -0.2257
   56MOL    H3740847   1.509   0.076   3.162 -1.8150  0.9171  0.1952
   56MOL    H3840848   0.312   0.799   2.926 -2.4397 -0.4173  0.8468
   56MOL    C3940849   1.623   0.202   3.280  0.0828  0.0315  0.4502
   56MOL    O4040850   1.690   0.303   3.299  0.0541 -0.1361 -0.5289
   56MOL    C4140851   1.629   0.091   3.392 -0.5327 -0.2877  0.5306
   56MOL    C4240852   1.696   7.654   3.353  0.5657  0.0065 -0.6609
   56MOL    C4340853   1.851   7.643   3.371 -0.0197 -0.5253  0.2687
   56MOL    C4440854   1.920   0.015   3.255  0.3562  0.0123 -0.0911
   56MOL    C4540855   2.035   7.620   3.192  0.4554  0.3374 -0.1928
   56MOL    C4640856   2.147   0.020   3.156 -0.2993 -0.2744  0.3886
   56MOL    C4740857   2.124   0.120   3.041  0.2249 -0.3331  0.2600
   56MOL    C4840858   2.259   0.177   2.982 -0.1218 -0.3699 -0.5083
   56MOL    C4940859   2.234   0.294   2.894 -0.1922 -0.9105  0.6725
   56MOL    C5040860   2.363   0.359   2.848 -0.2584  0.0390 -0.0799
   56MOL    C5140861   2.441   0.461   2.941  0.2188  0.5739 -0.7296
   56MOL    N5240862   2.350   0.573   2.988 -0.4115  0.3631  0.4222
   56MOL    H5340863   1.526   0.065   3.416 -0.8904 -0.8209 -1.4591
   56MOL    H5440864   1.673   0.137   3.481  2.7868 -0.9075 -0.6974
   56MOL    H5540865   1.662   7.565   3.407  0.2644  1.5849  1.8892
   56MOL    H5640866   1.676   7.627   3.250 -0.6000 -1.1422 -0.1547
   56MOL    H5740867   1.876   7.537   3.368 -1.4060 -0.8357 -0.8373
   56MOL    H5840868   1.887   7.685   3.465  1.2697  0.2463 -0.5491
   56MOL    H5940869   1.854   0.053   3.178 -1.2021  0.9044  1.6375
   56MOL    H6040870   1.964   0.109   3.287  3.5737 -0.8481 -1.7593
   56MOL    H6140871   1.996   7.578   3.100  2.9462 -0.0591 -1.0959
   56MOL    H6240872   2.063   7.540   3.260  2.2111  0.8656 -0.2842
   56MOL    H6340873   2.237   7.662   3.123 -0.4689 -1.1107  1.2140
   56MOL    H6440874   2.175   0.068   3.250  1.2013  1.4589 -0.9056
   56MOL    H6540875   2.050   0.187   3.085 -0.4915 -0.3409 -0.9222
   56MOL    H6640876   2.074   0.068   2.960  0.6466  1.2575 -1.0396
   56MOL    H6740877   2.314   0.094   2.938 -0.3317  0.0854 -1.6565
   56MOL    H6840878   2.310   0.209   3.073  0.7527 -2.7760 -0.1131
   56MOL    H6940879   2.164   0.366   2.935  0.8011  0.3966  0.0846
   56MOL    H7040880   2.177   0.271   2.804 -1.7535 -2.0547  1.9100
   56MOL    H7140881   2.330   0.407   2.755 -0.9279  0.1192  0.1953
   56MOL    H7240882   2.433   0.282   2.815 -0.2449  0.8350 -1.9916
   56MOL    H7340883   2.528   0.498   2.886 -0.4170  1.5587 -1.0715
   56MOL    H7440884   2.475   0.415   3.034 -1.6775  0.5206 -0.0541
   56MOL    H7540885   2.291   0.563   3.070  1.7475  1.2908  2.1474
   56MOL    C7640886   2.365   0.695   2.941  0.2122 -0.2347  0.5148
   56MOL    O7740887   2.423   0.729   2.839 -1.0465  0.3957  0.2149
   56MOL    C7840888   2.320   0.802   3.039 -0.0789  0.2868 -0.0857
   56MOL    C7940889   2.343   0.948   2.988  0.6264  0.0502  0.3770
   56MOL    C8040890   2.248   1.048   3.052 -0.3019  0.0411 -0.1988
   56MOL    C8140891   2.108   1.049   2.988  0.0475  0.3538  0.2350
   56MOL    C8240892   2.026   1.170   3.022  0.0602 -0.2867  0.4362
   56MOL    C8340893   1.886   1.166   2.962  0.0613 -0.3437 -0.5265
   56MOL    C8440894   1.789   1.264   3.023  1.0298 -0.0505  0.1468
   56MOL    C8540895   1.639   1.234   2.983 -0.0951 -0.1930 -1.1459
   56MOL    C8640896   1.542   1.325   3.059 -0.7500  0.2119 -0.0291
   56MOL    C8740897   1.398   1.288   3.016 -0.0319  0.1257 -0.4284
   56MOL    C8840898   1.289   1.339   3.118 -0.3984  0.0229  0.4303
   56MOL    N8940899   1.165   1.307   3.058  0.3994 -0.2313  0.3429
   56MOL    H9040900   2.374   0.786   3.132 -1.4839 -0.4493  0.6181
   56MOL    H9140901   2.213   0.790   3.058 -0.3908 -0.2820 -2.1130
   56MOL    H9240902   2.444   0.977   3.014  0.3848 -0.7409  2.3053
   56MOL    H9340903   2.352   0.966   2.881 -3.5991 -1.8278 -0.3999
   56MOL    H9440904   2.297   1.145   3.045 -0.6189  0.0429 -3.0147
   56MOL    H9540905   2.234   1.031   3.158 -1.1181 -0.5575 -0.3979
   56MOL    H9640906   2.134   1.031   2.883 -0.2106  0.0658  0.2225
   56MOL    H9740907   2.064   0.955   3.020 -0.2043 -0.8697 -3.4929
   56MOL    H9840908   2.086   1.257   2.995  1.6783 -1.2615  0.8054
   56MOL    H9940909   2.016   1.166   3.130  0.5486  1.7123  0.5743
   56MOL   H10040910   1.838   1.068   2.961 -3.1627  1.1237  1.4548
   56MOL   H10140911   1.894   1.190   2.856  0.5173 -1.0346 -0.6458
   56MOL   H10240912   1.813   1.368   3.000  1.6595 -0.5857 -1.6587
   56MOL   H10340913   1.803   1.274   3.131 -0.4421  3.8250  0.0841
   56MOL   H10440914   1.629   1.129   3.012 -1.7707 -0.0562 -1.2087
   56MOL   H10540915   1.627   1.228   2.875 -1.8034  2.1879 -1.1139
   56MOL   H10640916   1.560   1.427   3.028  0.7863 -0.0829 -0.1489
   56MOL   H10740917   1.551   1.319   3.168 -0.9920 -0.6679 -0.0482
   56MOL   H10840918   1.388   1.185   2.983  2.8293 -0.1766 -0.4339
   56MOL   H10940919   1.373   1.338   2.922 -1.3010 -0.5787 -0.4836
   56MOL   H11040920   1.296   1.447   3.132  0.7508 -0.0802  0.7063
   56MOL   H11140921   1.311   1.299   3.217  1.5869  2.0767  0.8600
   56MOL   H11240922   1.168   1.250   2.974  2.4334 -1.6080  1.3213
   56MOL   C11340923   1.041   1.333   3.110 -0.0739  0.3495 -0.5988
   56MOL   O11440924   1.031   1.397   3.215 -0.0215  0.2104  0.0040
   56MOL   C11540925   0.918   1.297   3.032 -0.0885 -0.2068 -0.2962
   56MOL   C11640926   0.835   1.193   3.105  0.1693 -0.2333 -0.6157
   56MOL   C11740927   0.715   1.162   3.010  0.3844  0.5578 -0.1268
   56MOL   C11840928   0.601   1.262   3.036 -0.2739  0.1243  0.2178
   56MOL   C11940929   0.479   1.234   2.948 -0.1331 -0.2294  0.4955
   56MOL   C12040930   0.364   1.174   3.039 -0.2798  1.3451  0.0449
   56MOL   C12140931   0.251   1.131   2.952  0.4230  0.3819 -0.5701
   56MOL   C12240932   0.147   1.049   3.039 -0.2884 -0.0701  0.0102
   56MOL   C12340933   0.037   0.979   2.962  0.0495  0.3475 -0.7171
   56MOL   C12440934   7.603   0.947   3.038  0.4310 -0.3135 -0.9242
   56MOL   C12540935   7.494   0.890   2.947  0.0923 -0.0449 -0.6788
   56MOL   N12640936   7.442   0.994   2.857  0.5534 -0.2576  0.5502
   56MOL   H12740937   0.964   1.258   2.942  0.4264  0.2988 -0.2546
   56MOL   H12840938   0.863   1.387   3.003  1.3531 -0.4196 -3.9950
   56MOL   H12940939   0.889   1.101   3.126  1.2717  0.8490  1.4129
   56MOL   H13040940   0.795   1.230   3.199 -0.3349 -0.0996 -0.8788
   56MOL   H13140941   0.674   1.069   3.049 -0.7130  1.8336  1.8264
   56MOL   H13240942   0.745   1.149   2.906 -0.0047  0.2581 -0.2015
   56MOL   H13340943   0.573   1.255   3.141 -1.4523 -2.2828 -0.2326
   56MOL   H13440944   0.629   1.366   3.023 -1.4756  0.2627 -1.2506
   56MOL   H13540945   0.519   1.165   2.874  2.2331 -1.1731  2.5720
   56MOL   H13640946   0.448   1.325   2.897 -2.2954 -0.4579  1.3348
   56MOL   H13740947   0.342   1.244   3.120 -0.5493  1.6467 -0.2892
   56MOL   H13840948   0.401   1.082   3.085  0.1938  1.4900 -0.0382
   56MOL   H13940949   0.289   1.060   2.879  0.4168 -0.2966  0.0876
   56MOL   H14040950   0.199   1.217   2.909  0.7520  1.5655  1.3480
   56MOL   H14140951   0.089   1.111   3.109  1.3122  0.7274  0.6561
   56MOL   H14240952   0.182   0.965   3.098  1.6763 -0.1541 -1.2527
   56MOL   H14340953   0.077   0.885   2.925  0.5301 -0.4226  1.7166
   56MOL   H14440954   0.022   1.044   2.875  0.3928  2.7425  0.9729
   56MOL   H14540955   7.579   1.026   3.109  1.7335 -2.3446  1.8267
   56MOL   H14640956   7.637   0.867   3.103  0.5311 -0.2148 -0.8533
   56MOL   H14740957   7.417   0.857   3.016  0.1836 -0.6419 -0.8666
   56MOL   H14840958   7.533   0.806   2.889 -1.0936 -1.1963  0.1686
   56MOL   H14940959   7.502   1.072   2.832  0.2892 -0.8169 -1.9224
   56MOL   C15040960   7.319   1.012   2.818  0.2199 -0.1781  0.5499
   56MOL   O15140961   7.234   0.930   2.848  0.1898  0.3147 -0.2846
   56MOL   C15240962   7.279   1.136   2.732 -0.3488  0.1607 -0.3034
   56MOL   C15340963   7.174   1.224   2.799 -0.1491 -0.2738 -0.5786
   56MOL   C15440964   7.124   1.349   2.720 -0.3520 -0.7212  0.5524
   56MOL   C15540965   7.010   1.431   2.773  0.2770 -0.5345  0.2433
   56MOL   C15640966   6.869   1.370   2.767  0.2134 -0.0682  0.0304
   56MOL   C15740967   6.757   1.468   2.774 -0.3193 -0.2284  0.0777
   56MOL   C15840968   6.623   1.405   2.788  0.4441  0.3951 -0.1362
   56MOL   C15940969   6.511   1.500   2.790 -0.1029  0.2812 -0.4097
   56MOL   C16040970   6.373   1.433   2.754 -0.3252  0.3839  0.6394
   56MOL   C16140971   6.264   1.537   2.774 -0.0835  0.2909  1.0037
   56MOL   C16240972   6.243   1.638   2.652  0.8531 -0.1070 -0.2494
   56MOL   N16340973   6.134   1.731   2.670  0.4462 -0.1509 -0.5556
   56MOL   H16440974   7.236   1.102   2.638 -1.2700  0.0240  0.1717
   56MOL   H16540975   7.358   1.207   2.708 -0.3325  0.4498  0.5788
   56MOL   H16640976   7.083   1.169   2.826 -1.7763  1.6502 -2.0602
   56MOL   H16740977   7.208   1.254   2.898  0.9589 -0.1623 -0.9823
   56MOL   H16840978   7.086   1.329   2.620 -1.9063 -0.4065  1.0741
   56MOL   H16940979   7.202   1.423   2.704 -0.2685 -0.9811 -0.3131
   56MOL   H17040980   7.040   1.471   2.869 -1.2099  0.9473  0.1124
   56MOL   H17140981   7.002   1.510   2.698 -0.3330 -1.6978 -0.9468
   56MOL   H17240982   6.870   1.309   2.857 -0.0336  0.5382  0.4458
   56MOL   H17340983   6.860   1.306   2.680  0.2157  0.6691 -0.5216
   56MOL   H17440984   6.744   1.517   2.677 -2.2215  2.8014  1.7670
   56MOL   H17540985   6.789   1.541   2.849  1.1378 -0.2703 -0.4888
   56MOL   H17640986   6.614   1.339   2.875  0.2708 -0.4034 -0.7476
   56MOL   H17740987   6.606   1.338   2.703 -0.3469  1.3721 -0.7645
   56MOL   H17840988   6.532   1.587   2.728  1.1767 -0.0794 -0.5020
   56MOL   H17940989   6.503   1.532   2.894  0.2138 -2.4633  0.4879
   56MOL   H18040990   6.353   1.349   2.820  0.3984 -1.3070 -1.2292
   56MOL   H18140991   6.367   1.385   2.656  0.2866 -0.8734  1.2036
   56MOL   H18240992   6.289   1.592   2.864  1.5391  3.3921 -1.2651
   56MOL   H18340993   6.175   1.473   2.783 -1.5621  1.9357 -1.4590
   56MOL   H18440994   6.226   1.587   2.557 -1.1886 -1.6980  0.9347
   56MOL   H18540995   6.334   1.697   2.638  2.1008 -2.2995 -1.8249
   56MOL   H18640996   6.053   1.697   2.720  2.0442 -0.8298  1.6116
   56MOL   C18740997   6.137   1.865   2.647 -0.3995  0.3543 -0.0206
   56MOL   O18840998   6.232   1.921   2.598 -0.4065 -0.1682  0.3401
   56MOL   C18940999   6.006   1.937   2.681  0.4049  0.2170 -0.2158
   56MOL   C19041000   6.023   2.084   2.718  0.0427  1.0094  0.1174
   56MOL   C19141001   5.892   2.157   2.725  0.0723  0.0931  0.0260
   56MOL   C19241002   5.924   2.306   2.763 -0.8723  0.2400 -0.3618
   56MOL   C19341003   5.810   2.403   2.734  0.8602 -0.2570  0.7199
   56MOL   C19441004   5.829   2.548   2.779 -0.1683 -0.5355  0.6419
   56MOL   C19541005   5.848   2.561   2.928  0.3185 -0.1280  0.0650
   56MOL   C19641006   5.830   2.698   2.993  0.0613  0.5374 -0.5051
   56MOL   C19741007   5.837   2.680   3.146  1.1214 -0.2876  0.3264
   56MOL   C19841008   5.760   2.802   3.211 -0.2376 -0.2277  0.1106
   56MOL   C19941009   5.822   2.941   3.192  0.1038 -0.7484  0.1738
   56MOL   N20041010   5.968   2.929   3.224  0.5601 -1.2360 -0.3977
   56MOL   H20141011   5.960   1.886   2.765 -1.8192  0.1831 -1.4217
   56MOL   H20241012   5.932   1.915   2.604 -0.1704  0.5327  0.2446
   56MOL   H20341013   6.080   2.099   2.810 -1.7814 -0.5935  1.5536
   56MOL   H20441014   6.087   2.131   2.644  0.3912  1.6527  0.8144
   56MOL   H20541015   5.819   2.115   2.795 -0.9218 -0.0684 -1.0814
   56MOL   H20641016   5.848   2.150   2.626 -3.6545 -0.6952  1.6319
   56MOL   H20741017   5.950   2.307   2.869 -1.7948 -2.2385 -0.0794
   56MOL   H20841018   6.012   2.346   2.714  0.1204  1.0167  1.9616
   56MOL   H20941019   5.723   2.369   2.791  0.5034 -0.2760  0.1666
   56MOL   H21041020   5.781   2.387   2.630  1.0859  0.2541  0.5825
   56MOL   H21141021   5.738   2.601   2.751  1.3124  0.4971 -2.5451
   56MOL   H21241022   5.905   2.594   2.715 -0.0400 -1.3409  0.2175
   56MOL   H21341023   5.943   2.524   2.964  0.9698  0.5807 -0.9088
   56MOL   H21441024   5.776   2.489   2.967 -1.4838  0.7761 -1.4929
   56MOL   H21541025   5.733   2.736   2.959 -0.9682 -2.4092 -0.9779
   56MOL   H21641026   5.903   2.771   2.958 -1.0013  2.5045  1.2272
   56MOL   H21741027   5.939   2.658   3.177  2.0247  0.3964 -2.0214
   56MOL   H21841028   5.784   2.596   3.192  2.6338 -1.5400 -0.1558
   56MOL   H21941029   5.753   2.771   3.315  1.0961  0.4505  0.4108
   56MOL   H22041030   5.657   2.808   3.175 -0.5905 -0.8034  1.0114
   56MOL   H22141031   5.769   3.018   3.249  2.1945  0.1165  1.0079
   56MOL   H22241032   5.823   2.961   3.085 -3.1514  1.4817  0.4963
   56MOL   H22341033   5.999   2.833   3.236 -0.2179 -1.4795 -0.2631
   56MOL   C22441034   6.062   3.026   3.214 -0.1889 -0.0420 -0.7262
   56MOL   O22541035   6.036   3.140   3.171 -0.3837  0.2593 -0.0976
   56MOL   C22641036   6.202   2.991   3.269  0.0441 -0.4197  0.3646
   56MOL   C22741037   6.321   2.965   3.176 -0.1965  0.0361 -0.0616
   56MOL   C22841038   6.295   2.852   3.074  0.1817  0.3556  0.2597
   56MOL   C22941039   6.272   2.706   3.135 -0.1197 -0.4123  0.1286
   56MOL   C23041040   6.269   2.597   3.027  0.9570  0.4322  1.3012
   56MOL   C23141041   6.269   2.463   3.082  0.3645  0.1247  0.3841
   56MOL   C23241042   6.293   2.364   2.961  0.2293 -0.1914 -0.0752
   56MOL   C23341043   6.278   2.214   2.998  0.1692 -0.1808  0.1512
   56MOL   C23441044   6.356   2.110   2.917  0.2912  0.0337  0.1420
   56MOL   C23541045   6.339   1.963   2.963  0.6697 -0.4023 -0.1155
   56MOL   C23641046   6.423   1.860   2.903  0.5797  0.6364  0.8005
   56MOL   N23741047   6.569   1.900   2.897 -0.0198 -0.3994 -0.6384
   56MOL   H23841048   6.179   2.903   3.329 -0.2560 -1.1618 -0.8175
   56MOL   H23941049   6.216   3.084   3.324 -1.0461  0.8031 -1.3748
   56MOL   H24041050   6.344   3.048   3.109  1.5683  0.0743  0.5805
   56MOL   H24141051   6.412   2.932   3.225 -0.8487 -0.6093  0.7494
   56MOL   H24241052   6.379   2.862   3.006  0.0735 -2.0937 -0.2703
   56MOL   H24341053   6.211   2.872   3.007 -0.2452 -0.8705  0.4275
   56MOL   H24441054   6.336   2.687   3.221  1.0768 -1.5328 -0.9883
   56MOL   H24541055   6.169   2.710   3.171 -1.2947  2.4127 -3.2256
   56MOL   H24641056   6.357   2.618   2.966  0.3162 -1.8509 -0.4806
   56MOL   H24741057   6.178   2.611   2.969  0.3868  0.1000  2.1166
   56MOL   H24841058   6.172   2.440   3.126  1.3441 -3.4133  0.8881
   56MOL   H24941059   6.349   2.457   3.156 -0.7926  1.0632  1.7189
   56MOL   H25041060   6.394   2.385   2.925 -0.1744 -0.4704 -1.4091
   56MOL   H25141061   6.222   2.381   2.881 -0.5179 -0.3771  0.5454
   56MOL   H25241062   6.173   2.189   3.009 -0.5122  2.1736 -0.6304
   56MOL   H25341063   6.312   2.206   3.101 -0.9075 -0.8200  0.4607
   56MOL   H25441064   6.461   2.135   2.929  0.1378  1.3417 -0.9916
   56MOL   H25541065   6.322   2.110   2.813 -0.3988 -2.5432  0.3465
   56MOL   H25641066   6.233   1.937   2.955 -0.0025  1.6235  1.6197
   56MOL   H25741067   6.367   1.959   3.068  1.3058  0.5252 -0.2434
   56MOL   H25841068   6.400   1.858   2.796 -0.5269  1.4031  1.0139
   56MOL   H25941069   6.415   1.757   2.937  1.5534 -0.2392 -1.5300
   56MOL   H26041070   6.608   1.959   2.825 -0.1283 -0.5370 -0.8110
   56MOL   C26141071   6.660   1.863   2.978 -0.3554  0.0811 -0.1366
   56MOL   O26241072   6.631   1.782   3.064  0.4048 -0.0774 -0.1156
   56MOL   C26341073   6.806   1.897   2.934 -0.6578 -0.8969  0.0225
   56MOL   C26441074   6.918   1.810   2.997 -1.1902 -0.2086  0.4791
   56MOL   C26541075   6.948   1.822   3.153 -0.3160 -0.0717  0.3477
   56MOL   C26641076   7.029   1.947   3.191 -0.0593  0.2272  0.5938
   56MOL   C26741077   7.065   1.948   3.345  0.0403 -0.9485  0.0910
   56MOL   C26841078   7.089   2.085   3.401  0.1322  0.0047  0.2926
   56MOL   C26941079   7.126   2.090   3.553  0.0761  0.3817  0.6721
   56MOL   C27041080   7.070   1.984   3.651  0.3078  0.2276 -0.1005
   56MOL   C27141081   7.102   2.012   3.799 -0.1577 -0.4473 -0.0850
   56MOL   C27241082   7.014   2.121   3.865 -0.2955 -0.2041 -0.2768
   56MOL   C27341083   7.034   2.140   4.015 -0.1352 -0.2158  0.9779
   56MOL   N27441084   6.942   2.243   4.063 -0.3321  0.1442 -0.5050
   56MOL   H27541085   6.831   2.000   2.955  2.8139 -1.8678  0.9279
   56MOL   H27641086   6.806   1.878   2.826  0.1340 -1.4250  0.1082
   56MOL   H27741087   6.891   1.707   2.975 -3.5703  0.4839  0.0166
   56MOL   H27841088   7.015   1.829   2.951 -1.7554  0.5514 -0.4182
   56MOL   H27941089   6.982   1.731   3.202 -1.1251 -0.7310 -0.2966
   56MOL   H28041090   6.850   1.832   3.200  0.0680  3.2418  0.6107
   56MOL   H28141091   7.119   1.937   3.130 -1.0887 -1.7371 -0.6562
   56MOL   H28241092   6.992   2.045   3.162  1.1050  0.8559  1.1920
   56MOL   H28341093   7.144   1.874   3.358  0.9092 -0.2878 -1.4063
   56MOL   H28441094   6.989   1.906   3.411 -0.6452 -1.2229 -0.8618
   56MOL   H28541095   7.003   2.152   3.389  1.2681  1.6656  1.1608
   56MOL   H28641096   7.164   2.140   3.344 -0.3900  1.3087  0.8436
   56MOL   H28741097   7.105   2.192   3.585 -2.8198  0.6992 -2.0682
   56MOL   H28841098   7.235   2.087   3.542 -0.1294  0.7037 -1.5767
   56MOL   H28941099   7.117   1.889   3.626 -0.9426 -1.0874  2.4148
   56MOL   H29041100   6.962   1.978   3.641  0.3390 -0.8109  0.2254
   56MOL   H29141101   7.208   2.037   3.793 -0.5139  0.7584 -1.2429
   56MOL   H29241102   7.082   1.917   3.850 -1.4117  0.6831  1.6028
   56MOL   H29341103   6.909   2.101   3.843 -0.0836  0.3974 -1.8643
   56MOL   H29441104   7.035   2.216   3.816  4.3679 -1.3604 -0.7174
   56MOL   H29541105   7.131   2.188   4.028 -0.2690  0.5650 -0.7422
   56MOL   H29641106   7.030   2.055   4.082  2.5589 -0.2302  1.1648
   56MOL   H29741107   6.892   2.296   3.992 -0.7791 -0.7100 -0.8386
   56MOL   C29841108   6.933   2.291   4.186  0.0681 -0.4425 -0.8314
   56MOL   O29941109   6.989   2.232   4.282 -0.3587  0.6681 -0.3997
   56MOL   C30041110   6.856   2.420   4.215 -0.2053  0.0379 -0.1077
   56MOL   C30141111   6.731   2.393   4.300  0.0774  0.6016  0.3733
   56MOL   C30241112   6.628   2.301   4.232  0.2100 -0.2363  0.2638
   56MOL   C30341113   6.489   2.334   4.305  0.3266  0.4330 -0.3716
   56MOL   C30441114   6.468   2.284   4.452 -0.2122 -0.6164  0.3430
   56MOL   C30541115   6.351   2.347   4.529  0.4385 -0.3701  0.4401
   56MOL   C30641116   6.291   2.252   4.630  0.0011  0.0073 -0.5360
   56MOL   C30741117   6.170   2.308   4.714  0.3867 -0.0017 -0.0661
   56MOL   C30841118   6.130   2.217   4.829  0.2513  0.3504  0.7168
   56MOL   C30941119   6.006   2.262   4.902 -0.0889 -0.0180 -0.5023
   56MOL   C31041120   5.964   2.158   5.002 -0.3855 -0.2402 -0.1362
   56MOL   N31141121   5.841   2.199   5.071  0.4422  0.1586  0.9659
   56MOL   H31241122   6.827   2.471   4.123 -0.5110  1.0467  0.5359
   56MOL   H31341123   6.925   2.482   4.273  1.3629 -1.0599 -0.7807
   56MOL   H31441124   6.757   2.341   4.393  1.4772  0.1685 -0.2427
   56MOL   H31541125   6.682   2.487   4.324 -0.4462  0.5601 -0.5256
   56MOL   H31641126   6.651   2.197   4.254  0.3238 -0.5193 -1.2001
   56MOL   H31741127   6.629   2.328   4.127  0.6279  1.2303  0.6351
   56MOL   H31841128   6.467   2.439   4.289 -2.5135 -0.3334 -1.8989
   56MOL   H31941129   6.406   2.296   4.245 -0.7897 -0.9042  1.9585
   56MOL   H32041130   6.551   2.317   4.515 -0.1078  0.1919 -0.2188
   56MOL   H32141131   6.472   2.176   4.448  1.8435 -0.5793  0.6802
   56MOL   H32241132   6.271   2.365   4.457  1.1552 -0.2305 -0.3208
   56MOL   H32341133   6.377   2.445   4.568 -0.2214 -0.3982  0.9607
   56MOL   H32441134   6.370   2.224   4.699 -0.9843  0.0356  0.6283
   56MOL   H32541135   6.250   2.162   4.582  0.2460  0.1861 -1.0764
   56MOL   H32641136   6.088   2.345   4.652 -1.7015 -2.0149  1.3976
   56MOL   H32741137   6.200   2.402   4.761 -3.4053  1.1564  0.2334
   56MOL   H32841138   6.216   2.204   4.895 -0.8858 -2.4216  1.7376
   56MOL   H32941139   6.125   2.117   4.784 -0.1274  1.0681 -0.8723
   56MOL   H33041140   5.928   2.282   4.828 -0.6203  0.1018  0.0852
   56MOL   H33141141   6.020   2.355   4.956  1.9236 -1.1781  1.0348
   56MOL   H33241142   6.034   2.131   5.081 -2.6712 -0.6679  1.7984
   56MOL   H33341143   5.945   2.064   4.951  0.1974 -0.6977  0.4846
   56MOL   H33441144   5.800   2.288   5.044  1.2257  0.2122 -0.0558
   56MOL   C33541145   5.762   2.113   5.142  0.3909 -0.0405  0.1128
   56MOL   O33641146   5.784   1.995   5.162  0.1877 -0.4299 -0.6245
   56MOL   C33741147   5.644   2.183   5.196 -0.3889 -0.1528  0.0417
   56MOL   C33841148   5.536   2.091   5.254  0.2115 -1.5378  0.3628
   56MOL   C33941149   5.411   2.176   5.282 -0.1191  0.1275 -0.2603
   56MOL   C34041150   5.423   2.297   5.378 -0.2227  0.4807  0.7175
   56MOL   C34141151   5.300   2.383   5.394 -0.6640  0.5207 -0.3622
   56MOL   C34241152   5.329   2.505   5.484  0.0737 -0.0356  0.3056
   56MOL   C34341153   5.212   2.595   5.519  0.8143  0.1868 -0.0340
   56MOL   C34441154   5.125   2.524   5.620 -0.6283  0.1978 -0.1703
   56MOL   C34541155   5.028   2.620   5.695 -0.5314  0.4215  0.3186
   56MOL   C34641156   4.943   2.559   5.806  0.0322 -0.1935  0.4781
   56MOL   C34741157   4.814   2.631   5.851 -0.7356 -0.6508  0.1419
   56MOL   N34841158   4.836   2.760   5.923  0.0701  0.1422 -0.2780
   56MOL   H34941159   5.604   2.244   5.115 -0.2510 -2.2679 -1.6466
   56MOL   H35041160   5.698   2.249   5.264  0.3495 -1.1101  0.3927
   56MOL   H35141161   5.516   2.005   5.191  2.3260 -1.0832 -1.0050
   56MOL   H35241162   5.568   2.044   5.347  1.1140 -0.5384  0.5736
   56MOL   H35341163   5.332   2.109   5.318 -0.4746  0.2910 -0.7295
   56MOL   H35441164   5.386   2.216   5.184 -0.0438  1.6346  0.3206
   56MOL   H35541165   5.459   2.268   5.477 -0.7916  0.6716  0.9847
   56MOL   H35641166   5.505   2.359   5.341  0.3952 -0.5635  0.3009
   56MOL   H35741167   5.214   2.333   5.438  0.0164  0.9482  1.5161
   56MOL   H35841168   5.272   2.418   5.295  1.0791 -1.3953 -1.5786
   56MOL   H35941169   5.400   2.572   5.435 -0.6433 -1.3983 -2.7123
   56MOL   H36041170   5.371   2.459   5.573  2.7816 -0.2520 -1.0601
   56MOL   H36141171   5.146   2.616   5.435 -0.5951 -1.9849  0.4960
   56MOL   H36241172   5.250   2.691   5.554  2.3067 -0.7214  0.9122
   56MOL   H36341173   5.197   2.485   5.692  0.5982 -0.5794 -1.7899
   56MOL   H36441174   5.066   2.451   5.565  0.5624 -0.3398 -0.7510
   56MOL   H36541175   4.967   2.661   5.614  2.4268  1.3827 -1.4867
   56MOL   H36641176   5.083   2.703   5.738 -0.7525  0.9038 -0.3323
   56MOL   H36741177   5.000   2.516   5.888 -0.1974 -1.2549  0.0928
   56MOL   H36841178   4.907   2.471   5.752  0.0008  1.5779 -2.4979
   56MOL   H36941179   4.749   2.567   5.911 -0.9346  0.0030  0.6323
   56MOL   H37041180   4.767   2.660   5.757 -0.9485 -2.7918 -0.4248
   56MOL   H37141181   4.784   2.838   5.887 -3.6306 -1.5522  1.1451
   56MOL   C37241182   4.903   2.783   6.036  0.8052  0.2149  0.3188
   56MOL   O37341183   4.960   2.697   6.097 -0.2319 -0.3863  0.0505
   56MOL   C37441184   4.917   2.936   6.063  1.0645  0.6344  0.3436
   56MOL   C37541185   5.052   2.974   6.135  0.3775 -0.3506  0.4439
   56MOL   C37641186   5.089   3.124   6.137  0.0022  0.8587  0.1918
   56MOL   C37741187   5.236   3.152   6.195  0.1388  0.3067  0.1335
   56MOL   C37841188   5.286   3.297   6.170 -0.0477  0.1701 -0.1393
   56MOL   C37941189   5.323   3.319   6.021 -0.7195 -0.3551 -0.2299
   56MOL   C38041190   5.463   3.270   5.987  0.3892 -0.4272  0.4383
   56MOL   C38141191   5.514   3.310   5.851  0.2908 -0.6323  0.3487
   56MOL   C38241192   5.664   3.252   5.823  0.1290  0.1722 -0.5044
   56MOL   C38341193   5.722   3.271   5.681  0.2522 -0.6589  0.5071
   56MOL   C38441194   5.774   3.411   5.651 -0.2278  0.1099 -0.5813
   56MOL   N38541195   5.871   3.417   5.537  0.0924  0.6463 -0.5872
   56MOL   H38641196   4.841   2.972   6.134  0.2876  0.5539 -0.4399
   56MOL   H38741197   4.907   2.991   5.970 -0.8356 -2.4553 -1.3453
   56MOL   H38841198   5.057   2.934   6.236  0.4337  0.1474  0.6412
   56MOL   H38941199   5.134   2.917   6.092 -1.5436 -1.3223 -2.0262
   56MOL   H39041200   5.031   3.185   6.206 -0.0373 -0.7018  1.5733
   56MOL   H39141201   5.094   3.168   6.038 -1.5510  3.2687  1.1525
   56MOL   H39241202   5.238   3.124   6.300  0.3997  0.3426  0.1371
   56MOL   H39341203   5.306   3.085   6.144  0.0726  1.7406 -1.9270
   56MOL   H39441204   5.363   3.322   6.243  0.4373  1.4828 -1.0718
   56MOL   H39541205   5.207   3.367   6.199 -0.1838  0.0718 -0.2770
   56MOL   H39641206   5.325   3.428   6.012  0.3560 -0.0006  3.2568
   56MOL   H39741207   5.252   3.273   5.953 -0.9838  0.0960 -0.2602
   56MOL   H39841208   5.479   3.162   5.996  0.4198 -0.2708  2.4740
   56MOL   H39941209   5.525   3.318   6.062  1.4026 -2.4269  0.9147
   56MOL   H40041210   5.518   3.419   5.840  0.1282 -0.6721 -0.0846
   56MOL   H40141211   5.451   3.302   5.763 -0.5540 -0.2207  0.9118
   56MOL   H40241212   5.637   3.148   5.843 -1.9465  0.9905  1.1098
   56MOL   H40341213   5.728   3.276   5.908 -0.4100  1.9504 -0.5690
   56MOL   H40441214   5.647   3.236   5.611  0.3421 -0.7988  0.4809
   56MOL   H40541215   5.789   3.186   5.669 -1.4156 -1.6855 -1.8375
   56MOL   H40641216   5.827   3.436   5.743  1.4908 -0.2657 -1.4506
   56MOL   H40741217   5.690   3.481   5.648  0.7724  1.4478  1.6354
   56MOL   H40841218   5.964   3.401   5.574  0.6809  1.3111 -1.7223
   56MOL   C40941219   5.835   3.424   5.405 -0.0572  0.0029 -1.4611
   56MOL   O41041220   5.719   3.438   5.378 -0.0059  0.1620  0.1045
   56MOL   C41141221   5.947   3.422   5.301 -0.3593 -0.1843 -0.0647
   56MOL   C41241222   5.897   3.388   5.152  0.3913  0.2966  0.5809
   56MOL   C41341223   5.901   3.504   5.049  0.6130  0.5192 -0.5280
   56MOL   C41441224   5.814   3.632   5.072 -0.6112 -0.5165  0.2890
   56MOL   C41541225   5.666   3.605   5.037 -0.0585  0.1484 -0.0680
   56MOL   C41641226   5.575   3.722   5.081  0.6192  0.3277 -0.5705
   56MOL   C41741227   5.427   3.700   5.026  0.5116  0.3560 -0.1467
   56MOL   C41841228   5.407   3.718   4.870 -0.4623  0.4955 -0.2762
   56MOL   C41941229   5.474   3.844   4.806  0.1296 -0.0285  1.2188
   56MOL   C42041230   5.437   3.866   4.658 -0.5097 -0.0437 -0.9423
   56MOL   C42141231   5.537   3.954   4.588 -0.5356  0.8493  1.0790
   56MOL   N42241232   5.572   4.077   4.647  0.2670 -0.3348 -0.1938
   56MOL   H42341233   6.012   3.339   5.328  0.1343  0.3923  0.5572
   56MOL   H42441234   6.007   3.513   5.314 -1.1406  0.5491 -1.4514
   56MOL   H42541235   5.966   3.314   5.112 -0.7770 -0.1612 -0.6070
   56MOL   H42641236   5.797   3.344   5.146 -0.5313  2.3734  0.5447
   56MOL   H42741237   5.870   3.454   4.957 -1.0550  1.4050 -0.4719
   56MOL   H42841238   5.999   3.552   5.042  0.9218 -0.1098 -0.5106
   56MOL   H42941239   5.818   3.665   5.175  0.9777  3.2938 -0.8998
   56MOL   H43041240   5.860   3.715   5.019 -1.3643 -0.8142 -0.8732
   56MOL   H43141241   5.627   3.513   5.080 -0.3007 -0.3864 -1.3944
   56MOL   H43241242   5.663   3.592   4.929  0.6455  0.1873 -0.0967
   56MOL   H43341243   5.618   3.820   5.059 -1.4251  0.6684 -3.2253
   56MOL   H43441244   5.571   3.717   5.190  3.7129  0.9747 -0.3700
   56MOL   H43541245   5.369   3.775   5.080 -2.4768 -0.8665 -1.5856
   56MOL   H43641246   5.377   3.611   5.064 -0.6364  1.5949  1.2993
   56MOL   H43741247   5.300   3.713   4.850 -0.1195 -0.1419 -2.0497
   56MOL   H43841248   5.439   3.635   4.807 -4.0522 -1.2719  0.1177
   56MOL   H43941249   5.581   3.840   4.825  0.0376  0.3007  1.8173
   56MOL   H44041250   5.445   3.936   4.856 -2.3713  1.4641 -2.7826
   56MOL   H44141251   5.329   3.882   4.648 -1.0231 -1.4851  1.8015
   56MOL   H44241252   5.447   3.767   4.613  1.5467 -0.9220  1.3269
   56MOL   H44341253   5.500   3.972   4.487 -0.1882 -0.6417  0.6677
   56MOL   H44441254   5.625   3.891   4.574 -0.9818  0.3632  0.4089
   56MOL   H44541255   5.669   4.090   4.675  0.3663  0.1210 -0.7341
   56MOL   C44641256   5.494   4.182   4.660  0.4884 -0.0063 -0.1314
   56MOL   O44741257   5.383   4.187   4.603  0.6689 -0.0736  0.4030
   56MOL   C44841258   5.543   4.295   4.751  0.7868  0.4332  0.3130
   56MOL   C44941259   5.611   4.399   4.670 -0.2049 -0.2575  0.7843
   56MOL   C45041260   5.690   4.504   4.755 -0.1460  0.5867  0.5325
   56MOL   C45141261   5.603   4.591   4.848 -0.0003 -0.2701  0.4952
   56MOL   C45241262   5.672   4.719   4.896  0.1624  0.0240  0.1860
   56MOL   C45341263   5.597   4.820   4.988 -0.8201 -0.3159 -1.2368
   56MOL   C45441264   5.673   4.953   5.013 -0.2127 -0.1603  0.7336
   56MOL   C45541265   5.681   5.039   4.891 -0.1177 -0.2726  0.1729
   56MOL   C45641266   5.738   5.181   4.931  0.0769 -0.1722 -0.1934
   56MOL   C45741267   5.866   5.167   5.024 -0.1615 -0.0213  0.0414
   56MOL   C45841268   5.938   5.300   5.039 -0.6632  0.1135 -0.8019
   56MOL   N45941269   5.865   5.422   5.047  0.1271 -0.4174 -0.1536
   56MOL   H46041270   5.605   4.249   4.828 -1.7542 -2.4207  0.7395
   56MOL   H46141271   5.451   4.331   4.797  1.0009  0.1476  0.9728
   56MOL   H46241272   5.680   4.351   4.600  2.9387  0.0055  3.5377
   56MOL   H46341273   5.535   4.453   4.614  2.7899  1.0138 -2.2308
   56MOL   H46441274   5.747   4.565   4.685 -1.4014  0.9692 -0.1695
   56MOL   H46541275   5.765   4.455   4.817 -0.3458  1.2272  1.2867
   56MOL   H46641276   5.510   4.607   4.794 -0.0139  1.2417  0.9239
   56MOL   H46741277   5.592   4.526   4.934 -1.9111  3.7350  3.4527
   56MOL   H46841278   5.699   4.777   4.808 -0.8901 -1.4360 -1.1362
   56MOL   H46941279   5.761   4.690   4.951  1.7074  1.5213 -1.4782
   56MOL   H47041280   5.579   4.759   5.077  0.6809 -1.7850 -1.8961
   56MOL   H47141281   5.493   4.842   4.966 -0.6565  2.6735  0.8032
   56MOL   H47241282   5.773   4.916   5.038 -0.5449 -0.7922  1.1406
   56MOL   H47341283   5.634   5.002   5.102 -0.5502  0.0886  0.4497
   56MOL   H47441284   5.579   5.044   4.854 -1.6875  0.5865  4.3948
   56MOL   H47541285   5.758   5.001   4.823  0.8022 -0.7330  1.4646
   56MOL   H47641286   5.664   5.224   4.998  0.9069  2.6445 -1.0496
   56MOL   H47741287   5.758   5.243   4.844  1.5832 -0.5146 -0.1097
   56MOL   H47841288   5.940   5.098   4.983  0.6661  2.1615 -2.2471
   56MOL   H47941289   5.845   5.135   5.126 -0.2368  0.7712  0.2790
   56MOL   H48041290   6.004   5.303   4.953 -1.8550  1.9550 -1.6758
   56MOL   H48141291   6.011   5.294   5.120 -1.3042 -1.0732 -0.2828
   56MOL   H48241292   5.793   5.442   5.116  2.4147  2.7702  1.3914
   56MOL   C48341293   5.883   5.532   4.974  0.0454  0.2551 -0.1298
   56MOL   O48441294   5.965   5.541   4.884 -0.4544  0.0466  0.4100
   56MOL   C48541295   5.783   5.651   4.985 -0.8417 -0.6030 -0.2428
   56MOL   C48641296   5.679   5.660   4.875  1.0559  0.3659 -0.5897
   56MOL   C48741297   5.568   5.558   4.889  0.3489  0.4469 -0.2599
   56MOL   C48841298   5.497   5.524   4.753 -0.5436  0.3136 -0.2233
   56MOL   C48941299   5.576   5.450   4.647 -0.0932  1.0568 -0.1752
   56MOL   C49041300   5.491   5.414   4.524 -0.3978 -0.3141  0.1076
   56MOL   C49141301   5.567   5.339   4.412  0.7546  0.0584 -0.4044
   56MOL   C49241302   5.490   5.316   4.279 -0.8718  0.4405 -1.2211
   56MOL   C49341303   5.464   5.444   4.206  0.0165 -0.0582  0.6635
   56MOL   C49441304   5.578   5.468   4.106 -0.2577  0.2733 -1.0080
   56MOL   C49541305   5.569   5.608   4.038 -0.5597 -0.2142 -0.3662
   56MOL   N49641306   5.664   5.632   3.938 -0.0049 -0.1439 -0.6678
   56MOL   H49741307   5.835   5.747   4.991  0.2895 -1.2161  0.1167
   56MOL   H49841308   5.739   5.639   5.084 -0.3769 -0.4332 -0.0112
   56MOL   H49941309   5.629   5.757   4.874  0.8405  0.2894  0.9763
   56MOL   H50041310   5.733   5.652   4.781 -0.7288  0.6523 -1.6536
   56MOL   H50141311   5.500   5.598   4.963  2.6472 -0.5674  2.4956
   56MOL   H50241312   5.604   5.469   4.941  0.2525  0.0170 -0.9135
   56MOL   H50341313   5.400   5.486   4.784  0.8120 -1.6720  1.7991
   56MOL   H50441314   5.482   5.618   4.700 -0.4163 -0.2760 -1.3143
   56MOL   H50541315   5.604   5.361   4.703 -1.0409  1.8623  1.6370
   56MOL   H50641316   5.662   5.508   4.614 -0.0494  1.3710  0.4728
   56MOL   H50741317   5.461   5.514   4.492  0.5925  0.3885  1.3591
   56MOL   H50841318   5.407   5.352   4.555 -0.5478  0.1485  0.6250
   56MOL   H50941319   5.586   5.237   4.447 -1.6960 -0.4050 -0.3284
   56MOL   H51041320   5.656   5.399   4.395  0.5701  0.2829 -0.5754
   56MOL   H51141321   5.401   5.257   4.299 -0.6027  0.5687  0.4339
   56MOL   H51241322   5.549   5.257   4.209  1.5838  1.1845  0.1699
   56MOL   H51341323   5.439   5.531   4.266 -2.2803 -1.4419  1.7880
   56MOL   H51441324   5.375   5.420   4.147  0.4612 -2.3172  0.8550
   56MOL   H51541325   5.582   5.397   4.023  0.3117 -2.0590  0.9770
   56MOL   H51641326   5.676   5.468   4.153  0.2557 -1.0248 -2.0374
   56MOL   H51741327   5.596   5.683   4.112  3.6402 -0.4169 -1.5289
   56MOL   H51841328   5.473   5.629   3.991 -2.3004 -4.0951  1.1719
   56MOL   H51941329   5.727   5.559   3.908 -1.7075 -1.7769 -0.4357
   56MOL   C52041330   5.652   5.737   3.856  0.1722 -0.0012 -0.2314
   56MOL   O52141331   5.578   5.830   3.883  0.1086 -0.2651 -0.8647
   56MOL   C52241332   5.725   5.727   3.723  0.0284  0.1118  0.0270
   56MOL   C52341333   5.788   5.861   3.674  0.2810  0.3123 -0.1255
   56MOL   C52441334   5.920   5.907   3.747  0.3847  0.3365 -0.2037
   56MOL   C52541335   5.996   6.021   3.671  0.3581  0.1258 -0.0351
   56MOL   C52641336   6.130   6.054   3.735 -0.2560 -0.2932 -0.6385
   56MOL   C52741337   6.121   6.116   3.873 -0.9955  0.1740  0.0334
   56MOL   C52841338   6.255   6.188   3.912 -0.0713 -0.7513  0.3875
   56MOL   C52941339   6.229   6.285   4.031  0.5855 -0.2491  0.9239
   56MOL   C53041340   6.351   6.358   4.080  0.1658 -0.2064  0.9579
   56MOL   C53141341   6.462   6.265   4.132 -0.1459  0.2575  0.1833
   56MOL   C53241342   6.571   6.323   4.224 -0.0551  0.1154  0.6000
   56MOL   N53341343   6.639   6.435   4.156  0.1689  0.1467 -0.6079
   56MOL   H53441344   5.653   5.684   3.653  2.4171 -1.2179 -1.6713
   56MOL   H53541345   5.804   5.653   3.733  1.1090  1.6455  3.6006
   56MOL   H53641346   5.807   5.867   3.567  1.4418  0.8444  0.1050
   56MOL   H53741347   5.713   5.940   3.690 -0.6484 -0.5719 -0.0680
   56MOL   H53841348   5.984   5.819   3.752 -1.7492 -1.2339  0.4881
   56MOL   H53941349   5.899   5.931   3.852  1.2440 -0.7247  0.2275
   56MOL   H54041350   6.019   5.980   3.573 -0.2625 -2.1923  0.7431
   56MOL   H54141351   5.924   6.103   3.667  1.6780  1.2035 -2.5249
   56MOL   H54241352   6.193   6.108   3.665  0.8651 -2.6140 -1.5015
   56MOL   H54341353   6.179   5.956   3.740 -2.7760 -1.6236 -1.0303
   56MOL   H54441354   6.096   6.035   3.940  1.8336 -1.0119 -0.2502
   56MOL   H54541355   6.043   6.193   3.873 -1.5883 -0.3882 -1.8447
   56MOL   H54641356   6.309   6.241   3.834  0.7989 -2.3394 -0.1178
   56MOL   H54741357   6.328   6.117   3.950 -1.3069 -2.9909 -1.2697
   56MOL   H54841358   6.174   6.233   4.109 -1.4232 -0.5430 -0.6555
   56MOL   H54941359   6.162   6.366   4.003  2.5405  0.4974 -1.8560
   56MOL   H55041360   6.331   6.437   4.153  0.2809 -0.2201  1.0032
   56MOL   H55141361   6.404   6.413   4.002  3.4762 -2.8684  1.2271
   56MOL   H55241362   6.506   6.227   4.040  0.4663  0.0485  0.5566
   56MOL   H55341363   6.424   6.176   4.181  0.5421  0.0953  0.4308
   56MOL   H55441364   6.650   6.250   4.245  1.6649  1.6810 -0.2673
   56MOL   H55541365   6.540   6.356   4.322 -0.3990  1.1072  0.1583
   56MOL   H55641366   6.579   6.508   4.121 -0.2354  0.2668  0.3279
   56MOL   C55741367   6.772   6.445   4.147  0.6046  0.6713 -0.3375
   56MOL   O55841368   6.846   6.360   4.194 -0.4481  0.4933 -0.0178
   56MOL   C55941369   6.833   6.572   4.087 -0.2894 -0.2066 -0.5301
   56MOL   C56041370   6.981   6.580   4.077 -0.0377 -0.0576 -0.0741
   56MOL   C56141371   7.059   6.619   4.209 -0.0481  0.2397 -0.2747
   56MOL   C56241372   7.079   6.770   4.216  0.5665  0.9062 -0.7674
   56MOL   C56341373   6.952   6.846   4.237 -0.6250  0.5450  0.3598
   56MOL   C56441374   6.976   6.982   4.311  0.3456 -0.3921  0.3361
   56MOL   C56541375   6.847   7.058   4.357  0.0627  0.1822  0.2147
   56MOL   C56641376   6.877   7.190   4.428 -0.4848 -0.2534 -0.1038
   56MOL   C56741377   6.784   7.230   4.545 -0.2490  0.3738 -0.0305
   56MOL   C56841378   6.827   7.349   4.623 -0.6951 -0.2330  0.2750
   56MOL   C56941379   6.720   7.393   4.721 -0.2854  0.2009  0.3462
   56MOL   N57041380   6.779   7.476   4.826 -0.3495 -0.3723  0.1494
   56MOL   H57141381   6.784   6.652   4.142  0.7832  0.1745 -0.1020
   56MOL   H57241382   6.796   6.575   3.984  0.3067 -0.9615 -0.7703
   56MOL   H57341383   7.016   6.484   4.042  1.5298 -0.4253  2.3455
   56MOL   H57441384   7.007   6.652   3.999  0.1657  0.9016  0.8521
   56MOL   H57541385   7.159   6.575   4.204  1.8748  4.1698  1.0522
   56MOL   H57641386   7.008   6.574   4.294  1.6293  0.1840  0.7333
   56MOL   H57741387   7.157   6.786   4.290 -1.6566 -2.9647  2.6780
   56MOL   H57841388   7.125   6.810   4.126 -2.5456  0.1872 -2.7638
   56MOL   H57941389   6.890   6.784   4.301  0.5941 -1.4877 -0.3795
   56MOL   H58041390   6.895   6.862   4.145  0.0310 -0.8601 -0.2985
   56MOL   H58141391   7.020   7.053   4.240 -0.5604 -1.8374 -1.7173
   56MOL   H58241392   7.051   6.976   4.389 -0.5434  0.8617  1.3050
   56MOL   H58341393   6.784   6.990   4.414  1.8939 -1.4002  0.3981
   56MOL   H58441394   6.787   7.086   4.271 -0.3432  0.7762  0.6840
   56MOL   H58541395   6.884   7.265   4.350 -1.1701 -0.9278 -0.8162
   56MOL   H58641396   6.978   7.191   4.472 -0.1404 -0.7637 -0.8760
   56MOL   H58741397   6.773   7.151   4.620 -1.6349  1.2827  0.7382
   56MOL   H58841398   6.684   7.257   4.514 -0.5482 -0.0206  0.5816
   56MOL   H58941399   6.861   7.426   4.553 -2.5525 -0.6202 -1.1087
   56MOL   H59041400   6.915   7.324   4.682  2.1005 -1.4846 -4.1938
   56MOL   H59141401   6.679   7.304   4.769  2.7684 -0.6958  1.4014
   56MOL   H59241402   6.631   7.438   4.677 -0.1368  0.1075 -0.0514
   56MOL   H59341403   6.872   7.454   4.859 -0.6190 -0.3470  0.9519
   56MOL   C59441404   6.706   7.561   4.898 -0.6616 -0.4518  0.7762
   56MOL   O59541405   6.584   7.588   4.872 -0.3324 -0.3794 -0.1010
   56MOL   C59641406   6.785   7.639   5.006  0.2006 -0.3347 -0.5330
   56MOL   C59741407   6.713   7.630   5.136 -0.4024 -0.7530 -0.2437
   56MOL   C59841408   6.790   0.006   5.253  0.1118  0.0689 -0.3406
   56MOL   C59941409   6.913   7.625   5.313  0.0522 -0.5806 -1.0419
   56MOL   C60041410   6.992   0.012   5.419 -0.5450 -0.2953 -0.6212
   56MOL   C60141411   7.116   7.630   5.481  0.2000 -0.2813  0.5406
   56MOL   C60241412   7.193   0.014   5.586 -0.0679  0.7209 -0.9772
   56MOL   C60341413   7.304   0.105   5.538 -0.7650  0.3632 -0.0732
   56MOL   C60441414   7.373   0.198   5.646 -0.2149  0.2855 -0.0023
   56MOL   C60541415   7.502   0.271   5.599  0.0350  0.4712 -0.7564
   56MOL   C60641416   7.465   0.398   5.522 -0.0687  0.9895 -0.3476
   56MOL   N60741417   7.593   0.468   5.488  0.6017  0.1543  0.1973
   56MOL   H60841418   6.778   0.050   4.976 -1.1180 -0.1893  0.2518
   56MOL   H60941419   6.890   7.611   5.013 -0.0789 -0.8091  2.3718
   56MOL   H61041420   6.620   7.687   5.136  0.3985  0.6167 -1.8542
   56MOL   H61141421   6.706   7.525   5.164 -2.8041 -0.4431  0.4162
   56MOL   H61241422   6.726   0.020   5.340 -0.3274 -1.7808 -0.3500
   56MOL   H61341423   6.812   0.107   5.220 -0.0787  0.4743  0.7467
   56MOL   H61441424   6.887   7.524   5.346  0.9403 -0.3164  0.5459
   56MOL   H61541425   6.983   7.609   5.231 -0.0736  0.5210 -1.3705
   56MOL   H61641426   6.918   0.043   5.492 -0.0580 -0.8634  0.1211
   56MOL   H61741427   7.024   0.105   5.371 -2.1873 -0.1086 -1.3796
   56MOL   H61841428   7.190   7.601   5.407  0.4416  0.9765  0.2811
   56MOL   H61941429   7.074   7.538   5.523  3.3314 -2.4389 -0.8123
   56MOL   H62041430   7.242   7.632   5.646 -0.7918  1.3994  0.5233
   56MOL   H62141431   7.116   0.061   5.648 -1.7148 -2.0458 -0.8056
   56MOL   H62241432   7.275   0.187   5.471 -0.8456  1.0396  0.7826
   56MOL   H62341433   7.379   0.043   5.490 -0.4963 -0.6770  1.6442
   56MOL   H62441434   7.405   0.139   5.732 -1.9340  2.0080  1.8792
   56MOL   H62541435   7.292   0.265   5.676 -2.4172 -0.8174 -3.1802
   56MOL   H62641436   7.547   0.203   5.527  0.4626  0.6917 -0.6962
   56MOL   H62741437   7.563   0.295   5.686  0.6178  1.2810 -1.3812
   56MOL   H62841438   7.414   0.469   5.587 -0.1137  1.8743 -1.3454
   56MOL   H62941439   7.406   0.375   5.433  0.1087 -0.0985 -0.1924
   56MOL   H63041440   7.669   0.448   5.552  0.7894 -0.6654 -0.2773
   56MOL   C63141441   7.614   0.538   5.376  0.1583 -0.1541  0.3526
   56MOL   O63241442   7.524   0.564   5.297  0.2733  0.5493  0.4592
   56MOL   C63341443   0.063   0.591   5.353 -0.2102  0.4947  0.0105
   56MOL   C63441444   0.083   0.722   5.423 -0.6306 -1.1642  1.0476
   56MOL   C63541445   0.076   0.729   5.575 -0.1238  0.5651  0.1510
   56MOL   C63641446   0.108   0.863   5.639 -0.6999  1.2591  0.0314
   56MOL   C63741447   0.159   0.855   5.789 -0.5866  0.2805 -0.1862
   56MOL   C63841448   0.176   0.996   5.847  0.2000 -0.5681  0.2572
   56MOL   C63941449   0.205   1.005   5.997  0.8668 -0.5083  0.4497
   56MOL   C64041450   0.193   1.143   6.051 -0.2127 -0.2621 -0.3031
   56MOL   C64141451   0.209   1.138   6.202 -0.0647  0.3581  0.1081
   56MOL   C64241452   0.243   1.274   6.257 -0.3961 -0.3134 -0.6652
   56MOL   C64341453   0.306   1.268   6.392 -0.1810  0.0164  0.3738
   56MOL   N64441454   0.330   1.401   6.443  0.2652  0.1543 -0.7335
   56MOL   H64541455   0.071   0.613   5.247  3.9559  2.6518  0.6585
   56MOL   H64641456   0.130   0.510   5.383  1.5450  1.9645  0.1710
   56MOL   H64741457   0.182   0.753   5.390 -1.2821 -1.0569 -0.8721
   56MOL   H64841458   0.012   0.793   5.381 -0.0003 -0.0191  1.8757
   56MOL   H64941459   0.134   0.647   5.617 -0.9224  0.0098  0.1707
   56MOL   H65041460   7.666   0.714   5.606 -0.6327 -4.4030 -3.3040
   56MOL   H65141461   0.191   0.899   5.578 -0.5621  0.1292 -0.4582
   56MOL   H65241462   0.017   0.924   5.644 -1.5548 -0.2079  3.9865
   56MOL   H65341463   0.252   0.799   5.792 -0.6489  0.2295  0.9696
   56MOL   H65441464   0.090   0.795   5.848 -1.3129  1.0393 -0.2583
   56MOL   H65541465   0.083   1.048   5.825 -0.0612 -0.1817  2.1490
   56MOL   H65641466   0.264   1.045   5.807  0.2595 -0.9421 -0.0679
   56MOL   H65741467   0.306   0.972   6.021  0.4033 -1.8574  0.5790
   56MOL   H65841468   0.132   0.940   6.045 -0.2306 -0.3762 -1.0092
   56MOL   H65941469   0.098   1.195   6.044  0.0046  0.0559 -0.9904
   56MOL   H66041470   0.256   1.212   5.994 -0.6701 -3.3158 -4.7845
   56MOL   H66141471   0.292   1.072   6.226 -2.0235 -2.5977 -0.9470
   56MOL   H66241472   0.126   1.092   6.255 -0.3801  1.0163  0.1790
   56MOL   H66341473   0.150   1.331   6.264  0.1924  0.5039  0.4888
   56MOL   H66441474   0.305   1.332   6.190 -1.5031  1.5950 -0.0905
   56MOL   H66541475   0.396   1.207   6.402 -1.2786 -2.0446 -1.6632
   56MOL   H66641476   0.232   1.224   6.458 -2.8215  0.7662 -1.9949
   56MOL   H66741477   0.311   1.479   6.382  2.8059  0.7169 -0.8411
   56MOL   C66841478   0.380   1.428   6.562  0.8023  0.7519 -0.0644
   56MOL   O66941479   0.387   1.350   6.654  0.9645  0.3292 -0.2743
   56MOL   C67041480   0.408   1.578   6.582 -0.6108  1.1235 -0.9276
   56MOL   C67141481   0.410   1.618   6.732  0.5464  0.4050 -0.0169
   56MOL   C67241482   0.452   1.763   6.752  0.1549  0.4251 -0.4628
   56MOL   C67341483   0.498   1.813   6.897 -0.0005 -0.4861  0.2813
   56MOL   C67441484   0.379   1.849   6.985 -0.0044  0.3209  0.9017
   56MOL   C67541485   0.411   1.864   7.135 -0.4096  0.7988  0.2374
   56MOL   C67641486   0.293   1.857   7.224 -0.0589 -0.1885 -0.3141
   56MOL   C67741487   0.329   1.898   7.369 -0.2608 -0.9475 -0.6045
   56MOL   C67841488   0.213   1.923   7.463 -0.5089  0.1878 -0.0816
   56MOL   C67941489   0.253   2.005   7.596 -0.1555 -0.1761 -0.2149
   56MOL   C68041490   0.119   2.022   7.674  0.3813  0.0002 -0.9429
   56MOL   N68141491   0.136   2.103   0.100 -0.2873  0.3768 -0.2683
   56MOL   H68241492   0.335   1.636   6.526 -2.8292 -1.8813 -1.3156
   56MOL   H68341493   0.503   1.610   6.541  0.2993 -0.8180 -0.4032
   56MOL   H68441494   0.311   1.597   6.773  1.4339  0.6710  2.3149
   56MOL   H68541495   0.485   1.558   6.782 -0.2659 -1.0396 -0.5154
   56MOL   H68641496   0.366   1.825   6.729  0.4367  0.6751 -0.8641
   56MOL   H68741497   0.535   1.783   6.684 -0.0307 -0.2671 -0.8931
   56MOL   H68841498   0.553   1.741   6.957  1.0835 -0.1716 -0.3314
   56MOL   H68941499   0.563   1.900   6.887 -0.2987 -0.4037 -1.0201
   56MOL   H69041500   0.318   1.759   6.982 -1.0469  1.0431  0.1282
   56MOL   H69141501   0.321   1.932   6.946  2.6498  1.4554 -0.8093
   56MOL   H69241502   0.469   1.956   7.147  2.8514 -1.1223 -0.2875
   56MOL   H69341503   0.480   1.784   7.160  1.0066  1.8790 -0.1504
   56MOL   H69441504   0.258   1.755   7.214 -1.1587  0.4024 -2.9529
   56MOL   H69541505   0.217   1.924   7.184 -0.9545 -1.8893 -1.4705
   56MOL   H69641506   0.387   1.991   7.367 -0.6946 -0.6286  0.9545
   56MOL   H69741507   0.405   1.830   7.408  1.4323  0.0638 -2.0779
   56MOL   H69841508   0.188   1.823   7.497 -0.6176 -0.0434 -0.8468
   56MOL   H69941509   0.131   1.977   7.416 -0.9256 -0.3628  0.0117
   56MOL   H70041510   0.303   2.094   7.558 -0.7615 -0.1404 -0.9601
   56MOL   H70141511   0.329   1.943   7.644 -0.4557 -0.1104  0.3536
   56MOL   H70241512   0.079   1.923   0.002 -0.7433  0.9054  1.2807
   56MOL   H70341513   0.041   2.074   7.618 -0.0810  1.8593  1.3301
   56MOL   H70441514   0.152   2.198   0.073 -0.5771  0.5247  0.0753
   56MOL   C70541515   0.145   2.061   0.228  0.5082  0.5082  0.1574
   56MOL   O70641516   0.121   1.943   0.256  0.5722 -0.1229 -0.0361
   56MOL   C70741517   0.171   2.155   0.338 -0.1192  0.0807 -0.1311
   56MOL   C70841518   0.090   2.130   0.471 -0.0612  0.4653  0.3943
   56MOL   C70941519   7.637   2.166   0.456  0.1138  0.1601  0.7168
   56MOL   C71041520   7.560   2.087   0.560  0.5713 -0.1879  0.2597
   56MOL   C71141521   7.610   2.110   0.708  0.0229 -0.0470 -0.0240
   56MOL   C71241522   7.531   2.033   0.814 -0.2859  0.0791 -0.1455
   56MOL   C71341523   7.576   2.046   0.950  0.5522 -0.7506 -0.8828
   56MOL   C71441524   7.538   2.176   1.024 -0.6403  0.0216 -0.4458
   56MOL   C71541525   7.584   2.176   1.168 -0.5950  0.2871 -0.5849
   56MOL   C71641526   7.596   2.320   1.219  0.0462 -0.3861  0.3753
   56MOL   C71741527   7.673   2.323   1.356  0.1713 -0.2484  0.6045
   56MOL   N71841528   7.647   2.439   1.441 -0.2498  0.5635 -0.2546
   56MOL   H71941529   0.149   2.254   0.297 -2.0081 -0.9992 -1.8461
   56MOL   H72041530   0.276   2.145   0.365  0.0669 -0.4782 -1.0447
   56MOL   H72141531   0.098   2.032   0.517 -1.7218 -0.1960 -0.6896
   56MOL   H72241532   0.128   2.200   0.546 -0.6357 -0.0484  1.1795
   56MOL   H72341533   7.595   2.149   0.357  0.7474 -0.4758  0.5498
   56MOL   H72441534   7.627   2.272   0.477  1.5582  0.2434  1.0583
   56MOL   H72541535   7.458   2.125   0.557  0.2594 -1.0079  0.3482
   56MOL   H72641536   7.556   1.979   0.545 -0.5547 -0.1830  0.4550
   56MOL   H72741537   7.618   2.217   0.726  0.3883 -0.0810  0.0129
   56MOL   H72841538   0.015   2.070   0.730 -0.1502 -0.8378 -0.6450
   56MOL   H72941539   7.535   1.926   0.795  0.1505 -0.5819  3.2620
   56MOL   H73041540   7.426   2.060   0.824 -0.8773 -2.0217 -0.3609
   56MOL   H73141541   7.680   2.014   0.946  0.7741 -0.3746  1.1958
   56MOL   H73241542   7.528   1.971   1.013  0.4363 -0.8738 -1.1178
   56MOL   H73341543   7.430   2.190   1.023 -0.5714  1.0103  1.8333
   56MOL   H73441544   7.594   2.252   0.969 -1.0011 -0.0632 -0.9289
   56MOL   H73541545   7.677   2.118   1.174  0.1134  1.3133 -1.5598
   56MOL   H73641546   7.509   2.124   1.228 -1.4734  1.9985 -0.1823
   56MOL   H73741547   7.497   2.364   1.226 -0.9629 -2.0670 -2.7639
   56MOL   H73841548   7.646   2.387   1.149 -1.3351  0.3411  0.0649
   56MOL   H73941549   0.086   2.323   1.333  0.0298  0.5086 -0.1105
   56MOL   H74041550   7.660   2.227   1.406  1.3444 -0.5363  0.3575
   56MOL   H74141551   7.659   2.408   1.536  1.3369 -0.2535 -0.7092
   56MOL   H74241552   7.550   2.467   1.431  0.1062  2.0815  0.4829
   57MOL     C141553   3.574   5.501   2.713  0.2869  1.3298 -0.3475
   57MOL     O241554   3.690   5.542   2.730  0.1116  0.0128 -0.6048
   57MOL     C341555   3.457   5.594   2.683 -0.3369  0.3577 -0.1831
   57MOL     C441556   3.449   5.627   2.534  0.0495 -0.0182  0.2983
   57MOL     C541557   3.376   5.520   2.453 -1.0266  0.4993  0.0794
   57MOL     C641558   3.381   5.550   2.302  0.1208 -0.5045 -0.8198
   57MOL     C741559   3.295   5.452   2.223 -0.2009 -0.0676  0.1475
   57MOL     C841560   3.310   5.493   2.073  0.2382 -0.0530  0.0296
   57MOL     C941561   3.241   5.396   1.983  0.0269 -0.5376 -0.1512
   57MOL    C1041562   3.271   5.404   1.839  0.6966 -0.7180  0.8203
   57MOL    C1141563   3.260   5.541   1.774  0.6847 -0.3717  0.7047
   57MOL    C1241564   3.231   5.550   1.620 -0.4680  0.5745  0.8764
   57MOL    C1341565   3.241   5.691   1.561 -0.6431 -0.1181  0.3986
   57MOL    N1441566   3.169   5.791   1.635  0.6523 -0.4557  0.0565
   57MOL    H1541567   3.471   5.680   2.749  1.6166 -1.1670  1.4132
   57MOL    H1641568   3.368   5.546   2.725  0.6528  0.4736  2.1450
   57MOL    H1741569   3.395   5.716   2.504 -1.5093 -1.3045 -0.8225
   57MOL    H1841570   3.549   5.642   2.495 -1.2728  2.3452 -2.3820
   57MOL    H1941571   3.271   5.495   2.472 -1.5137 -0.5203 -3.5709
   57MOL    H2041572   3.422   5.426   2.484  2.3196  2.2149  0.5645
   57MOL    H2141573   3.347   5.650   2.274  1.8772 -0.2968 -2.3120
   57MOL    H2241574   3.489   5.548   2.284  0.3194 -2.3975  0.4069
   57MOL    H2341575   3.189   5.464   2.248 -0.1536 -1.1465  0.8872
   57MOL    H2441576   3.320   5.350   2.252  0.2578  0.3457  1.2334
   57MOL    H2541577   3.415   5.497   2.045  0.7522 -1.7794  1.6108
   57MOL    H2641578   3.275   5.596   2.068 -0.5834 -0.2867  0.8205
   57MOL    H2741579   3.133   5.404   1.997 -0.2790  0.1353 -2.6695
   57MOL    H2841580   3.256   5.294   2.019 -1.9830 -1.0753 -0.7595
   57MOL    H2941581   3.210   5.340   1.775 -1.4157  1.3842  0.6694
   57MOL    H3041582   3.375   5.374   1.823  0.3355 -0.8630 -1.4825
   57MOL    H3141583   3.340   5.610   1.801  1.1091 -0.6692  0.2199
   57MOL    H3241584   3.173   5.592   1.815 -0.5312 -2.2965  0.5577
   57MOL    H3341585   3.132   5.515   1.594 -0.0055  0.3954 -0.6968
   57MOL    H3441586   3.295   5.479   1.567  0.7447  2.4902 -0.3087
   57MOL    H3541587   3.197   5.689   1.461  1.8293  1.3934 -0.7660
   57MOL    H3641588   3.348   5.710   1.554 -0.3291 -1.5434  1.1207
   57MOL    H3741589   3.070   5.805   1.622  0.2947 -2.3812  0.5945
   57MOL    H3841590   3.547   5.395   2.718  2.6893  0.7427  0.7641
   57MOL    C3941591   3.221   5.881   1.723  0.3739  0.0427 -0.4838
   57MOL    O4041592   3.344   5.907   1.731  0.0573 -0.4922  0.2802
   57MOL    C4141593   3.123   5.966   1.805 -0.2184 -0.1312  0.2727
   57MOL    C4241594   3.163   5.998   1.945  0.4094 -0.2576 -0.0665
   57MOL    C4341595   3.139   5.888   2.046 -0.3050  0.1183  0.0833
   57MOL    C4441596   3.214   5.902   2.182  0.1337 -0.1401  0.7844
   57MOL    C4541597   3.160   6.012   2.273 -0.2748  0.3793 -0.6979
   57MOL    C4641598   3.221   6.007   2.417  0.0389 -0.0664  1.2179
   57MOL    C4741599   3.141   6.099   2.516 -0.9279 -0.3044  0.1909
   57MOL    C4841600   3.036   6.021   2.582  0.2336  0.2891  0.4103
   57MOL    C4941601   2.970   6.090   2.704  0.6919 -0.6895 -0.0277
   57MOL    C5041602   2.872   6.199   2.661 -0.4401  0.5829  0.3750
   57MOL    C5141603   2.801   6.270   2.772  0.4466  0.0365 -0.2447
   57MOL    N5241604   2.683   6.339   2.726  0.0311 -0.3080  0.0111
   57MOL    H5341605   3.036   5.901   1.797  0.6217 -1.0247 -2.1939
   57MOL    H5441606   3.096   6.057   1.751 -1.6442 -0.1081  1.0003
   57MOL    H5541607   3.270   6.017   1.944  0.1125  1.4783  0.5640
   57MOL    H5641608   3.105   6.084   1.980 -0.4878 -1.7612  2.2429
   57MOL    H5741609   3.150   5.785   2.010  1.0512  0.5285 -0.7113
   57MOL    H5841610   3.032   5.884   2.065 -0.0483 -1.0796  1.4363
   57MOL    H5941611   3.206   5.806   2.232 -1.2712  0.2122  1.2576
   57MOL    H6041612   3.320   5.910   2.158 -0.4106  0.6280 -1.5056
   57MOL    H6141613   3.057   5.986   2.295  0.5731 -1.9200  0.6517
   57MOL    H6241614   3.168   6.112   2.231 -0.1715  0.7070  0.0990
   57MOL    H6341615   3.323   6.045   2.407  0.3243 -1.2938 -0.9036
   57MOL    H6441616   3.226   5.906   2.458 -0.0201 -0.7988 -0.5202
   57MOL    H6541617   3.101   6.184   2.462  0.0066  0.1869  0.2520
   57MOL    H6641618   3.217   6.143   2.580 -1.4512  2.4974 -1.0764
   57MOL    H6741619   3.084   5.934   2.626  2.0450  0.7703 -0.5918
   57MOL    H6841620   2.963   5.999   2.503  1.4313 -0.5939 -0.4848
   57MOL    H6941621   3.050   6.141   2.758  1.2577  0.4372 -1.9024
   57MOL    H7041622   2.924   6.018   2.772  0.1664 -0.1256  0.2232
   57MOL    H7141623   2.805   6.157   2.586 -0.2395  0.8935  0.0247
   57MOL    H7241624   2.930   6.266   2.597 -0.7277  0.3400 -0.1381
   57MOL    H7341625   2.863   6.337   2.832 -1.5275  1.5901  0.1289
   57MOL    H7441626   2.769   6.196   2.845 -0.6441 -2.0059 -2.7100
   57MOL    H7541627   2.666   6.338   2.626  2.3067  0.0373 -0.4069
   57MOL    C7641628   2.578   6.382   2.801 -0.0139 -0.4019 -0.0953
   57MOL    O7741629   2.566   6.367   2.922  0.2455  0.3615  0.1672
   57MOL    C7841630   2.468   6.456   2.717 -0.3711  0.0106  0.1048
   57MOL    C7941631   2.455   6.611   2.755  0.9455  0.0098  0.0470
   57MOL    C8041632   2.365   6.650   2.878  0.0054  0.6530  0.7404
   57MOL    C8141633   2.355   6.797   2.909 -1.0681  0.4043 -0.3450
   57MOL    C8241634   2.264   6.830   3.030  0.5286  0.0781 -0.5095
   57MOL    C8341635   2.237   6.979   3.071 -0.3935  0.3678  0.0120
   57MOL    C8441636   2.174   7.078   2.971 -0.3656 -0.2145  0.1607
   57MOL    C8541637   2.261   7.135   2.861 -0.3237  0.1439  0.1951
   57MOL    C8641638   2.187   7.126   2.726  0.0816 -0.2027  0.0586
   57MOL    C8741639   2.241   7.216   2.609 -0.1481 -0.0763  0.1800
   57MOL    C8841640   2.179   7.179   2.470 -0.1667  0.3569  0.7464
   57MOL    N8941641   2.031   7.153   2.465  0.0874  0.1804 -0.3486
   57MOL    H9041642   2.371   6.407   2.720 -1.0590  1.3808  0.7000
   57MOL    H9141643   2.494   6.451   2.611  2.0160  1.9424  0.5325
   57MOL    H9241644   2.553   6.657   2.752  0.9268  0.0160 -0.5431
   57MOL    H9341645   2.406   6.660   2.670 -0.0559  0.6625  0.9926
   57MOL    H9441646   2.409   6.603   2.966  1.4162  0.4038 -0.0825
   57MOL    H9541647   2.266   6.605   2.871  0.7848 -1.1310  0.9283
   57MOL    H9641648   2.455   6.836   2.931 -0.7306 -0.7875  0.3148
   57MOL    H9741649   2.306   6.843   2.824 -2.0726  0.3781  0.2132
   57MOL    H9841650   2.304   6.778   3.117  0.4859  0.4739 -0.2479
   57MOL    H9941651   2.161   6.794   3.028 -0.2937  1.9686  2.8852
   57MOL   H10041652   2.338   7.012   3.096 -1.8108  1.2393  5.0995
   57MOL   H10141653   2.181   6.983   3.165  1.3892 -0.0544  1.1121
   57MOL   H10241654   2.141   7.164   3.030 -0.2126 -1.2580  1.7995
   57MOL   H10341655   2.083   7.029   2.937  0.4463  0.0407 -2.4763
   57MOL   H10441656   2.358   7.085   2.868 -1.2020 -1.7093 -0.6294
   57MOL   H10541657   2.272   7.237   2.898  0.3632  0.4508 -0.8417
   57MOL   H10641658   2.083   7.158   2.738  0.0141 -0.3203 -0.2260
   57MOL   H10741659   2.169   7.023   2.697 -1.1381 -0.6006  2.0692
   57MOL   H10841660   2.348   7.198   2.604  0.3440  2.3921  0.7590
   57MOL   H10941661   2.245   7.322   2.635  1.0938 -1.0960  4.3859
   57MOL   H11041662   2.232   7.093   2.430 -0.5101  1.2078 -1.6182
   57MOL   H11141663   2.205   7.265   2.407  0.4884  0.7348  1.5319
   57MOL   H11241664   1.982   7.191   2.544  1.1224  0.0944  0.3418
   57MOL   C11341665   1.971   7.083   2.368  0.3272  0.0590 -0.0858
   57MOL   O11441666   2.041   7.031   2.276 -0.1734  0.4654 -0.3423
   57MOL   C11541667   1.816   7.070   2.375 -0.2066 -0.4695 -0.4486
   57MOL   C11641668   1.743   7.128   2.494  0.4020  0.0887 -0.3450
   57MOL   C11741669   1.772   7.086   2.639  0.4344 -0.3732  0.4182
   57MOL   C11841670   1.755   7.197   2.746  0.7040 -0.1197 -0.1158
   57MOL   C11941671   1.787   7.136   2.887 -0.7148 -0.6312 -0.5576
   57MOL   C12041672   1.778   7.246   2.997  0.2696 -0.8106  0.6418
   57MOL   C12141673   1.816   7.174   3.124 -0.1841  0.1500  0.4953
   57MOL   C12241674   1.833   7.258   3.250  0.4606 -0.4708 -0.3758
   57MOL   C12341675   1.754   7.197   3.371 -0.7927 -0.2566 -0.4744
   57MOL   C12441676   1.764   7.273   3.504 -0.2810 -0.5285  0.2557
   57MOL   C12541677   1.902   7.250   3.569 -0.3680 -0.4617  0.2700
   57MOL   N12641678   1.915   7.341   3.686  0.2665 -0.7025  0.0933
   57MOL   H12741679   1.799   6.963   2.390  2.0757 -0.7784  0.0734
   57MOL   H12841680   1.771   7.090   2.278 -0.9323 -0.9355 -0.2090
   57MOL   H12941681   1.764   7.235   2.501 -0.9915  0.3020  0.5984
   57MOL   H13041682   1.636   7.118   2.477  0.5235 -0.2816 -0.9048
   57MOL   H13141683   1.871   7.040   2.645 -0.0952 -1.4522  1.0886
   57MOL   H13241684   1.710   6.999   2.665 -1.5806  0.8419 -0.1933
   57MOL   H13341685   1.803   7.290   2.715 -0.3938 -0.3344 -2.5620
   57MOL   H13441686   1.654   7.237   2.736  0.6427 -0.3581 -0.4499
   57MOL   H13541687   1.889   7.098   2.883  0.7126  3.0621 -1.5931
   57MOL   H13641688   1.720   7.055   2.914  0.8593 -0.8857  2.8472
   57MOL   H13741689   1.677   7.285   3.006  0.4490 -0.3525  0.7113
   57MOL   H13841690   1.849   7.327   2.977 -0.7646 -0.0681 -0.0431
   57MOL   H13941691   1.909   7.117   3.134  1.0066  2.0833  0.5771
   57MOL   H14041692   1.743   7.094   3.138 -0.8548  0.2929 -2.0772
   57MOL   H14141693   1.804   7.363   3.243 -1.5417 -0.9548  0.4290
   57MOL   H14241694   1.939   7.275   3.272  0.2704  1.8219 -1.0209
   57MOL   H14341695   1.779   7.091   3.381  0.5482  0.2854  2.2694
   57MOL   H14441696   1.648   7.192   3.343 -1.6404 -4.3150  2.9337
   57MOL   H14541697   1.694   7.233   3.577 -1.2551 -0.8648 -0.8401
   57MOL   H14641698   1.751   7.379   3.486 -0.5332 -0.6863 -0.5442
   57MOL   H14741699   1.978   7.274   3.494 -1.5391  2.4835 -0.0781
   57MOL   H14841700   1.905   7.144   3.591 -2.1015 -0.5937 -0.0453
   57MOL   H14941701   1.862   7.322   3.770  0.4453  1.4466  0.7111
   57MOL   C15041702   1.997   7.448   3.693  0.8163 -0.8819  0.1982
   57MOL   O15141703   2.082   7.473   3.612  0.2102 -0.2818 -0.0572
   57MOL   C15241704   1.971   7.539   3.801 -0.7269  0.0956 -0.2868
   57MOL   C15341705   1.901   7.669   3.754 -0.2219 -0.4407  0.5726
   57MOL   C15441706   1.905   0.092   3.856 -0.0095  0.8856  0.4434
   57MOL   C15541707   2.032   0.169   3.860 -0.4691  0.2513  0.5132
   57MOL   C15641708   2.025   0.296   3.944  0.4490 -0.3687  0.6094
   57MOL   C15741709   2.154   0.387   3.939  0.0603  0.5650 -0.1628
   57MOL   C15841710   2.130   0.527   4.002 -0.4490  0.2010  0.3633
   57MOL   C15941711   2.259   0.601   3.998  0.0718 -0.3670  1.0828
   57MOL   C16041712   2.238   0.751   4.028 -0.1078 -0.5636 -0.2053
   57MOL   C16141713   2.363   0.843   4.029  0.5247 -0.6172  0.0782
   57MOL   C16241714   2.337   1.000   4.033  0.3151  0.2007  0.6648
   57MOL   N16341715   2.457   1.078   4.051 -0.0525 -0.0603  0.0624
   57MOL   H16441716   2.059   7.544   3.864 -0.7821  0.1909 -0.2178
   57MOL   H16541717   1.909   7.486   3.874 -0.4563 -0.5295 -0.5080
   57MOL   H16641718   1.937   0.008   3.656 -1.9264  0.1582  0.1356
   57MOL   H16741719   1.794   7.653   3.744 -1.1558  4.1597  1.7378
   57MOL   H16841720   1.857   0.071   3.951  3.2635  1.3021  2.2489
   57MOL   H16941721   1.836   0.163   3.809 -0.2228  2.2564  2.7601
   57MOL   H17041722   2.113   0.105   3.894  0.3308  1.5306  1.0416
   57MOL   H17141723   2.061   0.188   3.757  0.6986 -1.1076  0.5696
   57MOL   H17241724   1.987   0.278   4.044 -0.8676  0.6335  0.3002
   57MOL   H17341725   1.944   0.361   3.910  0.4534 -0.7138 -0.0745
   57MOL   H17441726   2.190   0.396   3.837 -2.4478  0.7448 -1.0646
   57MOL   H17541727   2.236   0.334   3.987 -0.8665  1.2008  2.2136
   57MOL   H17641728   2.108   0.497   4.104  0.9212 -0.0836  0.5811
   57MOL   H17741729   2.049   0.585   3.957 -0.6293  0.6873  1.3012
   57MOL   H17841730   2.295   0.588   3.896 -1.3406  2.6408  0.1131
   57MOL   H17941731   2.330   0.552   4.065  1.1641 -0.8401 -0.3869
   57MOL   H18041732   2.182   0.757   4.121  3.1775 -1.4191  1.8983
   57MOL   H18141733   2.176   0.798   3.951  2.9849 -0.2750 -2.6366
   57MOL   H18241734   2.427   0.824   3.944 -0.9396 -0.7266 -1.0268
   57MOL   H18341735   2.418   0.824   4.121  0.5135  0.0374  0.2188
   57MOL   H18441736   2.270   1.022   4.116  0.0340 -0.3373  0.5865
   57MOL   H18541737   2.287   1.028   3.941  0.4232  0.5862  0.7259
   57MOL   H18641738   2.508   1.115   3.972 -1.1897 -0.0734 -0.6904
   57MOL   C18741739   2.519   1.094   4.167  0.0849  1.0233 -0.0307
   57MOL   O18841740   2.477   1.038   4.268 -0.6506  0.7869 -0.4066
   57MOL   C18941741   2.645   1.166   4.171  0.0168 -0.5417 -0.3950
   57MOL   C19041742   2.720   1.183   4.301  0.3170  0.0358 -0.6674
   57MOL   C19141743   2.656   1.289   4.402  0.9305 -0.4779 -0.3728
   57MOL   C19241744   2.691   1.428   4.350 -0.2348 -0.3816 -0.3679
   57MOL   C19341745   2.657   1.535   4.456  0.3648  0.8239  0.0475
   57MOL   C19441746   2.654   1.674   4.399 -0.1079 -0.7647 -0.1492
   57MOL   C19541747   2.638   1.780   4.504 -0.4990  0.1059  0.2255
   57MOL   C19641748   2.656   1.918   4.447  0.6064 -0.6097  0.1369
   57MOL   C19741749   2.676   2.022   4.556  0.4440  0.4219 -0.1569
   57MOL   C19841750   2.803   2.010   4.633 -0.3292 -0.1586 -0.2417
   57MOL   C19941751   2.813   2.101   4.761 -0.3330 -0.3351  0.2325
   57MOL   N20041752   2.831   2.239   4.728 -0.3088 -0.9097 -0.0545
   57MOL   H20141753   2.622   1.263   4.128  2.0967  0.0017 -0.3758
   57MOL   H20241754   2.712   1.119   4.098 -0.6588 -0.6584 -0.9434
   57MOL   H20341755   2.729   1.089   4.354  1.5639 -0.0747 -1.0737
   57MOL   H20441756   2.824   1.203   4.277  0.3659  1.4872  0.6818
   57MOL   H20541757   2.691   1.262   4.502  0.1382  1.0008  0.3209
   57MOL   H20641758   2.547   1.284   4.407  0.7090  0.3678 -3.3082
   57MOL   H20741759   2.791   1.434   4.306 -0.3490 -0.9709 -0.7245
   57MOL   H20841760   2.625   1.442   4.265 -0.0022 -0.3597 -0.5435
   57MOL   H20941761   2.720   1.527   4.545  0.2052  0.3439  0.1194
   57MOL   H21041762   2.553   1.517   4.485  1.0726 -3.4566  0.1508
   57MOL   H21141763   2.571   1.673   4.328 -0.2281 -3.5119 -0.0204
   57MOL   H21241764   2.750   1.694   4.352 -0.0995 -1.6627 -0.5145
   57MOL   H21341765   2.718   1.758   4.574 -0.6827  0.2125  0.4688
   57MOL   H21441766   2.542   1.776   4.555 -1.3823  0.4873 -1.3655
   57MOL   H21541767   2.571   1.945   4.384 -1.7240 -3.8390  1.7637
   57MOL   H21641768   2.742   1.918   4.380 -0.7868  1.6763 -1.7526
   57MOL   H21741769   2.591   2.019   4.624  0.0756 -1.1255 -0.6660
   57MOL   H21841770   2.668   2.124   4.519 -1.6668  1.1934  2.3184
   57MOL   H21941771   2.886   2.026   4.565 -0.9778  1.3842 -0.6918
   57MOL   H22041772   2.823   1.911   4.675 -2.0055 -0.3852  0.0853
   57MOL   H22141773   2.902   2.071   4.816  0.1710  1.5040  0.4596
   57MOL   H22241774   2.727   2.097   4.828  0.8849  0.0996  1.8740
   57MOL   H22341775   2.924   2.255   4.694 -0.5632 -0.0393 -0.3589
   57MOL   C22441776   2.741   2.337   4.734  0.3362 -0.4355 -0.6213
   57MOL   O22541777   2.619   2.312   4.747  0.0616  0.3388  0.2120
   57MOL   C22641778   2.789   2.479   4.721 -0.6417  0.8449 -0.0864
   57MOL   C22741779   2.691   2.589   4.689  0.5683 -0.6456  0.0906
   57MOL   C22841780   2.623   2.579   4.554  0.3382  0.3127  0.1044
   57MOL   C22941781   2.539   2.703   4.521 -0.0380 -0.5912 -0.2799
   57MOL   C23041782   2.507   2.722   4.371  0.5501  0.1008 -0.6086
   57MOL   C23141783   2.445   2.860   4.346 -0.4803 -0.3783  0.6534
   57MOL   C23241784   2.396   2.896   4.205 -0.0326  0.3067 -0.3541
   57MOL   C23341785   2.337   3.039   4.199  0.9273  0.5886 -0.4799
   57MOL   C23441786   2.373   3.118   4.073 -0.6832  0.4688 -0.5216
   57MOL   C23541787   2.291   3.242   4.064 -0.1663 -0.0315 -0.0181
   57MOL   C23641788   2.366   3.357   3.991 -0.0426 -0.5966  0.3552
   57MOL   N23741789   2.274   3.474   3.969 -0.1690  0.0427 -0.6367
   57MOL   H23841790   2.876   2.484   4.656 -0.0987 -1.3917  0.4444
   57MOL   H23941791   2.829   2.507   4.818  0.2815 -0.2790 -0.1278
   57MOL   H24041792   2.616   2.602   4.767  0.6361 -0.4173  0.1184
   57MOL   H24141793   2.743   2.685   4.695 -0.8486  0.0064  2.2807
   57MOL   H24241794   2.563   2.489   4.549  0.7090  0.1366 -1.1863
   57MOL   H24341795   2.698   2.562   4.477 -1.4653 -0.6740 -1.4560
   57MOL   H24441796   2.444   2.717   4.573 -1.0494  2.0765 -2.7242
   57MOL   H24541797   2.588   2.798   4.542 -0.6625  0.0114 -1.5099
   57MOL   H24641798   2.448   2.636   4.341 -1.1207  0.0856  2.4898
   57MOL   H24741799   2.596   2.715   4.308 -0.7406 -2.4323 -2.2433
   57MOL   H24841800   2.525   2.928   4.376  0.6048 -0.1969 -2.4519
   57MOL   H24941801   2.358   2.872   4.410 -1.0418  0.1575 -0.1875
   57MOL   H25041802   2.329   2.817   4.173  2.3829 -0.8885 -2.6247
   57MOL   H25141803   2.489   2.894   4.147 -0.0696 -1.4544 -0.3551
   57MOL   H25241804   2.364   3.099   4.286  0.7751 -1.4628  1.0303
   57MOL   H25341805   2.228   3.031   4.206  0.6425  3.8590 -0.1730
   57MOL   H25441806   2.357   3.050   3.989  2.9317 -0.4520 -0.5547
   57MOL   H25541807   2.481   3.134   4.074 -0.5547 -0.4306  0.2992
   57MOL   H25641808   2.268   3.267   4.167  1.2772 -0.0164  0.3176
   57MOL   H25741809   2.194   3.219   4.020  0.1738 -0.2856 -0.6428
   57MOL   H25841810   2.402   3.333   3.891  1.1068  1.2563  0.2815
   57MOL   H25941811   2.456   3.391   4.043  0.0978  1.1602 -0.9690
   57MOL   H26041812   2.277   3.514   3.876  1.6129  1.1838 -0.1167
   57MOL   C26141813   2.197   3.534   4.058  0.5144  0.4089  0.1629
   57MOL   O26241814   2.176   3.495   4.172  0.0274 -0.1033  0.2435
   57MOL   C26341815   2.119   3.656   4.008  0.2753 -0.1339 -0.2200
   57MOL   C26441816   2.102   3.780   4.104  0.0140  0.2233 -0.5529
   57MOL   C26541817   2.236   3.852   4.120  0.1871 -0.5185  0.7089
   57MOL   C26641818   2.244   3.952   4.236 -0.2204  0.2318 -0.1015
   57MOL   C26741819   2.367   4.041   4.231 -0.7212  0.0493 -0.1962
   57MOL   C26841820   2.500   3.963   4.239 -0.8595  0.1265  0.3994
   57MOL   C26941821   2.620   4.060   4.224  0.3312 -0.5679 -0.2728
   57MOL   C27041822   2.705   4.039   4.089 -0.7181 -0.0992 -0.6579
   57MOL   C27141823   2.628   4.014   3.959 -0.1361 -0.2260 -0.0361
   57MOL   C27241824   2.722   3.993   3.839 -0.0294 -0.1959  0.2580
   57MOL   C27341825   2.658   3.994   3.701 -0.1767  0.5413 -0.1810
   57MOL   N27441826   2.764   3.974   3.596  0.4968  0.5854  0.1665
   57MOL   H27541827   2.023   3.606   4.000 -0.2609  0.8936 -0.3557
   57MOL   H27641828   2.163   3.687   3.913  0.6436 -0.2488 -0.0883
   57MOL   H27741829   2.021   3.838   4.059  1.2184  1.4118 -1.2520
   57MOL   H27841830   2.064   3.752   4.202  0.1499 -0.0992 -0.5931
   57MOL   H27941831   2.256   3.906   4.027 -1.2946 -0.8043  0.2073
   57MOL   H28041832   2.313   3.777   4.134  0.4716 -0.5138 -0.7791
   57MOL   H28141833   2.145   3.997   4.245 -1.3199 -1.9417 -0.9816
   57MOL   H28241834   2.259   3.896   4.328 -0.3130 -0.5042 -0.5346
   57MOL   H28341835   2.354   4.115   4.310  1.3281  1.8407 -1.4650
   57MOL   H28441836   2.361   4.096   4.137  0.2133 -1.8983 -1.4227
   57MOL   H28541837   2.514   3.882   4.166 -0.4845 -0.7620  1.4516
   57MOL   H28641838   2.498   3.906   4.331 -1.0089  1.6205  1.3320
   57MOL   H28741839   2.682   4.048   4.313  0.0988  0.5432  0.0444
   57MOL   H28841840   2.580   4.161   4.214 -2.5860 -1.5781  0.8516
   57MOL   H28941841   2.767   3.951   4.108 -0.2141  0.8667  2.4529
   57MOL   H29041842   2.770   4.125   4.071 -0.8186 -0.0499 -0.7845
   57MOL   H29141843   2.553   4.092   3.944  0.8120  0.3359 -1.9823
   57MOL   H29241844   2.570   3.922   3.966 -0.5277  0.0431  0.2775
   57MOL   H29341845   2.771   3.896   3.850 -1.1316 -0.6757  1.0108
   57MOL   H29441846   2.807   4.062   3.840 -0.6483  0.6053 -1.4537
   57MOL   H29541847   2.616   4.093   3.684 -1.8757 -0.0036  0.6789
   57MOL   H29641848   2.593   3.907   3.704 -1.6136  1.5943  0.1146
   57MOL   H29741849   2.825   4.053   3.579  1.7540 -0.4584 -0.2020
   57MOL   C29841850   2.784   3.863   3.522 -1.1152 -0.1838  0.0372
   57MOL   O29941851   2.714   3.764   3.527  0.2968 -0.7388  0.2015
   57MOL   C30041852   2.904   3.867   3.428 -0.2011  0.0503 -0.4142
   57MOL   C30141853   2.865   3.838   3.276 -0.8978  0.2793 -0.1064
   57MOL   C30241854   2.980   3.839   3.175 -0.5196  0.0186 -0.4763
   57MOL   C30341855   3.039   3.983   3.154 -0.4660 -0.4330  0.2330
   57MOL   C30441856   3.166   3.990   3.066  0.3833  0.1463  0.2986
   57MOL   C30541857   3.183   4.136   3.012 -0.5557 -0.0985 -0.4898
   57MOL   C30641858   3.323   4.165   2.960 -0.6848  0.3003  0.0182
   57MOL   C30741859   3.443   4.130   3.054 -0.2746 -0.2304 -0.5123
   57MOL   C30841860   3.575   4.168   2.989 -0.5061 -0.1493  0.1026
   57MOL   C30941861   3.694   4.178   3.084  0.0593  0.1109 -0.7980
   57MOL   C31041862   3.839   4.173   3.026 -0.8512 -0.0917  0.3669
   57MOL   N31141863   3.926   4.098   3.123 -0.4189 -0.0939  0.3643
   57MOL   H31241864   2.980   3.799   3.465 -0.9712 -1.1527 -1.0132
   57MOL   H31341865   2.936   3.971   3.437  3.3500 -0.9442 -1.1407
   57MOL   H31441866   2.819   3.740   3.263 -1.0946  0.6865 -2.8597
   57MOL   H31541867   2.789   3.905   3.237 -2.2663 -1.1505  0.0888
   57MOL   H31641868   2.942   3.808   3.077  0.9221 -1.3864 -0.6122
   57MOL   H31741869   3.057   3.768   3.204  1.8652  2.8439  0.3262
   57MOL   H31841870   2.962   4.044   3.107 -2.2330 -1.6233  1.4785
   57MOL   H31941871   3.067   4.030   3.248  2.8697  0.2318 -1.0355
   57MOL   H32041872   3.154   3.917   2.986 -1.4997  0.5033  0.2162
   57MOL   H32141873   3.249   3.962   3.130  1.2023  0.6720 -0.5252
   57MOL   H32241874   3.171   4.213   3.088 -1.0141 -0.5542 -0.0973
   57MOL   H32341875   3.112   4.158   2.932 -2.2739  0.6017  1.1765
   57MOL   H32441876   3.341   4.267   2.927  0.5200 -0.2406 -1.0511
   57MOL   H32541877   3.336   4.098   2.875  0.3733  0.0096  0.4068
   57MOL   H32641878   3.433   4.027   3.088 -2.7534 -0.5807 -2.2076
   57MOL   H32741879   3.419   4.190   3.142 -1.6605 -1.7933  0.1995
   57MOL   H32841880   3.558   4.254   2.924 -3.0684  0.6169  1.7000
   57MOL   H32941881   3.608   4.084   2.928 -0.5682 -0.9835  1.2059
   57MOL   H33041882   3.691   4.085   3.141 -0.4751  0.9071  0.5117
   57MOL   H33141883   3.676   4.261   3.153 -0.6529  0.0779 -0.9444
   57MOL   H33241884   3.880   4.270   2.998  0.8148 -0.2943  1.9979
   57MOL   H33341885   3.831   4.106   2.940 -0.4468  0.0419  0.2242
   57MOL   H33441886   3.999   4.142   3.177 -0.0545 -0.5851  0.2759
   57MOL   C33541887   3.927   3.967   3.141 -0.3832  0.1384  0.3705
   57MOL   O33641888   3.848   3.896   3.088 -0.5834 -0.3012  0.1396
   57MOL   C33741889   4.033   3.902   3.224 -0.1890  0.0925  0.6774
   57MOL   C33841890   3.992   3.826   3.350  0.4232  0.0491 -1.0534
   57MOL   C33941891   3.931   3.923   3.449 -0.6780 -0.2912  0.4710
   57MOL   C34041892   3.877   3.856   3.578 -0.6164  1.0797  0.8032
   57MOL   C34141893   3.843   3.947   3.682  0.8810  0.1328 -0.2803
   57MOL   C34241894   3.721   4.037   3.658  0.3957 -0.5053 -0.2702
   57MOL   C34341895   3.695   4.118   3.788  0.1969  0.1024  0.0016
   57MOL   C34441896   3.568   4.209   3.778 -0.4432  0.7759  0.3449
   57MOL   C34541897   3.521   4.259   3.917  0.3595 -0.0546 -1.0574
   57MOL   C34641898   3.405   4.360   3.896 -0.2538 -0.1770  0.0232
   57MOL   C34741899   3.379   4.460   4.009  0.7473 -0.2432 -0.2465
   57MOL   N34841900   3.265   4.537   3.974 -0.3672 -0.0670 -1.1445
   57MOL   H34941901   4.097   3.984   3.256  3.1875 -1.2581 -2.2264
   57MOL   H35041902   4.097   3.835   3.166 -0.4243  1.4660 -1.2117
   57MOL   H35141903   3.918   3.751   3.321  0.0616  0.0707 -0.2071
   57MOL   H35241904   4.079   3.778   3.396  0.0638 -0.0573 -0.4772
   57MOL   H35341905   3.855   3.983   3.398 -0.0877  0.5898  0.6112
   57MOL   H35441906   4.004   3.999   3.477 -0.7739  0.3649 -0.9886
   57MOL   H35541907   3.796   3.785   3.564  1.3234 -1.4021  1.9494
   57MOL   H35641908   3.958   3.796   3.619 -1.5625 -0.8426 -0.1033
   57MOL   H35741909   3.929   4.013   3.691  0.2732  1.2885 -2.4727
   57MOL   H35841910   3.825   3.881   3.767  0.4550  1.7658  0.9218
   57MOL   H35941911   3.638   3.972   3.630 -0.4314 -0.9250  2.9717
   57MOL   H36041912   3.731   4.093   3.565 -0.4288  0.7776  0.4137
   57MOL   H36141913   3.788   4.170   3.813  0.3288 -0.9934  1.9347
   57MOL   H36241914   3.681   4.036   3.859 -1.5993  0.8999  0.6143
   57MOL   H36341915   3.489   4.155   3.725  1.1334  0.1914 -1.4768
   57MOL   H36441916   3.588   4.297   3.717  1.9792 -0.1045 -0.1871
   57MOL   H36541917   3.592   4.320   3.973  1.6754  0.0202 -2.7582
   57MOL   H36641918   3.494   4.175   3.981 -3.0425 -0.4531 -2.8754
   57MOL   H36741919   3.314   4.309   3.863  0.5239 -0.7913 -1.2473
   57MOL   H36841920   3.424   4.418   3.806  0.4336 -0.1992  0.1509
   57MOL   H36941921   3.472   4.513   4.031 -0.6161  1.6385  1.0876
   57MOL   H37041922   3.352   4.406   4.100 -1.1085  1.7520  0.4045
   57MOL   H37141923   3.185   4.502   4.024  1.0995 -0.3116  1.0664
   57MOL   C37241924   3.268   4.643   3.889 -0.5361 -0.1768  0.3392
   57MOL   O37341925   3.368   4.675   3.827  0.1046 -0.0079  0.0692
   57MOL   C37441926   3.141   4.716   3.868 -0.0879  0.3572 -0.3139
   57MOL   C37541927   3.150   4.858   3.808 -0.5296  0.5500 -1.1820
   57MOL   C37641928   3.190   4.962   3.918  0.0687 -1.0608  0.4721
   57MOL   C37741929   3.167   5.111   3.899 -0.2129  0.1296  0.1867
   57MOL   C37841930   3.215   5.211   4.011 -0.0593 -0.1158 -0.1877
   57MOL   C37941931   3.328   5.300   3.969 -0.8628 -0.7064 -0.1216
   57MOL   C38041932   3.456   5.222   3.993  0.1908 -0.8421 -0.0508
   57MOL   C38141933   3.574   5.305   4.000  0.4646 -0.0168  0.4349
   57MOL   C38241934   3.704   5.223   4.007  0.5896  0.2292 -0.1600
   57MOL   C38341935   3.716   5.145   4.134  0.6522  1.0933 -0.5202
   57MOL   C38441936   3.850   5.097   4.167  0.1735 -0.5598  0.3757
   57MOL   N38541937   3.858   5.024   4.295 -0.2471 -0.4691 -0.4953
   57MOL   H38641938   3.069   4.720   3.949  2.1642 -1.8741  1.8709
   57MOL   H38741939   3.096   4.656   3.788  0.7016  0.8842 -1.1642
   57MOL   H38841940   3.212   4.862   3.718  0.2916  1.0870 -0.5998
   57MOL   H38941941   3.057   4.888   3.760 -0.6348 -0.9935 -1.9570
   57MOL   H39041942   3.298   4.945   3.919  0.2562 -0.0216 -0.5782
   57MOL   H39141943   3.138   4.923   4.006 -1.6256 -1.7883 -0.8385
   57MOL   H39241944   3.212   5.140   3.804 -0.9988 -2.1996 -0.9512
   57MOL   H39341945   3.062   5.130   3.881 -0.2515 -2.0928 -2.2849
   57MOL   H39441946   3.237   5.151   4.100 -1.5442  0.5841  0.6703
   57MOL   H39541947   3.126   5.269   4.036  0.2249  0.1269  0.2670
   57MOL   H39641948   3.318   5.391   4.028  1.1629  1.7280 -3.3699
   57MOL   H39741949   3.334   5.327   3.863  0.4909  0.4521  0.2297
   57MOL   H39841950   3.467   5.140   3.922 -2.2513 -0.7662 -0.5773
   57MOL   H39941951   3.450   5.169   4.088 -3.1081 -1.2146 -0.3874
   57MOL   H40041952   3.568   5.366   4.090 -1.7171  1.3083 -0.5520
   57MOL   H40141953   3.580   5.364   3.909  0.7896 -1.2529 -0.3677
   57MOL   H40241954   3.792   5.288   3.997  0.6579  0.0068 -1.0988
   57MOL   H40341955   3.717   5.156   3.922 -0.7523 -1.2741  0.8050
   57MOL   H40441956   3.654   5.056   4.123  2.0394 -0.3450  2.5717
   57MOL   H40541957   3.676   5.214   4.208 -1.5393  2.9580 -3.3207
   57MOL   H40641958   3.918   5.182   4.171  3.6086 -3.2294  0.7782
   57MOL   H40741959   3.885   5.041   4.081 -1.1539 -0.3658 -0.2957
   57MOL   H40841960   3.817   4.932   4.286 -0.1691 -0.5929  0.3418
   57MOL   C40941961   3.899   5.062   4.418  0.1835  0.0791  0.1841
   57MOL   O41041962   3.918   4.976   4.500  0.2848 -0.6146  0.0013
   57MOL   C41141963   3.939   5.208   4.441  0.2554 -0.4074  0.4505
   57MOL   C41241964   3.962   5.256   4.584 -0.1488 -0.5884 -0.8286
   57MOL   C41341965   4.105   5.241   4.620 -0.8167  0.0530 -0.2179
   57MOL   C41441966   4.133   5.247   4.776 -0.0210  0.4670  0.0328
   57MOL   C41541967   4.091   5.383   4.841  0.3898  0.8814  0.5795
   57MOL   C41641968   4.055   5.383   4.992 -0.6751  0.1180  0.3977
   57MOL   C41741969   4.050   5.523   5.046 -1.0794 -0.0039 -0.1952
   57MOL   C41841970   3.993   5.555   5.186  0.3359 -0.2316  0.1234
   57MOL   C41941971   3.951   5.700   5.212  0.8089  0.7270 -0.2439
   57MOL   C42041972   3.856   5.731   5.320 -0.1393  0.3671  0.4784
   57MOL   C42141973   3.782   5.870   5.311 -0.1872 -0.1490  0.7556
   57MOL   N42241974   3.699   5.864   5.193 -0.1621 -1.0426  0.6144
   57MOL   H42341975   3.858   5.271   4.402 -0.0958  1.1027  3.4439
   57MOL   H42441976   4.023   5.226   4.374  0.5006  1.4277  1.2205
   57MOL   H42541977   3.940   5.362   4.588  1.7774 -0.1694 -0.9927
   57MOL   H42641978   3.901   5.208   4.660 -1.7683  3.7587  0.7479
   57MOL   H42741979   4.165   5.320   4.576  2.2478 -1.7281  0.6099
   57MOL   H42841980   4.131   5.145   4.575  1.6199  0.5283  0.1169
   57MOL   H42941981   4.099   5.158   4.829  1.4260 -0.3301 -0.3342
   57MOL   H43041982   4.239   5.257   4.799  0.6270  0.8553 -2.9906
   57MOL   H43141983   4.017   5.437   4.781  3.2365  1.4439 -2.5942
   57MOL   H43241984   4.178   5.450   4.833  2.9625 -2.4272 -0.2132
   57MOL   H43341985   4.129   5.319   5.041  1.9076  1.3084 -1.8135
   57MOL   H43441986   3.961   5.329   5.003  0.1266 -1.2678  0.4809
   57MOL   H43541987   3.986   5.579   4.978  0.0876  1.0224 -0.4612
   57MOL   H43641988   4.146   5.573   5.036 -1.4562  1.2219  1.8660
   57MOL   H43741989   4.072   5.527   5.256 -1.2922 -0.2161  2.0300
   57MOL   H43841990   3.909   5.489   5.209 -0.0855 -0.2588 -1.4741
   57MOL   H43941991   3.906   5.729   5.117 -1.2694  3.2562  1.4478
   57MOL   H44041992   4.035   5.768   5.219  1.1715  0.1617  0.9571
   57MOL   H44141993   3.902   5.708   5.416  1.0124 -1.1191 -0.3986
   57MOL   H44241994   3.786   5.648   5.317 -2.4316  2.2001  1.9322
   57MOL   H44341995   3.855   5.949   5.296 -1.3108  0.9463  1.0060
   57MOL   H44441996   3.732   5.890   5.406  0.3211  0.5936  0.8717
   57MOL   H44541997   3.649   5.777   5.186  0.1389 -0.9551 -3.9447
   57MOL   C44641998   3.666   5.969   5.114  0.0440 -0.1116  0.3523
   57MOL   O44741999   3.733   6.069   5.111 -0.3440  0.3360 -0.0394
   57MOL   C44842000   3.535   5.970   5.036  0.0394 -0.1161  0.4195
   57MOL   C44942001   3.444   6.088   5.086 -0.3301 -0.2862 -0.0637
   57MOL   C45042002   3.384   6.073   5.229 -0.1676 -0.2081  0.2926
   57MOL   C45142003   3.286   5.956   5.244  0.3158  0.1536  1.1002
   57MOL   C45242004   3.163   5.945   5.148  0.0682 -0.6655  1.0829
   57MOL   C45342005   3.054   5.845   5.199  0.5909 -0.0076  0.8029
   57MOL   C45442006   2.930   5.860   5.116 -0.0302  0.3233 -0.5684
   57MOL   C45542007   2.828   5.968   5.157 -0.1661 -0.4974 -0.1043
   57MOL   C45642008   2.712   5.971   5.057 -0.6076  0.2199  0.0355
   57MOL   C45742009   2.605   6.077   5.090 -0.9233  0.7155  0.3031
   57MOL   C45842010   2.495   6.080   4.971  0.0107  0.4381 -0.2182
   57MOL   N45942011   2.400   5.968   4.971  0.3869  0.4253 -0.4839
   57MOL   H46042012   3.483   5.874   5.033 -0.5635  0.2582 -1.3064
   57MOL   H46142013   3.561   5.977   4.931 -1.4438 -0.0320  0.0513
   57MOL   H46242014   3.503   6.179   5.073  0.1164 -0.6933 -0.9961
   57MOL   H46342015   3.363   6.110   5.017 -0.6255  1.3363  0.7981
   57MOL   H46442016   3.323   6.161   5.247  0.9547  0.6633 -0.1244
   57MOL   H46542017   3.452   6.070   5.314  1.5340 -2.4605 -1.0924
   57MOL   H46642018   3.340   5.861   5.235 -2.0390 -0.9595 -2.7379
   57MOL   H46742019   3.256   5.952   5.349  0.0601 -1.3745  0.9789
   57MOL   H46842020   3.196   5.917   5.047  0.9985  1.1479  0.8674
   57MOL   H46942021   3.107   6.038   5.141 -0.4041 -0.7748  3.1397
   57MOL   H47042022   3.012   5.854   5.299 -3.9188  0.2705 -0.9937
   57MOL   H47142023   3.096   5.744   5.193  1.1141  0.1847  1.1989
   57MOL   H47242024   2.881   5.763   5.134 -0.1686  0.4311 -0.3626
   57MOL   H47342025   2.946   5.862   5.008  0.1838 -4.0723 -0.7358
   57MOL   H47442026   2.882   6.062   5.152  0.2888 -0.7452  0.0874
   57MOL   H47542027   2.799   5.948   5.260  1.5018 -0.1289  0.4564
   57MOL   H47642028   2.667   5.872   5.066 -1.6162  0.6464 -0.1950
   57MOL   H47742029   2.753   5.972   4.957 -0.2976  0.0530  0.1613
   57MOL   H47842030   2.645   6.177   5.099  1.0699  0.2110 -2.1685
   57MOL   H47942031   2.563   6.054   5.188  0.4892 -2.1832  0.2667
   57MOL   H48042032   2.531   6.083   4.869 -0.9053 -0.8089 -0.5783
   57MOL   H48142033   2.436   6.170   4.990 -2.3125 -0.6520 -1.9834
   57MOL   H48242034   2.424   5.899   4.902  0.3858  0.0192 -0.0799
   57MOL   C48342035   2.306   5.932   5.057 -0.0988  0.3304 -0.2204
   57MOL   O48442036   2.287   6.002   5.153 -0.4312 -0.2910 -0.4275
   57MOL   C48542037   2.216   5.804   5.039 -0.3416  0.0009  0.5952
   57MOL   C48642038   2.297   5.670   5.027  0.1102  0.3374 -0.0316
   57MOL   C48742039   2.381   5.655   4.897  0.0117  0.6324 -0.2532
   57MOL   C48842040   2.451   5.517   4.891  0.4427  0.4539 -0.8106
   57MOL   C48942041   2.591   5.517   4.963  0.2233  0.1581  0.6522
   57MOL   C49042042   2.701   5.549   4.863 -0.1108  0.1293 -0.4431
   57MOL   C49142043   2.846   5.517   4.923  0.1681  0.1151  0.2317
   57MOL   C49242044   2.957   5.549   4.823  0.3454 -0.3506  0.2484
   57MOL   C49342045   3.100   5.501   4.870  0.1981 -0.5265  0.9775
   57MOL   C49442046   3.156   5.583   4.979 -0.3157 -0.1551 -0.2274
   57MOL   C49542047   3.293   5.541   5.023  0.6271  0.1661  0.3727
   57MOL   N49642048   3.397   5.587   4.941 -0.4648 -0.5851  1.0066
   57MOL   H49742049   2.163   5.825   4.946  0.5264  0.8141  0.2657
   57MOL   H49842050   2.141   5.798   5.117 -1.6576 -2.4115 -0.8039
   57MOL   H49942051   2.353   5.666   5.120 -1.2759 -0.3006  0.7722
   57MOL   H50042052   2.222   5.592   5.034  0.2311  0.2326  0.0681
   57MOL   H50142053   2.444   5.743   4.883  1.7080 -0.9064 -2.5004
   57MOL   H50242054   2.309   5.658   4.815 -0.2883 -0.3529 -0.0267
   57MOL   H50342055   2.383   5.449   4.941  0.2206  0.5966 -0.9205
   57MOL   H50442056   2.457   5.493   4.785  0.8087 -0.1212 -0.6620
   57MOL   H50542057   2.612   5.416   4.999 -1.4995 -0.6108 -0.4269
   57MOL   H50642058   2.590   5.580   5.052  0.3095  0.1040  0.6914
   57MOL   H50742059   2.682   5.650   4.827 -1.2722 -0.9056 -2.8501
   57MOL   H50842060   2.698   5.479   4.779  0.5805 -1.6494  0.9751
   57MOL   H50942061   2.855   5.409   4.937  0.7168  0.2583  0.9810
   57MOL   H51042062   2.862   5.567   5.018  1.2355 -0.3453  0.2980
   57MOL   H51142063   2.969   5.655   4.800 -0.6846 -0.4642 -0.8906
   57MOL   H51242064   2.936   5.489   4.735  2.0017 -0.6296  0.0286
   57MOL   H51342065   3.172   5.502   4.789 -0.2397 -3.5340  0.5109
   57MOL   H51442066   3.086   5.396   4.895  0.7414 -0.6521  0.7388
   57MOL   H51542067   3.087   5.555   5.058  0.0836 -1.1860 -0.2255
   57MOL   H51642068   3.159   5.689   4.956  1.8033 -0.7049 -2.8548
   57MOL   H51742069   3.295   5.435   5.048  2.1004  0.1637  0.3138
   57MOL   H51842070   3.298   5.595   5.118  1.5786 -1.2777  1.1716
   57MOL   H51942071   3.366   5.629   4.855 -0.0397  0.1542  1.2116
   57MOL   C52042072   3.527   5.581   4.974 -0.4555 -0.5899  0.1384
   57MOL   O52142073   3.576   5.537   5.080  0.1058  0.4302  0.2129
   57MOL   C52242074   3.630   5.634   4.869  0.3985  0.4362  0.2030
   57MOL   C52342075   3.716   5.513   4.822  0.4099 -0.5357 -0.0837
   57MOL   C52442076   3.638   5.396   4.743 -0.2205  0.2575 -0.1598
   57MOL   C52542077   3.617   5.426   4.596 -0.0484 -0.0075  0.2705
   57MOL   C52642078   3.580   5.303   4.519 -0.0292  0.1273 -0.1859
   57MOL   C52742079   3.433   5.264   4.534 -0.0303  0.2937 -0.9085
   57MOL   C52842080   3.386   5.143   4.459  0.1890  0.2733 -0.0922
   57MOL   C52942081   3.414   5.000   4.518  0.0462 -0.0838 -0.0460
   57MOL   C53042082   3.391   4.885   4.426  0.0239 -0.2726  0.5917
   57MOL   C53142083   3.468   4.903   4.291  0.9123  0.0169 -0.7996
   57MOL   C53242084   3.450   4.780   4.203 -0.8404 -0.5543 -0.3886
   57MOL   N53342085   3.519   4.785   4.070 -0.2612 -0.1226 -0.0049
   57MOL   H53442086   3.695   5.705   4.919  1.4023  0.6693 -1.4039
   57MOL   H53542087   3.568   5.686   4.796  0.0000  0.7620  0.7666
   57MOL   H53642088   3.799   5.543   4.758 -1.0998  0.9305 -1.4122
   57MOL   H53742089   3.750   5.460   4.911  1.7053  2.3835  1.2517
   57MOL   H53842090   3.536   5.375   4.777  0.2773 -0.3464  0.9696
   57MOL   H53942091   3.700   5.308   4.757  1.4475  1.3008 -0.8402
   57MOL   H54042092   3.540   5.503   4.587 -0.8305 -0.4652  2.8643
   57MOL   H54142093   3.707   5.474   4.557 -2.0136  4.2429  0.7005
   57MOL   H54242094   3.640   5.214   4.536 -0.9251 -0.0778  2.0686
   57MOL   H54342095   3.604   5.326   4.415 -0.7078 -2.1447 -0.8706
   57MOL   H54442096   3.373   5.351   4.506 -0.0305  0.9117  0.9718
   57MOL   H54542097   3.414   5.245   4.639  2.0316  4.3136  0.2909
   57MOL   H54642098   3.437   5.147   4.363  2.3422  0.2825  1.0013
   57MOL   H54742099   3.279   5.154   4.446  0.4789  1.6661 -1.3475
   57MOL   H54842100   3.367   4.976   4.613  0.2077 -0.2670 -0.0118
   57MOL   H54942101   3.519   4.989   4.545  1.1538 -0.8972 -4.2117
   57MOL   H55042102   3.287   4.875   4.394  0.4949 -2.1363 -0.3922
   57MOL   H55142103   3.423   4.789   4.466 -1.1570 -0.5753  0.8418
   57MOL   H55242104   3.572   4.919   4.318  1.3865 -1.0373 -1.9550
   57MOL   H55342105   3.419   4.990   4.247 -0.0089 -0.4175 -0.6479
   57MOL   H55442106   3.345   4.769   4.177 -1.7335  1.2534  2.2175
   57MOL   H55542107   3.488   4.692   4.255 -0.6453 -0.8865 -1.0811
   57MOL   H55642108   3.459   4.758   3.993 -0.2048  0.4952 -0.2753
   57MOL   C55742109   3.653   4.774   4.052 -0.2972 -0.4572 -0.5650
   57MOL   O55842110   3.727   4.779   4.150  0.5675 -0.2394 -0.1601
   57MOL   C55942111   3.704   4.744   3.910 -0.0751  0.3965 -0.3364
   57MOL   C56042112   3.769   4.600   3.893  0.0047 -0.6652  0.1268
   57MOL   C56142113   3.868   4.559   3.996  0.6992  0.7427  0.8219
   57MOL   C56242114   3.925   4.424   3.960  0.3201 -0.8229  0.3307
   57MOL   C56342115   4.062   4.439   3.892 -0.0617 -0.2385 -0.0263
   57MOL   C56442116   4.155   4.311   3.888 -0.7616 -0.0187 -0.6287
   57MOL   C56542117   4.292   4.324   3.827  0.3012  0.1785  0.1371
   57MOL   C56642118   4.380   4.423   3.903  0.4202 -0.5344  0.0641
   57MOL   C56742119   4.516   4.451   3.839  0.2511  0.3373  0.4561
   57MOL   C56842120   4.520   4.542   3.714  0.1235 -0.4349  0.0247
   57MOL   C56942121   4.664   4.576   3.665  0.3135  0.3634 -0.7556
   57MOL   N57042122   4.673   4.680   3.567 -0.0991  0.1188  0.0750
   57MOL   H57142123   3.780   4.817   3.880  1.1576 -1.1475 -1.0669
   57MOL   H57242124   3.617   4.753   3.845  0.8428  2.3368 -1.3432
   57MOL   H57342125   3.695   4.521   3.876 -0.8465  0.4839 -1.6133
   57MOL   H57442126   3.824   4.600   3.799  0.3347 -0.8416  0.3168
   57MOL   H57542127   3.808   4.544   4.086  0.7621  1.8459  1.0617
   57MOL   H57642128   3.938   4.638   4.024  0.1644  0.5535  2.8184
   57MOL   H57742129   3.938   4.381   4.059  2.7598  2.1595  1.4023
   57MOL   H57842130   3.861   4.353   3.909  0.3131  0.9035 -2.1653
   57MOL   H57942131   4.115   4.519   3.943 -0.7206 -0.0488  0.3748
   57MOL   H58042132   4.045   4.468   3.789  0.6335  0.8496  0.1678
   57MOL   H58142133   4.100   4.228   3.843  0.0475 -1.2148  0.5331
   57MOL   H58242134   4.156   4.284   3.993 -0.1274 -2.2786 -1.1868
   57MOL   H58342135   4.285   4.346   3.721 -2.0929 -0.1384  0.1989
   57MOL   H58442136   4.325   4.220   3.836 -1.2797 -0.3969 -0.4751
   57MOL   H58542137   4.397   4.375   3.999  0.8388  0.0929  0.3107
   57MOL   H58642138   4.328   4.515   3.928  1.0807 -0.5572  1.5931
   57MOL   H58742139   4.562   4.355   3.817  0.2319 -0.0400  2.0389
   57MOL   H58842140   4.583   4.503   3.908  3.2547 -1.0087 -1.3202
   57MOL   H58942141   4.469   4.634   3.742 -2.8204 -2.4154  1.4602
   57MOL   H59042142   4.469   4.498   3.628  0.4012 -0.1856 -0.2719
   57MOL   H59142143   4.716   4.491   3.620 -0.0940  0.2507 -1.0243
   57MOL   H59242144   4.723   4.608   3.751  2.4288  0.9568 -2.3812
   57MOL   H59342145   4.720   4.759   3.610  3.2866 -2.5962  1.6764
   57MOL   C59442146   4.622   4.678   3.443  0.7106  0.7406 -0.4875
   57MOL   O59542147   4.568   4.578   3.400  0.1696  0.2877 -0.0516
   57MOL   C59642148   4.632   4.809   3.363  0.7362 -0.3560  0.2124
   57MOL   C59742149   4.565   4.801   3.224  0.4016 -0.1317  0.3590
   57MOL   C59842150   4.531   4.932   3.148 -0.5634 -0.5978 -0.2146
   57MOL   C59942151   4.433   4.904   3.031 -0.6494  0.6116 -0.0457
   57MOL   C60042152   4.508   4.879   2.898  0.1425  0.0853 -0.4549
   57MOL   C60142153   4.410   4.875   2.781  0.0210 -0.4037 -0.3431
   57MOL   C60242154   4.474   4.881   2.645 -0.6727  0.1078  0.6544
   57MOL   C60342155   4.389   4.878   2.525 -0.4529 -0.7178  0.1580
   57MOL   C60442156   4.308   4.749   2.501 -0.7275  0.1002  0.2530
   57MOL   C60542157   4.196   4.774   2.397 -0.1720  0.5336  0.8798
   57MOL   C60642158   4.111   4.646   2.366  0.0921 -0.1996 -0.0910
   57MOL   N60742159   4.189   4.551   2.287  0.0940  0.1702  0.6525
   57MOL   H60842160   4.735   4.842   3.350  0.5129 -0.1240 -1.0394
   57MOL   H60942161   4.587   4.892   3.417 -0.5703 -0.5277 -0.5851
   57MOL   H61042162   4.633   4.743   3.161  0.5753  0.3047  0.1493
   57MOL   H61142163   4.474   4.741   3.228  0.8212 -0.7541  0.7476
   57MOL   H61242164   4.628   4.976   3.123 -0.9691 -0.1679 -1.0925
   57MOL   H61342165   4.480   4.995   3.221  1.7076  0.4597  0.5397
   57MOL   H61442166   4.363   4.824   3.054 -0.1037 -0.0269 -0.5976
   57MOL   H61542167   4.387   5.001   3.017 -1.6650 -0.0638 -1.4651
   57MOL   H61642168   4.546   4.776   2.901  0.1969  0.1300  0.4339
   57MOL   H61742169   4.590   4.949   2.883 -0.5327  0.7116 -1.2256
   57MOL   H61842170   4.324   4.939   2.801  0.4002 -0.2399  0.7896
   57MOL   H61942171   4.365   4.776   2.786 -3.1501  0.9720 -0.8073
   57MOL   H62042172   4.549   4.803   2.635  2.1028  2.7731  0.0220
   57MOL   H62142173   4.545   4.964   2.649 -1.6302  1.0081 -0.4969
   57MOL   H62242174   4.453   4.892   2.438 -1.2598  2.5975  0.0020
   57MOL   H62342175   4.330   4.970   2.531 -0.3527 -0.6555  0.1962
   57MOL   H62442176   4.264   4.722   2.597 -1.4869  0.6939  0.0742
   57MOL   H62542177   4.383   4.676   2.469  0.4898  2.2190 -1.9322
   57MOL   H62642178   4.235   4.813   2.303  0.3864  1.4214  1.4811
   57MOL   H62742179   4.121   4.843   2.436 -1.6035 -1.5927  1.9872
   57MOL   H62842180   4.021   4.666   2.307  0.1782  2.0332  0.4963
   57MOL   H62942181   4.089   4.596   2.460  1.7915 -0.8560 -0.0138
   57MOL   H63042182   4.290   4.558   2.285 -0.0324  1.8586 -0.2253
   57MOL   C63142183   4.129   4.464   2.206  0.4741 -0.0869 -0.1816
   57MOL   O63242184   4.009   4.443   2.214 -0.4212 -0.1960 -0.2570
   57MOL   C63342185   4.215   4.389   2.104  0.0379 -1.1498  0.1456
   57MOL   C63442186   4.204   4.426   1.953  0.1195  0.2037  0.0599
   57MOL   C63542187   4.271   4.553   1.910  0.2371  0.1479  0.2279
   57MOL   C63642188   4.227   4.608   1.775  0.2868  0.1063  0.3205
   57MOL   C63742189   4.274   4.750   1.746 -0.3190  0.3534  0.4437
   57MOL   C63842190   4.419   4.754   1.696  0.1474  0.5889 -0.3923
   57MOL   C63942191   4.457   4.885   1.624  0.3035 -0.0599 -0.3995
   57MOL   C64042192   4.456   5.013   1.712  0.6133  0.8982  0.3638
   57MOL   C64142193   4.472   5.141   1.635 -0.6691  0.1134  0.8249
   57MOL   C64242194   4.476   5.271   1.712 -0.2302  0.2088 -0.6340
   57MOL   C64342195   4.498   5.401   1.637 -0.5391  0.0390 -0.4451
   57MOL   N64442196   4.478   5.514   1.728  0.1153  0.2306 -0.5205
   57MOL   H64542197   4.178   4.287   2.120 -0.7200 -1.1129 -1.3246
   57MOL   H64642198   4.320   4.388   2.133  0.6399 -0.3789 -1.9444
   57MOL   H64742199   4.251   4.346   1.895  3.2031  0.2298  2.4474
   57MOL   H64842200   4.097   4.424   1.932 -0.2406  0.4596  1.7988
   57MOL   H64942201   4.379   4.541   1.900  0.5752  1.7801  1.6437
   57MOL   H65042202   4.263   4.629   1.988  0.4097 -1.9172  2.3265
   57MOL   H65142203   4.260   4.540   1.697  1.0449  0.4539  0.3322
   57MOL   H65242204   4.118   4.614   1.778  0.2912  0.0656  0.6102
   57MOL   H65342205   4.274   4.810   1.836 -2.5609  1.1904 -0.0739
   57MOL   H65442206   4.202   4.797   1.678 -0.9464 -1.2130 -0.0070
   57MOL   H65542207   4.436   4.680   1.618 -1.5509  1.0187 -1.1768
   57MOL   H65642208   4.478   4.721   1.781  2.2990  3.1655 -0.7912
   57MOL   H65742209   4.399   4.898   1.533  0.0890 -1.4261 -0.4601
   57MOL   H65842210   4.557   4.884   1.580  0.1692  0.3947 -0.7202
   57MOL   H65942211   4.525   5.019   1.795  1.9177 -2.7104 -0.3800
   57MOL   H66042212   4.356   5.030   1.753  1.2025 -2.0798  3.1873
   57MOL   H66142213   4.389   5.137   1.565 -0.8236 -0.3001  1.0255
   57MOL   H66242214   4.564   5.146   1.577 -1.9699  0.1712 -1.2487
   57MOL   H66342215   4.548   5.267   1.793 -0.0892  1.3947 -0.7006
   57MOL   H66442216   4.381   5.262   1.764 -0.8812 -0.9961 -1.9581
   57MOL   H66542217   4.432   5.401   1.550 -0.0486 -0.3437 -0.8183
   57MOL   H66642218   4.597   5.405   1.593 -0.0689  1.2443  0.6936
   57MOL   H66742219   4.557   5.570   1.757 -0.1333  0.9508 -1.2457
   57MOL   C66842220   4.358   5.563   1.765 -0.2797 -0.0565 -0.0513
   57MOL   O66942221   4.255   5.503   1.750  0.0702 -0.0972  0.1524
   57MOL   C67042222   4.357   5.703   1.827  0.5318  0.7633  0.1683
   57MOL   C67142223   4.365   5.711   1.982  0.2253  0.5407  0.1943
   57MOL   C67242224   4.497   5.685   2.044  0.2347  0.2986  0.0829
   57MOL   C67342225   4.482   5.604   2.176  0.8338  0.3053  0.3086
   57MOL   C67442226   4.411   5.463   2.184  0.1109  0.4426 -0.2165
   57MOL   C67542227   4.502   5.358   2.121 -0.7516  0.2612 -0.8105
   57MOL   C67642228   4.447   5.220   2.169  0.4207  0.4526 -0.2878
   57MOL   C67742229   4.516   5.103   2.102  0.1091  0.6572  0.0416
   57MOL   C67842230   4.497   4.975   2.178  0.4614  0.1329  0.2616
   57MOL   C67942231   4.529   4.845   2.104  0.4863  0.3457  0.3075
   57MOL   C68042232   4.521   4.719   2.193  0.8225 -0.5332 -0.2333
   57MOL   N68142233   4.575   4.592   2.136  0.2739 -0.4058 -0.2339
   57MOL   H68242234   4.270   5.756   1.789 -0.4138 -1.4260 -0.8129
   57MOL   H68342235   4.442   5.762   1.791 -1.3957  2.6648 -1.3367
   57MOL   H68442236   4.333   5.807   2.022 -1.2421 -0.1685  0.7470
   57MOL   H68542237   4.279   5.650   2.010  1.5512 -0.8818  1.2285
   57MOL   H68642238   4.549   5.780   2.060 -0.6334  0.6458  0.9216
   57MOL   H68742239   4.553   5.639   1.963 -0.3863 -1.0435  0.3927
   57MOL   H68842240   4.582   5.599   2.220  1.3696 -0.4507 -0.9828
   57MOL   H68942241   4.432   5.666   2.250  0.9807 -0.5558  1.1405
   57MOL   H69042242   4.309   5.461   2.146  0.4876 -0.3896 -1.1989
   57MOL   H69142243   4.406   5.438   2.290  1.7792 -0.1654 -0.2728
   57MOL   H69242244   4.599   5.368   2.169 -1.2174  0.5052  0.0938
   57MOL   H69342245   4.512   5.364   2.013  2.5869  0.3549 -0.5499
   57MOL   H69442246   4.338   5.216   2.166  0.4058 -0.3119  0.8839
   57MOL   H69542247   4.466   5.206   2.275 -1.8441  0.6078  0.1707
   57MOL   H69642248   4.624   5.119   2.102  0.0076  1.3880 -0.2955
   57MOL   H69742249   4.480   5.087   2.000  3.1306 -0.6355 -0.8960
   57MOL   H69842250   4.397   4.965   2.221  0.9531 -3.4830  0.7454
   57MOL   H69942251   4.555   4.993   2.269 -0.1460  0.8525  0.5162
   57MOL   H70042252   4.631   4.855   2.070  0.8686 -0.7162  1.0884
   57MOL   H70142253   4.459   4.831   2.022  0.6367 -0.2106  0.2686
   57MOL   H70242254   4.415   4.711   2.217  0.4144  2.0031 -0.9645
   57MOL   H70342255   4.580   4.740   2.282  0.7983 -0.2679 -0.2785
   57MOL   H70442256   4.627   4.588   2.049 -0.7964 -1.7717 -0.8341
   57MOL   C70542257   4.570   4.475   2.202  0.2784 -0.3581  0.0359
   57MOL   O70642258   4.508   4.460   2.308  0.5719 -0.2162 -0.8514
   57MOL   C70742259   4.651   4.357   2.139  0.8499  0.8285  0.1557
   57MOL   C70842260   4.585   4.219   2.147 -0.3765 -0.4472  0.0324
   57MOL   C70942261   4.664   4.102   2.091 -0.7706  0.0531 -0.0898
   57MOL   C71042262   4.584   3.980   2.085 -0.0109 -0.4344  0.4861
   57MOL   C71142263   4.665   3.866   2.023 -0.4691  0.6680 -0.1972
   57MOL   C71242264   4.597   3.728   2.025  0.2533 -0.3984  0.2984
   57MOL   C71342265   4.654   3.631   1.921 -0.4046  0.5099  0.1293
   57MOL   C71442266   4.612   3.485   1.952 -0.5708  0.2460 -0.1699
   57MOL   C71542267   4.649   3.388   1.847  0.1008  0.2552 -0.3520
   57MOL   C71642268   4.606   3.241   1.873 -0.8757  0.6849 -1.3962
   57MOL   C71742269   4.604   3.153   1.751  0.1274  0.6501  0.3411
   57MOL   N71842270   4.574   3.014   1.784  0.0219 -0.6929  0.2740
   57MOL   H71942271   4.750   4.340   2.182  0.2350 -1.4014  0.7530
   57MOL   H72042272   4.684   4.381   2.038 -5.0099 -0.3023 -2.2334
   57MOL   H72142273   4.539   4.203   2.245  0.1580  2.2408  0.7531
   57MOL   H72242274   4.496   4.219   2.084 -0.2715 -1.3445 -0.1272
   57MOL   H72342275   4.757   4.080   2.143  0.6244  0.1869 -2.4479
   57MOL   H72442276   4.689   4.130   1.989 -0.9399 -0.7950 -0.3655
   57MOL   H72542277   4.549   3.955   2.185  1.1149 -3.6074  0.1511
   57MOL   H72642278   4.499   3.993   2.019  0.5557  2.2238  0.2412
   57MOL   H72742279   4.769   3.861   2.057  0.2401  0.7826 -2.3162
   57MOL   H72842280   4.689   3.902   1.924  1.5493  0.3405  0.1574
   57MOL   H72942281   4.489   3.734   2.007  0.1047 -0.7818  1.0406
   57MOL   H73042282   4.619   3.695   2.127  1.5116 -3.6908 -0.9703
   57MOL   H73142283   4.763   3.633   1.920 -0.3385 -1.6013 -0.6801
   57MOL   H73242284   4.627   3.655   1.819  0.4319 -0.8836 -0.4418
   57MOL   H73342285   4.507   3.484   1.980 -1.1744 -1.1338 -2.3084
   57MOL   H73442286   4.657   3.466   2.049 -1.6098  0.6390  0.3983
   57MOL   H73542287   4.756   3.393   1.829  0.0849  0.1887 -0.4639
   57MOL   H73642288   4.599   3.418   1.754 -2.4940  0.1878  0.9856
   57MOL   H73742289   4.504   3.246   1.912  0.1336 -2.9534  2.1064
   57MOL   H73842290   4.661   3.198   1.957 -0.7101 -1.3195 -2.5059
   57MOL   H73942291   4.704   3.148   1.709 -0.3255 -0.6145 -0.6294
   57MOL   H74042292   4.525   3.176   1.679 -0.0022 -0.2940  0.1834
   57MOL   H74142293   4.571   2.950   1.707  0.8893 -2.1317  1.4097
   57MOL   H74242294   4.635   2.987   1.860  0.3199  2.9714  1.4728
   58MOL     C142295   6.779   0.679   2.055  0.1573  0.3166  0.6805
   58MOL     O242296   6.883   0.722   2.010 -0.5030  0.0621 -0.1923
   58MOL     C342297   6.673   0.769   2.122  0.2625  0.2189 -0.2046
   58MOL     C442298   6.687   0.916   2.090 -0.2157  0.0769 -0.0578
   58MOL     C542299   6.630   0.964   1.955  0.2820 -0.4987  0.1834
   58MOL     C642300   6.643   1.118   1.933  0.4764 -0.7972  0.9325
   58MOL     C742301   6.664   1.152   1.782  0.6132  0.1031 -0.5854
   58MOL     C842302   6.546   1.104   1.709 -0.0413  0.2769 -0.2117
   58MOL     C942303   6.532   1.167   1.566  0.5238 -0.6921 -0.5489
   58MOL    C1042304   6.452   1.084   1.464  0.2714 -0.4107 -0.4611
   58MOL    C1142305   6.432   1.175   1.344 -0.2670  0.0399  0.0465
   58MOL    C1242306   6.384   1.108   1.219  0.1860 -0.1596  0.2277
   58MOL    C1342307   6.359   1.213   1.108  0.3241 -0.0653 -0.3184
   58MOL    N1442308   6.311   1.137   0.993 -0.2259  0.3589  0.0714
   58MOL    H1542309   6.671   0.735   2.226 -1.2811 -1.0913 -0.6414
   58MOL    H1642310   6.577   0.741   2.079  0.3204 -3.6988  1.9783
   58MOL    H1742311   6.646   0.970   2.175 -0.0336  0.0701  0.0341
   58MOL    H1842312   6.791   0.947   2.103 -0.6893  1.1643  1.3211
   58MOL    H1942313   6.523   0.941   1.953 -0.3137  2.0461  1.0649
   58MOL    H2042314   6.677   0.898   1.882  0.4169 -0.3461  0.1319
   58MOL    H2142315   6.556   1.174   1.965  2.1567  2.5963 -0.2053
   58MOL    H2242316   6.726   1.161   1.989  1.4541  0.2645 -1.2369
   58MOL    H2342317   6.760   1.108   1.754 -0.5339 -2.5918 -0.4521
   58MOL    H2442318   6.663   1.261   1.789 -0.6370  0.0345  0.5467
   58MOL    H2542319   6.458   1.121   1.772  0.0366 -0.1646  0.0155
   58MOL    H2642320   6.562   0.998   1.690  0.6920  0.4462 -0.5262
   58MOL    H2742321   6.632   1.194   1.531 -0.5413  0.6867 -2.6130
   58MOL    H2842322   6.486   1.262   1.593  0.9725 -0.4835 -0.5084
   58MOL    H2942323   6.359   1.046   1.506  0.2813  0.2792  0.1972
   58MOL    H3042324   6.516   0.998   1.445  0.1943 -0.8203  1.0699
   58MOL    H3142325   6.520   1.238   1.331  0.2943 -0.9514 -1.0356
   58MOL    H3242326   6.355   1.249   1.367 -1.7647 -0.9760 -1.6103
   58MOL    H3342327   6.296   1.046   1.235 -0.0058  0.0745  0.0872
   58MOL    H3442328   6.459   1.035   1.190 -0.9184 -2.5030  3.1232
   58MOL    H3542329   6.450   1.269   1.086  1.3960 -2.7179 -2.8242
   58MOL    H3642330   6.297   1.299   1.134 -1.5086 -2.1369  2.4013
   58MOL    H3742331   6.380   1.087   0.938  1.3092 -0.2475  2.4649
   58MOL    H3842332   6.745   0.575   2.045  2.2140 -0.3457  0.3893
   58MOL    C3942333   6.179   1.109   0.965 -0.0938  0.8362 -0.6884
   58MOL    O4042334   6.092   1.162   1.033 -0.7515  0.1105 -0.7509
   58MOL    C4142335   6.150   1.009   0.849  0.4765  0.6795 -0.2167
   58MOL    C4242336   6.029   0.917   0.879  0.0717 -0.0475  0.1396
   58MOL    C4342337   5.970   0.844   0.753  0.0926 -0.3870  0.6723
   58MOL    C4442338   5.911   0.939   0.648 -0.1082  0.1220  0.3370
   58MOL    C4542339   5.789   1.020   0.697  0.4042 -0.4023  0.4512
   58MOL    C4642340   5.730   1.106   0.591  0.0727 -0.1679 -0.1619
   58MOL    C4742341   5.605   1.197   0.630  0.9252 -0.7056  0.6474
   58MOL    C4842342   5.522   1.246   0.512  0.6569 -0.4917  0.4315
   58MOL    C4942343   5.433   1.364   0.550 -0.4686  0.1924  0.3779
   58MOL    C5042344   5.332   1.411   0.441  0.1056  0.2742  0.4993
   58MOL    C5142345   5.295   1.561   0.426  0.4293  0.8883 -0.2368
   58MOL    N5242346   5.156   1.585   0.389 -0.5639  0.1028  0.0321
   58MOL    H5342347   6.240   0.949   0.835  0.9093  0.9637  1.1929
   58MOL    H5442348   6.126   1.066   0.759 -0.1954 -2.1569 -1.8901
   58MOL    H5542349   6.056   0.849   0.959 -0.7926 -0.4637  0.0811
   58MOL    H5642350   5.947   0.975   0.921 -0.1904 -0.4661  0.2080
   58MOL    H5742351   5.896   0.772   0.787 -1.2315  0.4189 -0.4649
   58MOL    H5842352   6.049   0.784   0.709 -0.5697 -0.8421  0.1139
   58MOL    H5942353   5.988   1.013   0.624  0.4802  0.3095  2.6580
   58MOL    H6042354   5.880   0.883   0.560 -0.2108  1.5045 -0.5278
   58MOL    H6142355   5.802   1.070   0.793 -1.5428  0.6232  0.2164
   58MOL    H6242356   5.701   0.967   0.733 -1.2027  1.9999  0.1921
   58MOL    H6342357   5.692   1.042   0.511 -2.9797 -0.2842  1.3249
   58MOL    H6442358   5.805   1.175   0.553  0.3810 -0.5846 -0.3155
   58MOL    H6542359   5.638   1.282   0.691 -0.2337  0.1691  0.0523
   58MOL    H6642360   5.546   1.147   0.706  1.2037 -0.2689  1.1639
   58MOL    H6742361   5.457   1.163   0.484  0.3120  1.2369 -4.2492
   58MOL    H6842362   5.591   1.274   0.433 -1.0643 -0.4991 -1.1034
   58MOL    H6942363   5.498   1.448   0.573  0.1979  0.1206 -1.2088
   58MOL    H7042364   5.376   1.355   0.643 -0.2739  0.6112  0.5360
   58MOL    H7142365   5.244   1.351   0.465  1.0580 -1.6313 -0.6923
   58MOL    H7242366   5.369   1.387   0.341  0.4497 -0.8779  0.8899
   58MOL    H7342367   5.356   1.610   0.351  1.3938 -1.5875 -1.1411
   58MOL    H7442368   5.330   1.602   0.521  0.8205 -0.2373  0.1138
   58MOL    H7542369   5.100   1.501   0.378  0.4534 -0.5435 -0.2421
   58MOL    C7642370   5.098   1.706   0.372  0.0043  0.4099 -0.2872
   58MOL    O7742371   5.160   1.810   0.391 -0.2746  0.4225  0.2837
   58MOL    C7842372   4.944   1.707   0.321  0.7243 -0.4495 -1.0772
   58MOL    C7942373   4.906   1.833   0.239 -0.1901  0.8168  0.4799
   58MOL    C8042374   4.777   1.825   0.153  0.8511 -0.1966  0.5954
   58MOL    C8142375   4.807   1.739   0.023  1.1220  0.1757  0.8597
   58MOL    C8242376   4.685   1.724   7.614 -0.4446 -0.2049 -0.2205
   58MOL    C8342377   4.717   1.625   7.499  0.1652  0.2476  0.1998
   58MOL    C8442378   4.603   1.592   7.401 -0.3301  0.1054  0.3315
   58MOL    C8542379   4.505   1.473   7.425 -0.1345  0.3382 -0.2332
   58MOL    C8642380   4.382   1.516   7.503 -0.3567 -0.0682 -0.0323
   58MOL    C8742381   4.299   1.400   7.539  0.1550  0.3450  0.0217
   58MOL    C8842382   4.189   1.441   7.641  0.3538  0.4825  0.1757
   58MOL    N8942383   4.110   1.321   7.671  0.0257 -0.6781  0.4934
   58MOL    H9042384   4.874   1.692   0.404  1.2001 -1.8982 -0.9300
   58MOL    H9142385   4.943   1.625   0.250  1.6707  0.8863 -2.6484
   58MOL    H9242386   4.916   1.926   0.295 -1.8822  2.2068 -1.4910
   58MOL    H9342387   4.988   1.843   0.168 -0.6437 -1.4464 -0.4194
   58MOL    H9442388   4.743   1.925   0.125  0.9531  0.3521  2.3577
   58MOL    H9542389   4.694   1.785   0.212 -0.2277  0.5337 -0.3964
   58MOL    H9642390   4.890   1.780   7.660  1.9244 -1.2575  0.9791
   58MOL    H9742391   4.847   1.643   0.054  0.2344 -0.1904  0.8965
   58MOL    H9842392   4.668   1.825   7.577 -1.8652 -0.9113 -1.5443
   58MOL    H9942393   4.591   1.694   7.661 -0.1602  0.1040  0.5579
   58MOL   H10042394   4.756   1.535   7.546 -1.2685 -0.9910 -0.9415
   58MOL   H10142395   4.799   1.667   7.441  0.2252  1.4032  1.0880
   58MOL   H10242396   4.644   1.578   7.301 -0.1020 -0.9433  0.5690
   58MOL   H10342397   4.547   1.683   7.379 -0.3419  0.1172  0.4117
   58MOL   H10442398   4.559   1.395   7.478 -0.2695 -0.0445 -0.6582
   58MOL   H10542399   4.479   1.437   7.325  0.0177 -3.6138  1.0782
   58MOL   H10642400   4.316   1.580   7.444 -0.8229  0.3169  0.8852
   58MOL   H10742401   4.414   1.567   7.594  1.0480 -0.9104 -0.0490
   58MOL   H10842402   4.375   1.334   7.581  0.0783 -0.2180 -0.6986
   58MOL   H10942403   4.267   1.354   7.445  1.4271 -0.0178 -0.2462
   58MOL   H11042404   4.118   1.512   7.599 -0.7648 -0.1587  0.9446
   58MOL   H11142405   4.233   1.479   0.039 -1.3774 -0.2351  1.3427
   58MOL   H11242406   4.018   1.324   7.630  0.5148  0.2797 -0.5704
   58MOL   C11342407   4.136   1.228   0.069 -0.3979 -0.3372 -0.2937
   58MOL   O11442408   4.247   1.225   0.127  0.2018 -0.0325 -0.1609
   58MOL   C11542409   4.039   1.114   0.090  0.1039 -0.1280 -0.0961
   58MOL   C11642410   4.041   1.058   0.237 -0.2865  0.6193  0.0373
   58MOL   C11742411   3.972   1.139   0.346  0.0029  0.0127  0.5909
   58MOL   C11842412   3.826   1.147   0.313 -0.0156  0.1322 -0.1767
   58MOL   C11942413   3.741   1.170   0.435 -1.5744 -0.6951  0.2775
   58MOL   C12042414   3.759   1.313   0.490 -0.5253  1.2316  0.1732
   58MOL   C12142415   3.633   1.349   0.579 -0.2460  0.2236  0.1030
   58MOL   C12242416   3.633   1.485   0.632  0.0693  0.2848 -0.8383
   58MOL   C12342417   3.501   1.518   0.704 -0.4752 -0.4463 -0.5917
   58MOL   C12442418   3.487   1.661   0.768 -0.0169 -0.0766 -0.5933
   58MOL   C12542419   3.356   1.686   0.840  0.0846  0.6716 -0.0215
   58MOL   N12642420   3.248   1.646   0.757 -0.0476 -0.0260  0.0180
   58MOL   H12742421   4.069   1.046   0.010  0.0486  0.1075 -0.3166
   58MOL   H12842422   3.936   1.144   0.071  0.2300  0.2592 -0.1761
   58MOL   H12942423   3.998   0.957   0.237 -1.2500  1.0273 -1.2304
   58MOL   H13042424   4.144   1.047   0.270  0.6371  1.7753 -2.4110
   58MOL   H13142425   4.011   1.240   0.339  0.7189 -0.2466  0.7703
   58MOL   H13242426   3.990   1.086   0.439 -0.7142 -2.6717 -0.7318
   58MOL   H13342427   3.803   1.227   0.243 -1.3008 -0.1204 -0.0450
   58MOL   H13442428   3.799   1.051   0.271 -1.3399  0.0620  0.8036
   58MOL   H13542429   3.763   1.097   0.513 -1.1456  0.1274  0.9429
   58MOL   H13642430   3.637   1.147   0.413 -2.1849  1.9694  0.2208
   58MOL   H13742431   3.756   1.384   0.408 -1.3611  1.9809  0.8341
   58MOL   H13842432   3.851   1.327   0.547 -0.9539  0.0297  1.2098
   58MOL   H13942433   3.635   1.280   0.663 -1.8752 -0.1463 -0.1463
   58MOL   H14042434   3.541   1.339   0.522  0.0916 -2.0364 -0.0638
   58MOL   H14142435   3.629   1.558   0.551  0.1196  0.0835 -1.0216
   58MOL   H14242436   3.726   1.498   0.688 -0.3997 -1.6963  0.4267
   58MOL   H14342437   3.488   1.457   0.793  0.1783  1.5241  0.8826
   58MOL   H14442438   3.414   1.512   0.638 -0.4357 -0.0695 -0.6811
   58MOL   H14542439   3.497   1.738   0.692  1.7962 -0.4934 -0.8013
   58MOL   H14642440   3.572   1.680   0.834 -0.2169  0.7177 -0.5576
   58MOL   H14742441   3.357   1.786   0.884  0.8783  1.2753 -1.3724
   58MOL   H14842442   3.344   1.619   0.924  2.2271  2.0955  1.4748
   58MOL   H14942443   3.224   1.548   0.745 -1.9538  0.3212  0.7501
   58MOL   C15042444   3.161   1.717   0.679  0.4678 -0.0916 -0.0356
   58MOL   O15142445   3.175   1.839   0.670  0.6459 -0.3703  0.3516
   58MOL   C15242446   3.054   1.641   0.599 -0.5410 -0.1232 -0.4633
   58MOL   C15342447   2.933   1.727   0.571  0.2253 -0.1366  0.2069
   58MOL   C15442448   2.842   1.664   0.464  0.3927  0.0915  0.2083
   58MOL   C15542449   2.695   1.709   0.466  0.0410  0.3023 -0.1005
   58MOL   C15642450   2.619   1.618   0.374  0.5479  0.1671 -0.3011
   58MOL   C15742451   2.471   1.655   0.373 -0.5345 -0.1207  0.0843
   58MOL   C15842452   2.375   1.549   0.315 -0.3533  0.4861  0.0467
   58MOL   C15942453   2.236   1.610   0.304  0.4304 -0.6179 -0.0553
   58MOL   C16042454   2.129   1.515   0.264  0.3965  0.6206 -0.7390
   58MOL   C16142455   2.085   1.428   0.392 -0.6032 -0.0903 -0.0391
   58MOL   C16242456   1.977   1.331   0.363  0.0780  0.2907  0.6153
   58MOL   N16342457   1.958   1.246   0.480 -0.3729  0.0616 -0.4809
   58MOL   H16442458   3.022   1.560   0.665  1.1455 -2.3145 -2.2418
   58MOL   H16542459   3.095   1.589   0.512  2.0056  1.5584 -0.3346
   58MOL   H16642460   2.884   1.724   0.669 -0.0075  1.2478  0.1429
   58MOL   H16742461   2.954   1.831   0.548 -0.2289  0.0356  0.5525
   58MOL   H16842462   2.833   1.559   0.492 -1.8216  1.0188  3.2257
   58MOL   H16942463   2.890   1.667   0.366  0.0119  0.9734  0.0448
   58MOL   H17042464   2.655   1.705   0.568  0.0279  1.1351 -0.0639
   58MOL   H17142465   2.698   1.817   0.448  0.5620  0.1858 -0.7263
   58MOL   H17242466   2.631   1.515   0.410  2.2413  1.8965  4.4668
   58MOL   H17342467   2.664   1.616   0.275  0.1481 -1.3681 -0.4607
   58MOL   H17442468   2.465   1.750   0.321  1.2290  1.6605  2.9825
   58MOL   H17542469   2.434   1.665   0.474 -2.0934  1.6267 -0.6396
   58MOL   H17642470   2.377   1.466   0.387 -2.2408  0.5222  0.1744
   58MOL   H17742471   2.403   1.506   0.219 -0.7198 -0.7876  0.4889
   58MOL   H17842472   2.243   1.701   0.244  1.6255  0.9431  2.3774
   58MOL   H17942473   2.220   1.646   0.405  0.7249 -0.4942 -0.0515
   58MOL   H18042474   2.148   1.446   0.181  0.6413 -0.3517  0.1175
   58MOL   H18142475   2.040   1.575   0.244  0.6780  0.2006 -3.4504
   58MOL   H18242476   2.076   1.493   0.478 -0.2876 -2.0479  1.5160
   58MOL   H18342477   2.171   1.369   0.424  0.2283  0.5949 -0.9669
   58MOL   H18442478   1.988   1.268   0.275  1.3597 -0.2059  1.1188
   58MOL   H18542479   1.879   1.379   0.359  0.9467  2.0170 -0.2913
   58MOL   H18642480   1.942   1.290   0.570 -2.3745 -0.2465 -0.6630
   58MOL   C18742481   2.006   1.119   0.483  0.5766 -0.3174  0.5024
   58MOL   O18842482   2.076   1.073   0.387 -0.1130 -0.0053 -0.3778
   58MOL   C18942483   1.987   1.039   0.612 -0.5039  0.1703 -0.0474
   58MOL   C19042484   2.003   0.887   0.599  0.9367 -0.6318 -0.4870
   58MOL   C19142485   1.877   0.812   0.547  0.1728  0.3538 -0.7076
   58MOL   C19242486   1.886   0.666   0.582 -0.3298  0.0409 -0.0021
   58MOL   C19342487   1.772   0.582   0.522 -0.4041  0.5796 -0.2679
   58MOL   C19442488   1.782   0.430   0.574  0.0954 -0.6467 -1.1020
   58MOL   C19542489   1.666   0.337   0.519  0.1460 -0.3948  0.9634
   58MOL   C19642490   1.669   0.188   0.558  0.0278  0.3786 -0.7180
   58MOL   C19742491   1.578   0.108   0.455 -0.7068 -0.4788  0.0147
   58MOL   C19842492   1.575   7.657   0.509 -0.5786  0.0998  0.0637
   58MOL   C19942493   1.527   7.566   0.394  0.2519 -0.0510 -0.2328
   58MOL   N20042494   1.490   7.437   0.451  0.2893  0.3378  0.3582
   58MOL   H20142495   1.886   1.062   0.645 -0.5852  1.8024 -1.3461
   58MOL   H20242496   2.055   1.080   0.687  2.0911 -1.7782 -1.2495
   58MOL   H20342497   2.095   0.863   0.547  0.5806  2.6062 -2.7082
   58MOL   H20442498   2.014   0.840   0.697  2.9982  1.6947  0.4662
   58MOL   H20542499   1.873   0.820   0.438  0.2761 -0.0654 -0.7419
   58MOL   H20642500   1.788   0.855   0.593  0.6879  0.7200 -0.0492
   58MOL   H20742501   1.981   0.621   0.554 -0.9152 -0.3202 -1.4849
   58MOL   H20842502   1.890   0.652   0.690  0.1635 -1.0728 -0.1519
   58MOL   H20942503   1.788   0.580   0.414  1.0896 -2.8584 -0.0268
   58MOL   H21042504   1.674   0.623   0.548 -0.4572  0.0128  0.4460
   58MOL   H21142505   1.785   0.426   0.683  0.6799  1.0840 -1.0484
   58MOL   H21242506   1.878   0.392   0.542  0.2412 -1.4149  0.2055
   58MOL   H21342507   1.670   0.362   0.413 -1.5715 -0.6111  0.8406
   58MOL   H21442508   1.573   0.386   0.550 -0.6554  1.2830 -3.6638
   58MOL   H21542509   1.614   0.192   0.652 -0.8368 -1.5535 -1.1231
   58MOL   H21642510   1.767   0.146   0.582 -0.2523 -0.2469 -0.6657
   58MOL   H21742511   1.622   0.122   0.356  0.8439  1.1665  0.8967
   58MOL   H21842512   1.476   0.144   0.455 -0.4421  0.3247  0.9776
   58MOL   H21942513   1.506   7.642   0.592 -0.5551 -0.8510 -0.0794
   58MOL   H22042514   1.679   7.635   0.533 -0.1814  1.7361 -0.1193
   58MOL   H22142515   1.609   7.554   0.323  1.5502 -0.5766  1.3278
   58MOL   H22242516   1.438   7.607   0.347  0.3852  1.5594  0.8632
   58MOL   H22342517   1.566   7.374   0.429 -0.2510 -0.4097  0.6317
   58MOL   C22442518   1.374   7.403   0.507 -0.9126  1.0640  0.2327
   58MOL   O22542519   1.285   7.484   0.530  0.3078  0.0467  0.0361
   58MOL   C22642520   1.371   7.253   0.535  0.5113 -0.5913  0.1941
   58MOL   C22742521   1.387   7.216   0.682  0.0527 -0.6036  0.5821
   58MOL   C22842522   1.374   7.066   0.706  0.1139  0.0222 -0.2755
   58MOL   C22942523   1.369   7.031   0.857 -0.0748 -0.0642  0.1697
   58MOL   C23042524   1.344   6.879   0.891 -0.1690 -0.5612 -0.0532
   58MOL   C23142525   1.205   6.835   0.846 -0.2428 -0.0090 -0.5973
   58MOL   C23242526   1.187   6.681   0.837 -0.5889  0.1512  0.1380
   58MOL   C23342527   1.077   6.638   0.746  0.3098  0.7095 -0.1348
   58MOL   C23442528   0.939   6.669   0.810 -0.3100 -0.3338 -0.1552
   58MOL   C23542529   0.825   6.644   0.711 -0.3689  0.6693  0.5210
   58MOL   C23642530   0.797   6.497   0.685  0.4333  0.6229  0.4195
   58MOL   N23742531   0.691   6.480   0.584 -0.4778 -0.2074  0.3634
   58MOL   H23842532   1.446   7.199   0.477 -0.7018 -2.0945 -0.0111
   58MOL   H23942533   1.270   7.229   0.503 -0.5869  0.9587  2.3868
   58MOL   H24042534   1.492   7.240   0.698 -0.5023  1.3749  1.4820
   58MOL   H24142535   1.328   7.282   0.746 -0.9151  0.0727 -0.9742
   58MOL   H24242536   1.456   7.015   0.656  1.9378  1.0494  1.5918
   58MOL   H24342537   1.278   7.043   0.660  0.2450 -0.2506 -0.4151
   58MOL   H24442538   1.466   7.055   0.902  0.8997  1.5873 -2.6729
   58MOL   H24542539   1.289   7.087   0.904 -1.7286 -0.6572 -1.8734
   58MOL   H24642540   1.368   6.859   0.995  0.0939  1.5176  0.2982
   58MOL   H24742541   1.414   6.816   0.837 -0.8876 -0.6783 -0.8626
   58MOL   H24842542   1.197   6.870   0.744 -1.8107  2.0655  0.1998
   58MOL   H24942543   1.127   6.893   0.895  1.5458  1.5483  0.5111
   58MOL   H25042544   1.177   6.646   0.940  3.2878  0.5183  0.7186
   58MOL   H25142545   1.274   6.628   0.800 -0.8244 -0.8429  1.0079
   58MOL   H25242546   1.086   6.531   0.730  0.5120  0.6840  0.1629
   58MOL   H25342547   1.084   6.691   0.651  1.1138 -1.1252 -1.1321
   58MOL   H25442548   0.934   6.774   0.839 -1.8624 -0.3609 -0.3020
   58MOL   H25542549   0.920   6.609   0.898 -0.9259 -0.1526 -0.1647
   58MOL   H25642550   0.838   6.696   0.616 -0.0798  0.4975  0.4689
   58MOL   H25742551   0.733   6.684   0.756 -1.0061  0.0217 -0.1894
   58MOL   H25842552   0.757   6.440   0.769 -2.7791  0.9660 -0.7958
   58MOL   H25942553   0.890   6.452   0.650  0.3714 -0.8613  2.0732
   58MOL   H26042554   0.727   6.447   0.496 -0.9623 -0.5820  0.3001
   58MOL   C26142555   0.561   6.504   0.596 -0.0098  0.3610  0.5573
   58MOL   O26242556   0.502   6.536   0.699 -0.0160 -0.0507 -0.0909
   58MOL   C26342557   0.485   6.511   0.461 -0.2162 -0.5937 -0.7285
   58MOL   C26442558   0.487   6.659   0.398 -0.4453 -0.3122  0.7458
   58MOL   C26542559   0.440   6.772   0.497  0.0412 -0.4669 -0.1823
   58MOL   C26642560   0.389   6.892   0.414 -0.2365 -0.5146 -0.4917
   58MOL   C26742561   0.399   7.022   0.503  0.0590  0.1453  0.7183
   58MOL   C26842562   0.304   7.133   0.450  0.4936 -0.1478 -0.4662
   58MOL   C26942563   0.317   7.281   0.504 -0.1654 -0.0319 -0.0150
   58MOL   C27042564   0.228   7.377   0.431 -0.7237  0.1164 -0.0503
   58MOL   C27142565   0.231   7.514   0.505 -0.2298 -0.0026  0.2433
   58MOL   C27242566   0.144   7.612   0.425  0.6864 -0.3337  0.3872
   58MOL   C27342567   0.107   0.049   0.503 -0.4606 -0.9978 -0.4296
   58MOL   N27442568   0.011   0.136   0.435  0.3379 -0.3408  0.3480
   58MOL   H27542569   0.385   6.471   0.479 -0.4492  0.4884  0.4799
   58MOL   H27642570   0.542   6.440   0.401  2.2518  1.4006 -0.7873
   58MOL   H27742571   0.567   6.686   0.329 -1.1496  2.7230  1.0429
   58MOL   H27842572   0.401   6.666   0.331  1.2550  0.5017 -1.4078
   58MOL   H27942573   0.521   6.798   0.565 -1.3726  0.3343  1.2283
   58MOL   H28042574   0.360   6.720   0.549  0.4580  0.1594  1.1080
   58MOL   H28142575   0.451   6.894   0.324 -0.7454 -0.5694 -0.8483
   58MOL   H28242576   0.287   6.870   0.384  0.0297 -0.6792 -1.2916
   58MOL   H28342577   0.502   7.058   0.500  0.3489 -0.7866 -1.2233
   58MOL   H28442578   0.364   7.006   0.605 -1.8415 -0.1376  0.0303
   58MOL   H28542579   0.205   7.093   0.473  0.7062  0.4366  1.6146
   58MOL   H28642580   0.325   7.120   0.344  0.7673 -1.4505 -0.2686
   58MOL   H28742581   0.423   7.306   0.496 -0.5246  0.9106 -2.2748
   58MOL   H28842582   0.295   7.266   0.609 -0.1531  0.9358  0.1294
   58MOL   H28942583   0.134   7.323   0.438  1.4045 -4.1116 -2.2606
   58MOL   H29042584   0.264   7.391   0.329  3.3590  0.1026  1.2770
   58MOL   H29142585   0.333   7.551   0.518 -0.0999 -0.3659  0.2642
   58MOL   H29242586   0.193   7.494   0.605 -2.3373 -1.4358 -0.7993
   58MOL   H29342587   0.058   7.561   0.382 -0.4351  2.8933 -1.4018
   58MOL   H29442588   0.198   7.636   0.333 -1.4152  0.2975 -0.7177
   58MOL   H29542589   0.189   0.112   0.537 -2.2864  0.0778  2.0743
   58MOL   H29642590   0.066   0.018   0.599  0.5812 -2.7023 -0.5107
   58MOL   H29742591   0.038   0.228   0.402 -0.1147 -0.5585 -0.6581
   58MOL   C29842592   7.575   0.109   0.409  0.0543 -0.1919 -0.1787
   58MOL   O29942593   7.513   0.015   0.449 -0.5405 -0.4307  0.6211
   58MOL   C30042594   7.496   0.217   0.330  0.0523 -0.6409  0.2751
   58MOL   C30142595   7.366   0.161   0.273  0.3115  0.8461 -0.0478
   58MOL   C30242596   7.283   0.258   0.188  0.2287 -0.3024  0.3963
   58MOL   C30342597   7.154   0.193   0.122 -0.1736 -0.4637 -0.5886
   58MOL   C30442598   7.059   0.294   0.047  0.2641 -0.0645 -0.3330
   58MOL   C30542599   6.981   0.233   7.625  0.7954  0.9338  0.3399
   58MOL   C30642600   6.931   0.343   7.530 -0.7957 -0.3824 -0.1088
   58MOL   C30742601   6.868   0.291   7.401  0.5730  0.1277 -0.2602
   58MOL   C30842602   6.808   0.409   7.316  0.4012  0.3343  0.0471
   58MOL   C30942603   6.770   0.372   7.175 -0.4480  0.3711  0.7167
   58MOL   C31042604   6.684   0.472   7.104 -0.3008  0.1218 -0.1065
   58MOL   N31142605   6.544   0.442   7.118  0.6999  0.1995 -0.2818
   58MOL   H31242606   7.560   0.260   0.253 -1.6229  1.8216  0.2005
   58MOL   H31342607   7.467   0.294   0.402  0.4660  0.7966 -1.0657
   58MOL   H31442608   7.384   0.069   0.217 -0.9100  0.6354 -0.1018
   58MOL   H31542609   7.313   0.134   0.364 -0.6453  1.1466 -0.5073
   58MOL   H31642610   7.348   0.297   0.109 -0.0189  0.2056  0.4435
   58MOL   H31742611   7.250   0.344   0.246 -1.7115 -0.8819  0.1847
   58MOL   H31842612   7.185   0.118   0.049  1.5663 -1.3679  1.0545
   58MOL   H31942613   7.095   0.132   0.190 -0.0987 -0.2031 -0.2854
   58MOL   H32042614   7.116   0.375   0.002  0.0363 -0.0175 -0.5349
   58MOL   H32142615   7.001   0.351   0.119  0.3002  3.8610 -3.2767
   58MOL   H32242616   6.899   0.168   7.655 -0.1520  1.2522 -1.4636
   58MOL   H32342617   7.044   0.168   7.565  0.7267  1.0816  0.1054
   58MOL   H32442618   7.020   0.400   7.504  0.0720 -0.5905  2.3268
   58MOL   H32542619   6.863   0.408   7.585  1.1473  1.5876  0.0276
   58MOL   H32642620   6.783   0.231   7.434  0.8254 -2.4665 -4.0550
   58MOL   H32742621   6.943   0.227   7.355 -0.2107  0.7189 -2.4342
   58MOL   H32842622   6.876   0.493   7.312  1.5982 -0.5077  1.9346
   58MOL   H32942623   6.717   0.440   7.367  0.9942  0.4415  1.0600
   58MOL   H33042624   6.703   0.288   7.161 -1.9514  2.0147 -2.3562
   58MOL   H33142625   6.855   0.346   7.112 -2.7661  0.1910 -2.4275
   58MOL   H33242626   6.707   0.458   6.998 -0.8586  0.1211 -0.2324
   58MOL   H33342627   6.714   0.576   7.116 -1.6946  1.0203 -3.6516
   58MOL   H33442628   6.521   0.360   7.171  0.0763  0.5375 -0.0231
   58MOL   C33542629   6.448   0.504   7.048  0.2860  0.2880  0.2987
   58MOL   O33642630   6.470   0.585   6.962 -0.4485 -0.6053 -0.0285
   58MOL   C33742631   6.302   0.455   7.063  0.3721 -0.2357 -0.5461
   58MOL   C33842632   6.190   0.546   6.984 -0.0158 -0.3770 -0.7320
   58MOL   C33942633   6.039   0.506   7.002 -0.0920 -0.3508 -0.3063
   58MOL   C34042634   5.936   0.597   6.925  0.2842 -0.0759  0.3224
   58MOL   C34142635   5.905   0.547   6.779  0.0996 -0.0572  0.0327
   58MOL   C34242636   5.807   0.428   6.786  0.3256  0.4793 -0.2671
   58MOL   C34342637   5.828   0.334   6.661 -0.6904  0.3534  0.0585
   58MOL   C34442638   5.938   0.231   6.704  0.9862  0.5684 -0.4935
   58MOL   C34542639   5.991   0.162   6.585 -0.4757 -0.4012 -0.4842
   58MOL   C34642640   6.125   0.087   6.624 -0.5567 -0.2700 -0.2502
   58MOL   C34742641   6.167   7.678   6.521 -0.7588 -0.1585  0.2839
   58MOL   N34842642   6.071   7.581   6.493  0.3734 -0.0537  0.5693
   58MOL   H34942643   6.276   0.449   7.169  1.2321 -0.9223 -0.3657
   58MOL   H35042644   6.299   0.354   7.021 -2.6526  0.4184 -2.0110
   58MOL   H35142645   6.212   0.648   7.015  0.4076 -0.9250  0.8133
   58MOL   H35242646   6.224   0.541   6.880  3.1889  1.4811  0.1516
   58MOL   H35342647   6.001   0.511   7.104 -1.9055 -2.6678 -0.8458
   58MOL   H35442648   6.029   0.404   6.966 -1.4220 -0.3238 -0.0549
   58MOL   H35542649   5.842   0.597   6.979 -0.8360 -1.1052 -1.5649
   58MOL   H35642650   5.973   0.699   6.935  1.0683 -0.3045 -0.2011
   58MOL   H35742651   5.992   0.508   6.726 -0.1784  0.6047 -0.9084
   58MOL   H35842652   5.857   0.623   6.718  0.8406  0.1511 -0.2960
   58MOL   H35942653   5.704   0.460   6.775  0.4032  0.1700 -2.1338
   58MOL   H36042654   5.811   0.367   6.877  0.0207 -0.1913 -0.6989
   58MOL   H36142655   5.853   0.397   6.576  1.6716  0.2251  0.6221
   58MOL   H36242656   5.734   0.285   6.639 -0.0517 -0.6297 -0.5059
   58MOL   H36342657   5.900   0.157   6.774  1.5322  0.8134  0.0676
   58MOL   H36442658   6.023   0.278   6.755  0.9055  1.5026 -1.2125
   58MOL   H36542659   6.013   0.218   6.494  0.9159 -2.3363 -1.3768
   58MOL   H36642660   5.910   0.097   6.552 -1.3141  1.1474 -1.5280
   58MOL   H36742661   6.097   0.046   6.721  1.3388  1.0176  0.8777
   58MOL   H36842662   6.205   0.156   6.649 -0.2834 -1.2431  1.6794
   58MOL   H36942663   6.263   7.637   6.552  0.0159  0.3992 -1.3074
   58MOL   H37042664   6.185   0.039   6.428  1.0091  1.1600  1.3730
   58MOL   H37142665   6.010   7.590   6.414  0.4500  0.1284  0.5295
   58MOL   C37242666   6.065   7.468   6.563  0.3377  0.4265 -0.0993
   58MOL   O37342667   6.151   7.443   6.650  0.0861 -0.0748 -0.1676
   58MOL   C37442668   5.951   7.364   6.551  0.4381  0.1672 -0.6039
   58MOL   C37542669   5.872   7.353   6.687 -0.0781 -0.7168  0.8960
   58MOL   C37642670   5.771   7.459   6.728  0.1405  0.2104  0.4291
   58MOL   C37742671   5.671   7.518   6.624  0.6620  0.4401 -0.4861
   58MOL   C37842672   5.566   7.612   6.685 -0.8436 -0.1568  0.8259
   58MOL   C37942673   5.466   7.670   6.592  0.2331  0.7358 -0.5548
   58MOL   C38042674   5.397   0.091   6.667 -0.5193 -0.2277 -0.3170
   58MOL   C38142675   5.286   0.156   6.591  0.1932  0.3526  0.6341
   58MOL   C38242676   5.227   0.284   6.648  0.0144 -0.3224 -0.0077
   58MOL   C38342677   5.111   0.338   6.562  0.0372 -0.1416 -0.2583
   58MOL   C38442678   5.063   0.473   6.609 -0.4202  0.5811  0.0792
   58MOL   N38542679   4.952   0.523   6.533  0.2673  0.1868 -0.4375
   58MOL   H38642680   6.006   7.272   6.531  0.8989  0.2623  0.2402
   58MOL   H38742681   5.889   7.391   6.465  2.4285  0.6557 -1.9390
   58MOL   H38842682   5.815   7.261   6.695  0.2771 -1.0199 -0.0284
   58MOL   H38942683   5.948   7.342   6.764  0.4384 -1.3933  0.3006
   58MOL   H39042684   5.838   7.544   6.745  0.1846  0.0807  0.9099
   58MOL   H39142685   5.727   7.435   6.825 -0.9992 -0.3841 -0.2294
   58MOL   H39242686   5.722   7.568   6.541  0.3402  0.1081 -0.8871
   58MOL   H39342687   5.623   7.430   6.582  0.2770  0.7634 -0.7368
   58MOL   H39442688   5.629   7.686   6.735 -1.5106  0.0258  1.3968
   58MOL   H39542689   5.514   7.555   6.762 -1.9965 -0.7306 -0.3653
   58MOL   H39642690   5.405   7.594   6.542 -0.3382 -0.0732  1.3320
   58MOL   H39742691   5.515   0.023   6.507 -0.3857  0.8444 -0.8594
   58MOL   H39842692   5.473   0.167   6.686  0.9326 -1.6728 -0.3239
   58MOL   H39942693   5.350   0.054   6.759  1.4048 -3.5155 -0.5859
   58MOL   H40042694   5.205   0.083   6.584  1.0786 -0.4759 -1.3804
   58MOL   H40142695   5.315   0.163   6.486 -1.4519 -1.4036  0.0186
   58MOL   H40242696   5.302   0.362   6.654  1.4727 -1.8230  1.6789
   58MOL   H40342697   5.184   0.275   6.748 -0.2153 -1.6601 -0.2256
   58MOL   H40442698   5.026   0.269   6.557 -0.3002  0.0419  2.4025
   58MOL   H40542699   5.143   0.341   6.457 -0.2132 -2.1671 -0.4080
   58MOL   H40642700   5.147   0.543   6.614  0.1555 -0.2663  3.3454
   58MOL   H40742701   5.029   0.457   6.711 -1.5031 -2.7013 -0.7380
   58MOL   H40842702   4.859   0.517   6.572  0.5111 -1.4449 -0.0554
   58MOL   C40942703   4.961   0.598   6.424  0.6545  0.3183  0.0775
   58MOL   O41042704   5.063   0.627   6.370 -0.0321 -0.1689 -0.0918
   58MOL   C41142705   4.836   0.671   6.375  0.4089  0.0077  0.1483
   58MOL   C41242706   4.853   0.734   6.233 -0.0148 -0.1500  0.1061
   58MOL   C41342707   4.719   0.787   6.180  0.4043 -0.3612  0.3226
   58MOL   C41442708   4.724   0.835   6.040 -0.2876 -0.3323  1.3714
   58MOL   C41542709   4.786   0.970   6.021  0.4457  0.6447  0.1252
   58MOL   C41642710   4.678   1.077   6.062 -0.0226 -0.4448  0.0333
   58MOL   C41742711   4.730   1.224   6.054 -0.5336  0.5986  0.3820
   58MOL   C41842712   4.808   1.277   6.174  0.4437  0.3188 -0.2154
   58MOL   C41942713   4.855   1.421   6.150  0.5928 -0.0673  0.1841
   58MOL   C42042714   4.978   1.443   6.062  0.0762 -0.2387  0.3409
   58MOL   C42142715   5.103   1.377   6.109 -0.0023  0.0755  0.3275
   58MOL   N42242716   5.198   1.388   6.011  0.5331  0.3806  1.0071
   58MOL   H42342717   4.800   0.750   6.440 -0.2870  1.7076 -2.2321
   58MOL   H42442718   4.757   0.596   6.373  0.2451  0.1249  1.5493
   58MOL   H42542719   4.931   0.811   6.236  1.9876 -2.1635  1.0258
   58MOL   H42642720   4.895   0.668   6.157 -1.8802 -0.8325 -0.3512
   58MOL   H42742721   4.686   0.869   6.243  1.4285 -0.2247  0.6924
   58MOL   H42842722   4.643   0.710   6.190  0.6103 -0.5824  0.1887
   58MOL   H42942723   4.783   0.764   5.981  0.6177  0.7679  0.9253
   58MOL   H43042724   4.623   0.818   6.003 -0.0119  0.3542  0.2954
   58MOL   H43142725   4.824   0.982   5.920 -2.0415 -0.4890 -0.9847
   58MOL   H43242726   4.867   0.992   6.090 -0.9841  3.2690  1.0581
   58MOL   H43342727   4.616   1.054   6.148 -0.2933 -0.3599 -0.1414
   58MOL   H43442728   4.605   1.086   5.982 -0.1297  0.1932  0.2067
   58MOL   H43542729   4.648   1.294   6.041 -1.6839 -0.3464  2.2344
   58MOL   H43642730   4.782   1.239   5.960  0.8829  1.6407  1.3154
   58MOL   H43742731   4.890   1.212   6.205  1.6411  0.7471 -2.3591
   58MOL   H43842732   4.731   1.271   6.251  0.2915  1.9846 -0.2091
   58MOL   H43942733   4.878   1.472   6.243 -0.9821  1.6596 -0.3532
   58MOL   H44042734   4.777   1.481   6.103 -0.1651 -1.5121 -0.4648
   58MOL   H44142735   4.985   1.548   6.032  0.9145 -1.1867 -3.0009
   58MOL   H44242736   4.952   1.400   5.965  2.7881  1.5498 -1.2431
   58MOL   H44342737   5.079   1.279   6.149  0.4588 -0.0267  0.3626
   58MOL   H44442738   5.133   1.438   6.195  3.2911  0.9078 -1.3144
   58MOL   H44542739   5.270   1.458   6.014  0.0800  1.0545 -2.1811
   58MOL   C44642740   5.204   1.309   5.899 -0.1565  0.5568  0.2285
   58MOL   O44742741   5.125   1.220   5.878  0.2391 -0.1229  0.3044
   58MOL   C44842742   5.307   1.342   5.792  0.1121  0.4487 -0.2363
   58MOL   C44942743   5.394   1.219   5.742  0.6663  0.0823  0.2168
   58MOL   C45042744   5.326   1.121   5.638  0.0250 -0.2867 -0.9894
   58MOL   C45142745   5.412   0.995   5.618  0.4702  0.2523 -0.3821
   58MOL   C45242746   5.344   0.905   5.515  0.6147 -0.0294  0.1970
   58MOL   C45342747   5.404   0.762   5.496 -0.4580  0.3543 -0.2899
   58MOL   C45442748   5.378   0.661   5.604  0.5798  0.5388 -0.3997
   58MOL   C45542749   5.445   0.521   5.586  0.5525  0.0635  0.2049
   58MOL   C45642750   5.434   0.426   5.705 -0.0396  0.2567 -0.1753
   58MOL   C45742751   5.495   0.292   5.678 -0.5272 -0.0876  0.2031
   58MOL   C45842752   5.493   0.204   5.799  0.2047 -0.4456 -0.0332
   58MOL   N45942753   5.573   0.075   5.787  0.3384  0.0047  0.7493
   58MOL   H46042754   5.375   1.408   5.846  0.6199  0.0127 -0.3438
   58MOL   H46142755   5.278   1.403   5.706 -0.3604  0.7522  0.1403
   58MOL   H46242756   5.485   1.256   5.695  1.6320 -1.6269  0.6711
   58MOL   H46342757   5.421   1.179   5.840  1.7669  1.9584  0.6940
   58MOL   H46442758   5.332   1.180   5.547 -0.1645  2.2969  0.6420
   58MOL   H46542759   5.225   1.089   5.664  0.3644  0.7086  1.6358
   58MOL   H46642760   5.513   1.022   5.585  0.6406 -1.5782 -1.3990
   58MOL   H46742761   5.413   0.944   5.713  1.2547 -0.3467 -0.7110
   58MOL   H46842762   5.352   0.954   5.417  3.2136  1.0116  0.8846
   58MOL   H46942763   5.236   0.898   5.524  0.5263  1.1002  0.1762
   58MOL   H47042764   5.510   0.771   5.472 -0.5619 -0.5936 -1.1161
   58MOL   H47142765   5.365   0.707   5.411  1.5603  2.2465 -2.5403
   58MOL   H47242766   5.270   0.652   5.607  0.6600 -0.5324 -0.7853
   58MOL   H47342767   5.411   0.702   5.700  1.3241  0.2977 -0.5470
   58MOL   H47442768   5.550   0.536   5.558  0.8857 -2.3379  0.0630
   58MOL   H47542769   5.400   0.465   5.505 -0.1030  0.3795  0.3530
   58MOL   H47642770   5.328   0.424   5.732  0.2501  0.1977  0.9871
   58MOL   H47742771   5.485   0.476   5.787 -1.9008  1.6490  0.1723
   58MOL   H47842772   5.598   0.307   5.644 -0.6314 -0.7564 -0.4069
   58MOL   H47942773   5.451   0.259   5.584 -0.1152  1.7340 -0.6668
   58MOL   H48042774   5.387   0.184   5.815 -0.6983  1.5498 -3.1026
   58MOL   H48142775   5.529   0.260   5.886  1.1409 -2.9683  1.2529
   58MOL   H48242776   5.531   7.686   5.827  0.3090  0.1288  0.9761
   58MOL   C48342777   5.708   0.075   5.768 -0.8603 -0.6822 -0.1040
   58MOL   O48442778   5.776   0.175   5.749 -0.2157  0.2010 -0.2107
   58MOL   C48542779   5.772   7.627   5.770  0.0924 -0.5969  0.3477
   58MOL   C48642780   5.917   7.631   5.816 -0.1830 -0.2636 -0.3303
   58MOL   C48742781   6.013   7.691   5.714 -0.3461  0.4962 -0.3986
   58MOL   C48842782   6.144   0.045   5.766  0.2772  0.1767  0.3002
   58MOL   C48942783   6.258   0.056   5.653 -0.4954 -0.0791  0.0125
   58MOL   C49042784   6.393   0.104   5.712  0.1630 -0.0660  0.1734
   58MOL   C49142785   6.509   0.095   5.614  0.4716 -0.3823 -0.2733
   58MOL   C49242786   6.646   0.128   5.681  0.5361  0.2206 -0.1637
   58MOL   C49342787   6.722   0.006   5.730  0.2411  0.6360  0.0525
   58MOL   C49442788   6.862   0.043   5.781  0.7979  0.2110  0.2189
   58MOL   C49542789   6.864   0.109   5.917 -0.2506  0.1122 -0.2191
   58MOL   N49642790   6.991   0.180   5.932  0.1327 -0.5188 -0.3446
   58MOL   H49742791   5.771   7.589   5.668  1.4210  0.0658  0.0737
   58MOL   H49842792   5.712   7.558   5.829 -1.1214  1.8595  2.0710
   58MOL   H49942793   5.915   0.004   5.903 -2.9016 -0.4220 -0.2232
   58MOL   H50042794   5.956   7.541   5.865  1.9361  1.8427  2.0475
   58MOL   H50142795   5.979   0.085   5.657 -1.1330  0.8788  0.6509
   58MOL   H50242796   6.022   7.617   5.635 -2.7560 -2.0039  1.5726
   58MOL   H50342797   6.123   0.127   5.835 -0.6778 -0.7523  1.1172
   58MOL   H50442798   6.185   7.659   5.827  0.2829 -0.6045 -0.7127
   58MOL   H50542799   6.220   0.128   5.580  0.0496 -0.0310 -0.2249
   58MOL   H50642800   6.273   7.659   5.594  1.9675  0.1157  0.3081
   58MOL   H50742801   6.413   0.041   5.799  3.3362  1.8828  0.9361
   58MOL   H50842802   6.386   0.208   5.743  1.3696 -0.5913  2.3035
   58MOL   H50942803   6.490   0.167   5.535 -0.3164  0.1331  0.3771
   58MOL   H51042804   6.503   7.687   5.577 -1.1239 -0.9358  1.4283
   58MOL   H51142805   6.628   0.202   5.759 -0.2683 -2.4249  2.2562
   58MOL   H51242806   6.705   0.163   5.596  2.3483 -0.8562  0.6301
   58MOL   H51342807   6.736   7.633   5.645 -0.0512 -1.0406  1.3060
   58MOL   H51442808   6.660   7.656   5.809  0.1184  1.9169  0.6809
   58MOL   H51542809   6.903   0.105   5.702 -1.0811 -0.0390 -0.9800
   58MOL   H51642810   6.924   7.648   5.781  1.9682  1.0189 -0.9784
   58MOL   H51742811   6.838   0.031   5.990 -0.9605 -1.2070 -1.8467
   58MOL   H51842812   6.777   0.175   5.925 -0.3506  0.0795 -0.9772
   58MOL   H51942813   7.013   0.255   5.868  4.8676  0.4491  2.1724
   58MOL   C52042814   7.095   0.152   6.007  0.3693  0.0677  0.2289
   58MOL   O52142815   7.097   0.054   6.076 -0.0274 -0.2094 -0.4244
   58MOL   C52242816   7.214   0.244   6.001 -0.1370  0.2666  0.2118
   58MOL   C52342817   7.303   0.247   6.130  0.0595 -0.8525 -0.5787
   58MOL   C52442818   7.255   0.329   6.247 -0.1958 -0.4079 -0.1879
   58MOL   C52542819   7.264   0.478   6.210  0.1720 -1.0438  0.0707
   58MOL   C52642820   7.220   0.574   6.323  0.3122  0.0750  0.5887
   58MOL   C52742821   7.068   0.553   6.363  0.1105 -0.0666 -0.3748
   58MOL   C52842822   7.025   0.635   6.485 -0.7100  0.1316 -0.3198
   58MOL   C52942823   6.871   0.635   6.508 -0.0812 -0.6026  0.0579
   58MOL   C53042824   6.826   0.716   6.628  0.0066  0.2858  0.9233
   58MOL   C53142825   6.674   0.722   6.650 -0.0338 -0.2908 -0.2594
   58MOL   C53242826   6.627   0.823   6.759  0.5592 -0.4531 -0.0736
   58MOL   N53342827   6.484   0.807   6.785  0.7002  0.1338 -0.6013
   58MOL   H53442828   7.178   0.339   5.961  0.0975  0.9439  1.5797
   58MOL   H53542829   7.272   0.204   5.918 -0.3020 -0.0487  0.2477
   58MOL   H53642830   7.326   0.149   6.172  1.8114 -0.0055  0.5268
   58MOL   H53742831   7.403   0.278   6.099 -0.3432  0.3138 -0.7168
   58MOL   H53842832   7.312   0.303   6.337 -0.9281  1.6362  0.9050
   58MOL   H53942833   7.158   0.290   6.279 -0.7185 -1.0299 -2.4643
   58MOL   H54042834   7.361   0.510   6.173 -0.0379 -0.6282 -0.1267
   58MOL   H54142835   7.195   0.495   6.127  1.2754 -0.3171 -0.7077
   58MOL   H54242836   7.241   0.678   6.301 -0.1310 -0.2585 -1.4506
   58MOL   H54342837   7.292   0.547   6.400  0.2211 -1.6374  0.0880
   58MOL   H54442838   7.044   0.448   6.380 -0.3291  0.0932  0.0269
   58MOL   H54542839   7.007   0.586   6.279  1.3340 -0.4896 -1.4299
   58MOL   H54642840   7.052   0.737   6.460 -0.9581 -0.0768 -1.4572
   58MOL   H54742841   7.076   0.600   6.576 -2.8818 -1.1833  0.4242
   58MOL   H54842842   6.831   0.533   6.508 -1.2070 -0.1961 -2.0186
   58MOL   H54942843   6.823   0.673   6.417  0.3147  1.5857  0.7399
   58MOL   H55042844   6.857   0.819   6.606  0.0481 -0.3674 -2.3505
   58MOL   H55142845   6.889   0.685   6.712 -0.2584 -1.2253  0.5642
   58MOL   H55242846   6.642   0.622   6.679 -2.0899  0.4082 -0.0282
   58MOL   H55342847   6.609   0.745   6.566 -0.8011 -1.9799 -0.1448
   58MOL   H55442848   6.662   0.925   6.740 -1.8611  0.5236  0.5380
   58MOL   H55542849   6.678   0.804   6.854  1.4895 -0.3166 -0.5367
   58MOL   H55642850   6.460   0.760   6.872 -0.2847  2.8870  0.6465
   58MOL   C55742851   6.387   0.853   6.701  0.1925  0.0220 -0.1702
   58MOL   O55842852   6.413   0.925   6.605  0.7282 -0.1353  0.3663
   58MOL   C55942853   6.242   0.819   6.736 -0.4290  0.5410 -0.4371
   58MOL   C56042854   6.133   0.906   6.672 -0.2882 -0.5190 -0.0671
   58MOL   C56142855   6.124   1.046   6.745 -0.3127 -0.0563  0.4391
   58MOL   C56242856   6.038   1.033   6.868 -0.6631 -0.2719 -0.2243
   58MOL   C56342857   5.891   1.014   6.844 -0.2071  0.0722  0.1994
   58MOL   C56442858   5.808   0.990   6.969  0.2522  0.1619 -0.3801
   58MOL   C56542859   5.667   0.944   6.926 -0.5153  0.4957 -0.0205
   58MOL   C56642860   5.576   0.908   7.051  0.1986  0.6800  0.7905
   58MOL   C56742861   5.562   1.033   7.145 -0.3291 -0.0512 -0.1493
   58MOL   C56842862   5.444   1.025   7.246 -0.1802  0.2150 -0.0930
   58MOL   C56942863   5.419   1.164   7.299  0.2301 -0.1663  0.0759
   58MOL   N57042864   5.542   1.211   7.367 -0.0623  0.3382 -0.6594
   58MOL   H57142865   6.236   0.823   6.845  0.3183 -0.6933 -0.3371
   58MOL   H57242866   6.212   0.717   6.712  1.7693 -0.1608 -0.2785
   58MOL   H57342867   6.158   0.919   6.567 -0.7927  0.8617 -0.0257
   58MOL   H57442868   6.046   0.840   6.669  1.0592 -2.2825 -1.5351
   58MOL   H57542869   6.079   1.114   6.672 -0.8133 -0.7714  0.0700
   58MOL   H57642870   6.223   1.083   6.772 -0.2784  1.1219 -1.2324
   58MOL   H57742871   6.083   0.962   6.937  0.6138  0.2552 -0.4937
   58MOL   H57842872   6.049   1.129   6.919 -3.1151 -0.4528  0.7135
   58MOL   H57942873   5.875   0.940   6.766  1.3745  1.1344 -1.1834
   58MOL   H58042874   5.852   1.105   6.798  0.6061  0.0625 -0.5187
   58MOL   H58142875   5.802   1.081   7.028 -0.3529 -0.1590  0.0671
   58MOL   H58242876   5.851   0.911   7.031  0.5742  0.2820 -0.4527
   58MOL   H58342877   5.679   0.867   6.850 -0.0871  0.2483  0.3004
   58MOL   H58442878   5.611   1.026   6.880  0.3996  2.1115  1.6670
   58MOL   H58542879   5.616   0.827   7.112  1.2663  1.5147  1.2170
   58MOL   H58642880   5.480   0.860   7.030  0.4404 -0.1168  1.4635
   58MOL   H58742881   5.555   1.128   7.092  2.9545  0.9340  1.0488
   58MOL   H58842882   5.659   1.051   7.192 -0.7828  1.3270  0.2778
   58MOL   H58942883   5.462   0.949   7.321  1.6434  0.2659 -0.4559
   58MOL   H59042884   5.350   1.003   7.194 -0.9280  0.5492  1.1117
   58MOL   H59142885   5.343   1.178   7.375  0.2662 -3.1717  0.7475
   58MOL   H59242886   5.396   1.219   7.208 -0.5387 -2.7763 -1.3732
   58MOL   H59342887   5.587   1.294   7.333  0.9574  0.2488  0.4576
   58MOL   C59442888   5.597   1.159   7.477 -0.5438  0.4253 -0.4945
   58MOL   O59542889   5.546   1.065   7.537  0.8706  0.1388 -0.2395
   58MOL   C59642890   5.736   1.221   7.525  0.6442 -0.0153 -0.4932
   58MOL   C59742891   5.776   1.168   7.663 -0.0997  0.1583  1.2011
   58MOL   C59842892   5.906   1.236   0.010 -0.5035 -0.0220  0.2121
   58MOL   C59942893   5.963   1.192   0.148  0.4212  0.2945  0.4267
   58MOL   C60042894   5.993   1.049   0.162  0.0659 -0.8569  0.0688
   58MOL   C60142895   6.101   0.993   0.064  0.3068 -0.3338  0.1414
   58MOL   C60242896   6.120   0.846   0.070 -0.2933 -0.0892 -0.3373
   58MOL   C60342897   6.198   0.805   0.199 -0.5438  0.3437  0.7504
   58MOL   C60442898   6.223   0.653   0.200 -0.0476 -0.2097  0.2059
   58MOL   C60542899   6.345   0.623   0.292  0.2706  0.6795  0.3925
   58MOL   C60642900   6.339   0.680   0.435  0.7452  0.5388 -0.6410
   58MOL   N60742901   6.399   0.588   0.526 -0.6536  0.1093 -0.1329
   58MOL   H60842902   5.734   1.330   7.523  0.5574 -0.0271 -1.1197
   58MOL   H60942903   5.806   1.189   7.448  1.0330  2.7645 -1.3694
   58MOL   H61042904   5.701   1.191   0.045 -2.2504 -0.8846 -0.5451
   58MOL   H61142905   5.783   1.060   7.658  1.5242  0.0889  3.8186
   58MOL   H61242906   5.886   1.342   0.002 -0.6061 -0.0867 -0.4932
   58MOL   H61342907   5.994   1.224   7.639  0.2349  0.9883  1.0104
   58MOL   H61442908   6.053   1.251   0.165 -0.1393  0.6056  2.4519
   58MOL   H61542909   5.888   1.223   0.220 -1.6908  0.6910 -1.8619
   58MOL   H61642910   5.896   1.003   0.143 -1.1847  2.3780 -1.7391
   58MOL   H61742911   6.022   1.025   0.265  1.0330  3.1060  0.8146
   58MOL   H61842912   6.198   1.037   0.087  0.2240 -1.1846  2.3326
   58MOL   H61942913   6.078   1.007   7.653  0.4365  1.6377  0.3632
   58MOL   H62042914   6.175   0.817   7.674  1.0053 -1.9138  1.0238
   58MOL   H62142915   6.022   0.799   0.066 -0.4920  0.3041 -0.2043
   58MOL   H62242916   6.143   0.839   0.287 -1.9900 -0.4835  0.1757
   58MOL   H62342917   6.292   0.860   0.201 -1.3903  1.7966  1.2765
   58MOL   H62442918   6.232   0.613   0.099 -2.4392  0.8586 -0.4712
   58MOL   H62542919   6.133   0.603   0.236 -0.0734 -0.6619 -0.4782
   58MOL   H62642920   6.439   0.665   0.255 -0.1860  0.9437 -0.4700
   58MOL   H62742921   6.370   0.517   0.304  0.4007  0.4278 -1.8991
   58MOL   H62842922   6.240   0.696   0.476  0.4242  1.3665 -1.7242
   58MOL   H62942923   6.387   0.778   0.438 -0.7451  1.2283  1.9649
   58MOL   H63042924   6.351   0.500   0.524  0.1425 -0.3890  2.0679
   58MOL   C63142925   6.492   0.615   0.615  0.3420  0.0898 -0.6357
   58MOL   O63242926   6.544   0.722   0.610 -0.5188 -0.4133 -0.1776
   58MOL   C63342927   6.531   0.501   0.714 -0.4455  0.1201  0.4237
   58MOL   C63442928   6.605   0.561   0.836  0.7437 -1.1215  0.2599
   58MOL   C63542929   6.507   0.599   0.944  0.9666  0.5649 -0.2462
   58MOL   C63642930   6.558   0.680   1.057 -0.5655  0.1341 -0.8161
   58MOL   C63742931   6.460   0.704   1.175  0.0627 -1.4888  0.2748
   58MOL   C63842932   6.392   0.584   1.245 -0.2700  0.5136  0.2104
   58MOL   C63942933   6.317   0.620   1.367  0.6118 -1.0216 -0.6288
   58MOL   C64042934   6.228   0.504   1.421 -0.3235  0.5948  0.4940
   58MOL   C64142935   6.159   0.528   1.557  0.4818  0.4854 -0.3531
   58MOL   C64242936   6.061   0.414   1.581 -0.2872  0.4467 -0.6812
   58MOL   C64342937   6.004   0.414   1.719 -0.9084 -0.2163 -0.3840
   58MOL   N64442938   5.920   0.292   1.736 -0.8235 -0.4128  0.1908
   58MOL   H64542939   6.588   0.428   0.657 -1.3671 -0.7981  0.6525
   58MOL   H64642940   6.438   0.454   0.745  1.2204 -2.9089  1.0020
   58MOL   H64742941   6.660   0.476   0.876  0.8445 -1.0638  0.2457
   58MOL   H64842942   6.675   0.640   0.807 -0.4982 -0.5833 -1.3300
   58MOL   H64942943   6.458   0.513   0.989 -0.7436  0.3984 -2.3374
   58MOL   H65042944   6.423   0.655   0.902  1.3247  2.1501  1.1039
   58MOL   H65142945   6.646   0.628   1.094  0.9265  1.7098 -2.1111
   58MOL   H65242946   6.599   0.773   1.019  0.8300  0.3857  1.2206
   58MOL   H65342947   6.384   0.776   1.145 -0.0891 -2.1929 -1.1168
   58MOL   H65442948   6.513   0.751   1.257 -1.6746  3.0943 -1.0869
   58MOL   H65542949   6.462   0.507   1.277 -2.0071 -1.4859 -0.6162
   58MOL   H65642950   6.319   0.534   1.181 -2.4958 -0.2688  3.2216
   58MOL   H65742951   6.256   0.708   1.343 -1.0545 -2.3558 -1.3911
   58MOL   H65842952   6.391   0.657   1.438 -0.1141  2.0744 -1.4214
   58MOL   H65942953   6.289   0.413   1.428 -2.7148 -1.2672 -1.6576
   58MOL   H66042954   6.149   0.477   1.351  0.1844 -0.8522  0.4525
   58MOL   H66142955   6.109   0.624   1.556  1.2935  0.9904  2.2352
   58MOL   H66242956   6.226   0.542   1.642  1.0000 -0.5743 -0.5757
   58MOL   H66342957   6.104   0.318   1.554  0.0207 -0.4446  2.6720
   58MOL   H66442958   5.977   0.436   1.515 -1.0430  0.6536  0.3252
   58MOL   H66542959   5.945   0.504   1.739  1.3240  0.8861  1.5901
   58MOL   H66642960   6.077   0.406   1.800 -0.1021 -1.5046 -1.2320
   58MOL   H66742961   5.955   0.224   1.801  0.9622 -0.3663 -0.6831
   58MOL   C66842962   5.813   0.263   1.671  0.5764 -0.6174  0.0879
   58MOL   O66942963   5.770   0.335   1.583  0.0832  0.1781  0.4825
   58MOL   C67042964   5.742   0.139   1.720 -0.3864  0.7560 -0.6816
   58MOL   C67142965   5.589   0.132   1.749 -0.3800 -0.7853 -0.2840
   58MOL   C67242966   5.543   0.193   1.886 -0.1591 -0.3262  0.0182
   58MOL   C67342967   5.390   0.202   1.913 -0.2064  0.4863 -0.1997
   58MOL   C67442968   5.327   0.065   1.902 -0.0158  0.0914  0.0504
   58MOL   C67542969   5.182   0.049   1.954 -0.1800  0.3297  0.7614
   58MOL   C67642970   5.121   7.599   1.955  0.2099  0.7767 -0.2156
   58MOL   C67742971   4.986   7.580   2.035 -0.0776  0.1595 -0.1378
   58MOL   C67842972   4.929   7.429   2.052 -0.2675 -0.2091 -0.3858
   58MOL   C67942973   4.811   7.421   2.150 -0.4774  0.9900 -0.5170
   58MOL   C68042974   4.684   7.484   2.099 -0.1984  0.2877 -0.3526
   58MOL   N68142975   4.579   7.451   2.195 -0.6751  0.5033 -0.6171
   58MOL   H68242976   5.785   0.107   1.815 -0.2304  0.3406 -0.8883
   58MOL   H68342977   5.771   0.065   1.646  0.0029 -0.6035  0.7955
   58MOL   H68442978   5.539   0.181   1.666 -1.7672  3.3909  2.8833
   58MOL   H68542979   5.565   0.026   1.757 -1.6811 -0.4687  0.0991
   58MOL   H68642980   5.591   0.287   1.912 -1.0760  0.0530  0.3400
   58MOL   H68742981   5.573   0.132   1.971 -0.0703  3.3270  2.7075
   58MOL   H68842982   5.374   0.251   2.009  0.7067 -1.4515  0.9592
   58MOL   H68942983   5.354   0.269   1.834  1.7343  3.4432  1.3653
   58MOL   H69042984   5.389   7.692   1.963 -1.8520 -0.1821  1.6569
   58MOL   H69142985   5.343   0.043   1.796  0.6157  2.9483 -0.4785
   58MOL   H69242986   5.114   0.112   1.897  1.9630  1.0761 -1.0310
   58MOL   H69342987   5.183   0.087   2.056  1.3177  2.7223 -0.0986
   58MOL   H69442988   5.185   7.518   1.991 -0.1786  0.4547 -0.2460
   58MOL   H69542989   5.098   7.570   1.852 -2.9691 -0.2236  0.7343
   58MOL   H69642990   4.913   7.626   1.969 -1.6309 -2.2859 -0.1940
   58MOL   H69742991   4.984   7.633   2.130 -1.5700 -0.3732  0.1337
   58MOL   H69842992   5.010   7.360   2.076  0.5946  1.2931  1.1444
   58MOL   H69942993   4.904   7.389   1.953  1.1633 -1.4114 -0.2929
   58MOL   H70042994   4.842   7.456   2.249  0.5366  0.8348 -0.7837
   58MOL   H70142995   4.786   7.316   2.158  1.0361  0.7740  1.8329
   58MOL   H70242996   4.663   7.437   2.003 -0.8963  1.9115 -1.0201
   58MOL   H70342997   4.693   7.591   2.080 -0.8379  0.3361 -0.3835
   58MOL   H70442998   4.605   7.405   2.281 -0.8196  1.4832 -0.0395
   58MOL   C70542999   4.455   7.502   2.202  0.1605  0.3695  0.3077
   58MOL   O70643000   4.409   7.596   2.132  0.9425  0.1215 -0.1266
   58MOL   C70743001   4.372   7.460   2.329 -0.2846 -0.2615  0.2265
   58MOL   C70843002   4.244   7.385   2.293  0.2350 -0.4701 -0.3604
   58MOL   C70943003   4.150   7.352   2.413 -0.2389  0.5091  0.2210
   58MOL   C71043004   4.014   7.289   2.359  0.1085 -0.0357 -0.5581
   58MOL   C71143005   4.016   7.173   2.266 -0.1136 -0.1317 -0.0062
   58MOL   C71243006   3.867   7.132   2.226  0.0622  0.0222 -0.2068
   58MOL   C71343007   3.867   7.043   2.101 -0.0912  0.0358  0.0810
   58MOL   C71443008   3.810   7.117   1.974 -0.6914 -0.5978 -0.3637
   58MOL   C71543009   3.804   7.022   1.862  0.3833 -0.5389 -0.3324
   58MOL   C71643010   3.717   7.072   1.739 -0.4712 -0.3672  0.8432
   58MOL   C71743011   3.721   6.968   1.620 -0.0653 -0.4044 -0.7146
   58MOL   N71843012   3.671   7.026   1.498 -0.3242  0.5897 -0.1975
   58MOL   H71943013   4.358   7.547   2.394  0.9578  0.6017 -0.6346
   58MOL   H72043014   4.435   7.403   2.396  2.6632  1.3713 -1.0428
   58MOL   H72143015   4.186   7.440   2.219 -1.6368  1.0524  2.1823
   58MOL   H72243016   4.253   7.289   2.242  0.9655 -0.4189 -0.3260
   58MOL   H72343017   4.124   7.444   2.467  0.0489  0.6178  0.1709
   58MOL   H72443018   4.204   7.289   2.483 -2.6334 -1.3061  0.4958
   58MOL   H72543019   3.966   7.256   2.450 -0.4626  2.0083 -0.0852
   58MOL   H72643020   3.942   7.357   2.313  0.6943  0.2245 -1.1084
   58MOL   H72743021   4.074   7.091   2.308  0.5227 -0.4211 -1.4137
   58MOL   H72843022   4.071   7.201   2.176 -0.1152  3.1147  0.9393
   58MOL   H72943023   3.788   7.207   2.228  0.2348  0.1962  3.2390
   58MOL   H73043024   3.824   7.078   2.310 -0.8500  1.7458  0.4636
   58MOL   H73143025   3.799   6.959   2.115 -0.1760  0.0687 -0.1378
   58MOL   H73243026   3.970   7.007   2.092  0.0584  0.4054  0.2805
   58MOL   H73343027   3.885   7.193   1.950 -0.6725 -0.2183  0.8649
   58MOL   H73443028   3.714   7.168   1.983 -0.0131  0.5300  0.7992
   58MOL   H73543029   3.750   6.932   1.893  0.6638 -0.7127 -0.3483
   58MOL   H73643030   3.903   6.987   1.833  1.3557  1.2003  0.8429
   58MOL   H73743031   3.737   7.177   1.717 -1.4261 -0.8452 -2.6563
   58MOL   H73843032   3.613   7.080   1.770 -1.4279 -2.6313 -1.5279
   58MOL   H73943033   3.665   6.879   1.647  0.3174 -0.5523 -0.4106
   58MOL   H74043034   3.823   6.935   1.598 -0.3793 -1.4823 -0.5987
   58MOL   H74143035   3.713   7.114   1.474  2.9950 -0.5016  1.3784
   58MOL   H74243036   3.693   6.963   1.422 -1.3376 -0.0642  0.0359
   59MOL     C143037   4.834   5.367   7.213 -0.2256  0.1099 -0.0602
   59MOL     O243038   4.747   5.281   7.222  0.0051 -0.3595 -0.4577
   59MOL     C343039   4.905   5.432   7.333  0.3514  0.0738 -0.2197
   59MOL     C443040   4.947   5.347   7.455 -0.8074 -0.0668  0.2472
   59MOL     C543041   5.034   5.231   7.415 -0.7419 -0.3091  0.2027
   59MOL     C643042   5.055   5.124   7.520  1.1658 -0.1826 -0.3369
   59MOL     C743043   5.078   4.979   7.474 -0.0421  0.1832  0.3024
   59MOL     C843044   5.086   4.877   7.590 -0.4813 -0.4850  0.1187
   59MOL     C943045   5.074   4.732   7.527  0.3744  0.5626  0.6258
   59MOL    C1043046   5.190   4.707   7.432 -0.2557  0.4758 -0.2276
   59MOL    C1143047   5.198   4.571   7.369  0.0428 -0.3541 -0.1777
   59MOL    C1243048   5.341   4.516   7.336  1.0135  0.4316  0.2915
   59MOL    C1343049   5.428   4.505   7.468  0.0701 -0.1445  0.3432
   59MOL    N1443050   5.543   4.421   7.443 -0.2617  0.7249  0.0575
   59MOL    H1543051   4.849   5.520   7.365  1.3183  1.3911 -2.0240
   59MOL    H1643052   5.000   5.470   7.294  2.4992 -2.3699  2.4610
   59MOL    H1743053   5.001   5.408   7.527 -0.9812  2.3175 -1.5660
   59MOL    H1843054   4.855   5.318   7.506 -2.2005  0.8902 -1.6528
   59MOL    H1943055   5.129   5.264   7.374 -0.8284  0.5843  0.7217
   59MOL    H2043056   4.999   5.172   7.330 -1.2704 -0.7726  0.7355
   59MOL    H2143057   5.138   5.148   7.586  1.2442 -0.0872 -0.4681
   59MOL    H2243058   4.959   5.107   7.568  0.6329  0.0865 -1.2931
   59MOL    H2343059   5.173   4.975   7.421 -1.4553 -2.4573 -2.1398
   59MOL    H2443060   5.000   4.963   7.400  0.1463  1.6469 -0.2247
   59MOL    H2543061   5.006   4.905   7.658 -0.4897  2.5359 -1.0595
   59MOL    H2643062   5.174   4.897   7.651 -1.0239  1.0099  0.4314
   59MOL    H2743063   4.985   4.732   7.463  0.8495 -2.5903 -0.0911
   59MOL    H2843064   5.065   4.648   7.596  2.0464  0.8519  1.2242
   59MOL    H2943065   5.287   4.719   7.482 -1.6735 -0.0326  2.7571
   59MOL    H3043066   5.184   4.773   7.346 -2.7426  0.1222 -0.3541
   59MOL    H3143067   5.138   4.559   7.279  0.2735  0.1073 -0.3969
   59MOL    H3243068   5.161   4.509   7.451  0.9659 -1.1743 -0.3767
   59MOL    H3343069   5.400   4.567   7.260  1.0501  0.2262  0.1799
   59MOL    H3443070   5.330   4.416   7.294  1.2203  1.8586 -3.2978
   59MOL    H3543071   5.378   4.484   7.562  0.9122 -1.3022  0.5268
   59MOL    H3643072   5.465   4.607   7.483 -0.6418  0.1224  0.3346
   59MOL    H3743073   5.529   4.326   7.475 -1.4495  0.3398 -1.5385
   59MOL    H3843074   4.861   5.405   7.114 -1.7357 -1.2551 -1.0389
   59MOL    C3943075   5.652   4.457   7.382  0.1501 -0.3540  0.4502
   59MOL    O4043076   5.682   4.571   7.356 -0.0418 -0.2934  0.2083
   59MOL    C4143077   5.753   4.340   7.372 -0.5442  0.1521  0.3864
   59MOL    C4243078   5.779   4.288   7.224  0.3656  0.0207  0.0784
   59MOL    C4343079   5.899   4.184   7.217  0.5152 -0.6880 -0.5367
   59MOL    C4443080   5.843   4.040   7.245  0.4273 -0.3978 -0.0900
   59MOL    C4543081   5.865   3.992   7.387 -0.2351  0.3707 -0.1405
   59MOL    C4643082   6.002   3.937   7.434  0.4020 -0.1180 -1.2405
   59MOL    C4743083   5.997   3.895   7.577  0.3345  0.2946  0.1773
   59MOL    C4843084   6.133   3.893   7.648 -0.6423 -0.2731 -0.3571
   59MOL    C4943085   6.125   3.862   0.103  0.4521  0.4763  0.3608
   59MOL    C5043086   6.248   3.883   0.180 -0.8054 -0.3294  0.2487
   59MOL    C5143087   6.246   3.826   0.321  0.9678 -0.7035  0.1220
   59MOL    N5243088   6.371   3.872   0.390  0.4727 -0.6391 -0.2946
   59MOL    H5343089   5.718   4.263   7.441 -0.6252  0.9802  1.2856
   59MOL    H5443090   5.845   4.366   7.424 -1.0656 -1.2105  2.0407
   59MOL    H5543091   5.679   4.256   7.192  1.3340 -2.6946 -0.3936
   59MOL    H5643092   5.804   4.366   7.153  0.5502 -1.3193 -1.3619
   59MOL    H5743093   5.980   4.206   7.286  0.3508 -0.8326 -0.2934
   59MOL    H5843094   5.940   4.184   7.116  0.2083  0.7104 -0.6676
   59MOL    H5943095   5.744   4.026   7.201  0.0782  0.1923  0.4864
   59MOL    H6043096   5.893   3.974   7.174 -1.1290 -1.9253  0.1935
   59MOL    H6143097   5.798   3.910   7.412 -1.0895  0.4540 -2.0553
   59MOL    H6243098   5.832   4.071   7.454 -2.4209 -2.1193  1.8070
   59MOL    H6343099   6.082   4.006   7.406  2.2506 -1.8683 -0.3609
   59MOL    H6443100   6.034   3.848   7.381  2.2427  0.3081 -0.8723
   59MOL    H6543101   5.944   3.802   7.597 -1.7797  0.8313 -2.6028
   59MOL    H6643102   5.931   3.962   7.633  0.4269  2.3900 -2.1607
   59MOL    H6743103   6.197   3.980   7.629  1.4049 -1.5714  0.4320
   59MOL    H6843104   6.203   3.820   7.606 -1.1958 -0.1075 -1.5970
   59MOL    H6943105   6.083   3.762   0.113 -1.5563  1.2441 -0.0370
   59MOL    H7043106   6.056   3.928   0.155  0.7890  2.7094 -1.8887
   59MOL    H7143107   6.270   3.989   0.174  0.3429 -0.6382 -1.1023
   59MOL    H7243108   6.337   3.836   0.138 -0.8004 -1.3311  1.3520
   59MOL    H7343109   6.245   3.717   0.317 -1.9482 -0.7847  1.8589
   59MOL    H7443110   6.161   3.862   0.378  1.9749  1.0231  0.5787
   59MOL    H7543111   6.427   3.946   0.352  0.6233 -0.7676 -0.3229
   59MOL    C7643112   6.403   3.820   0.515  0.0621  0.0275  0.1370
   59MOL    O7743113   6.331   3.745   0.577 -0.0600  0.2911 -0.6738
   59MOL    C7843114   6.544   3.863   0.574 -0.0562 -0.2519 -0.4312
   59MOL    C7943115   6.581   3.774   0.700  0.0837  0.4555 -0.2249
   59MOL    C8043116   6.636   3.637   0.671  0.5871  0.2485  0.1211
   59MOL    C8143117   6.779   3.630   0.614  0.1622  0.7030 -0.0155
   59MOL    C8243118   6.839   3.487   0.598 -0.7357 -0.4908  0.2781
   59MOL    C8343119   6.977   3.485   0.529  0.0442  0.6130 -0.3902
   59MOL    C8443120   6.980   3.518   0.384 -0.3022  0.4219  0.5854
   59MOL    C8543121   7.129   3.524   0.331  0.3170 -0.4003  0.1019
   59MOL    C8643122   7.137   3.588   0.192  0.1189 -0.2703  0.1265
   59MOL    C8743123   7.085   3.495   0.078  0.1673 -0.1999  0.6385
   59MOL    C8843124   7.074   3.557   7.631 -0.1095 -0.1694  0.6439
   59MOL    N8943125   6.997   3.682   7.636  0.1754 -0.1773 -1.1344
   59MOL    H9043126   6.547   3.969   0.600  3.1437 -0.3563 -0.1536
   59MOL    H9143127   6.618   3.840   0.496 -0.3002  0.1758 -0.7931
   59MOL    H9243128   6.651   3.825   0.766  0.1319  0.4738 -0.2890
   59MOL    H9343129   6.486   3.769   0.754 -0.3996 -3.0462 -1.2565
   59MOL    H9443130   6.563   3.590   0.605  0.3730  0.9031 -0.1080
   59MOL    H9543131   6.636   3.585   0.767  0.7137  2.4388  1.3444
   59MOL    H9643132   6.769   3.686   0.521 -1.0569 -0.5599 -0.6782
   59MOL    H9743133   6.845   3.687   0.679 -1.6411  0.5648  2.0210
   59MOL    H9843134   6.767   3.425   0.544 -1.7458 -0.4276  1.5359
   59MOL    H9943135   6.855   3.430   0.689  1.9029  0.5341  0.4920
   59MOL   H10043136   7.024   3.387   0.535  0.5010  0.8468 -0.1139
   59MOL   H10143137   7.044   3.555   0.580 -1.1203  1.2206  0.3327
   59MOL   H10243138   6.933   3.615   0.368  1.2205  0.9257 -1.0536
   59MOL   H10343139   6.925   3.443   0.327 -0.8277  1.6491 -0.5777
   59MOL   H10443140   7.171   3.424   0.318  3.4986  1.1429 -1.8799
   59MOL   H10543141   7.197   3.586   0.389 -0.3143  1.3769 -1.0181
   59MOL   H10643142   7.240   3.613   0.167 -0.1525  2.4624  1.5043
   59MOL   H10743143   7.077   3.679   0.187 -1.0484 -1.0584 -0.4703
   59MOL   H10843144   6.988   3.464   0.116 -1.5629 -0.7738 -3.9483
   59MOL   H10943145   7.145   3.405   0.061  1.2147  0.9570 -2.1717
   59MOL   H11043146   7.041   3.480   7.561  0.3843  0.6635 -0.5155
   59MOL   H11143147   7.165   3.584   7.579 -1.7491 -0.2175 -2.3839
   59MOL   H11243148   7.051   3.766   7.621  0.3388  0.0482  0.5948
   59MOL   C11343149   6.870   3.684   7.674  0.2910 -0.4303  0.9665
   59MOL   O11443150   6.794   3.587   7.660  0.1337  0.5696 -0.2807
   59MOL   C11543151   6.822   3.818   0.022  0.7391 -0.5226 -0.3249
   59MOL   C11643152   6.695   3.861   7.659  0.0578 -0.1939 -0.0314
   59MOL   C11743153   6.692   3.909   7.514 -0.5591  0.3716  0.7558
   59MOL   C11843154   6.566   3.974   7.469 -0.7187 -0.4077  0.2241
   59MOL   C11943155   6.526   3.960   7.319 -0.1733 -0.0302 -0.1623
   59MOL   C12043156   6.406   4.049   7.274  0.4255 -0.4004  0.1782
   59MOL   C12143157   6.364   4.033   7.131 -0.4640  0.3672  0.2204
   59MOL   C12243158   6.221   4.089   7.098  0.0491  0.3392 -1.0137
   59MOL   C12343159   6.168   4.032   6.968 -0.1407 -0.1355 -0.2146
   59MOL   C12443160   6.233   4.073   6.835  0.3163 -0.4514 -0.3283
   59MOL   C12543161   6.169   4.007   6.707 -0.0070 -0.0216 -0.3943
   59MOL   N12643162   6.167   3.856   6.715  0.1846 -0.4558 -0.2475
   59MOL   H12743163   6.896   3.894   7.690 -0.4907  0.9065  0.2283
   59MOL   H12843164   6.819   3.815   0.131  0.7266 -0.2644 -0.3169
   59MOL   H12943165   6.616   3.788   7.678  0.2082  0.2294  2.4190
   59MOL   H13043166   6.654   3.943   0.025  3.7409  2.7639 -1.4090
   59MOL   H13143167   6.728   3.829   7.449  1.1663  0.7575  1.2016
   59MOL   H13243168   6.775   3.978   7.493  0.6645 -1.7066 -1.5243
   59MOL   H13343169   6.487   3.926   7.526  0.0080 -1.8529  0.0303
   59MOL   H13443170   6.575   4.078   7.502  0.3016 -0.0517 -1.1276
   59MOL   H13543171   6.493   3.858   7.299 -0.6786  0.2592 -0.8118
   59MOL   H13643172   6.613   3.977   7.256 -0.3219  0.6845 -0.1724
   59MOL   H13743173   6.425   4.155   7.293 -0.3021  0.2496 -2.5008
   59MOL   H13843174   6.320   4.029   7.339 -0.0250 -2.9509 -1.1464
   59MOL   H13943175   6.384   3.934   7.091  1.3393  1.4109 -1.4810
   59MOL   H14043176   6.430   4.096   7.072 -1.5068  0.9189 -0.3877
   59MOL   H14143177   6.217   4.198   7.102 -1.5740  0.2453  1.1714
   59MOL   H14243178   6.154   4.075   7.183  0.9412  3.2541  0.2137
   59MOL   H14343179   6.066   4.070   6.961  0.9124  2.7895 -0.0024
   59MOL   H14443180   6.165   3.923   6.971  0.6696 -0.1625 -0.4325
   59MOL   H14543181   6.336   4.044   6.856 -0.2088 -1.0730  1.4836
   59MOL   H14643182   6.233   4.182   6.830  2.8308 -0.4372 -0.4646
   59MOL   H14743183   6.237   4.047   6.632 -1.7454 -1.4425 -2.7996
   59MOL   H14843184   6.065   4.040   6.707  1.4300  4.9582  1.5341
   59MOL   H14943185   6.205   3.811   6.798  0.6835  0.2532 -0.0898
   59MOL   C15043186   6.133   3.775   6.616  0.8052  0.1938  0.6469
   59MOL   O15143187   6.081   3.823   6.515 -0.4539  0.1488  0.8977
   59MOL   C15243188   6.163   3.621   6.631  0.1437 -0.0871  0.3372
   59MOL   C15343189   6.263   3.574   6.532 -0.0812  0.2977  0.3362
   59MOL   C15443190   6.265   3.423   6.502 -0.2463 -0.1905  0.4651
   59MOL   C15543191   6.303   3.328   6.619 -0.4766 -0.1908 -0.2741
   59MOL   C15643192   6.303   3.181   6.567  0.1422  0.4793 -0.0439
   59MOL   C15743193   6.345   3.080   6.673  0.2911  0.7531 -0.6175
   59MOL   C15843194   6.495   3.086   6.703  0.7092  0.1778  0.1698
   59MOL   C15943195   6.536   3.159   6.833  0.2747 -0.4106 -0.2308
   59MOL   C16043196   6.689   3.162   6.865  1.3092  0.3189  0.8699
   59MOL   C16143197   6.702   3.255   6.982  0.2950 -0.2094  0.2757
   59MOL   C16243198   6.848   3.294   6.984 -0.3114  0.3893 -0.2813
   59MOL   N16343199   6.878   3.376   7.103  0.0891  0.2731  0.6595
   59MOL   H16443200   6.069   3.576   6.597 -0.9364  0.6482  2.2775
   59MOL   H16543201   6.197   3.597   6.731 -0.8959  1.0231  0.9704
   59MOL   H16643202   6.231   3.613   6.436  0.8659  1.0604  0.3285
   59MOL   H16743203   6.367   3.602   6.548 -0.0251  0.6649 -0.6466
   59MOL   H16843204   6.329   3.410   6.415 -2.0211  2.0423 -1.2731
   59MOL   H16943205   6.163   3.394   6.474 -1.1935  1.5328  2.0402
   59MOL   H17043206   6.399   3.352   6.666 -0.0228 -0.2269 -1.1699
   59MOL   H17143207   6.228   3.344   6.696  2.2302 -2.3922  2.9515
   59MOL   H17243208   6.373   3.181   6.483  0.7334 -0.0371  0.4465
   59MOL   H17343209   6.204   3.149   6.535 -0.3134  0.2717  1.5464
   59MOL   H17443210   6.338   2.980   6.630  0.3207  0.9699 -1.1352
   59MOL   H17543211   6.290   3.082   6.767  0.1145 -0.7485 -0.6870
   59MOL   H17643212   6.542   3.131   6.616  0.3534  1.1368  0.4668
   59MOL   H17743213   6.541   2.988   6.710  0.6204  0.2828  2.7823
   59MOL   H17843214   6.473   3.117   6.911  1.6942 -1.4125  0.3931
   59MOL   H17943215   6.501   3.262   6.828  0.6432 -0.2095  1.1159
   59MOL   H18043216   6.732   3.196   6.771  0.7115 -3.2502 -0.7533
   59MOL   H18143217   6.732   3.064   6.889  1.7067  0.3815  0.4199
   59MOL   H18243218   6.666   3.226   7.080  1.2247  0.3066  0.7721
   59MOL   H18343219   6.652   3.348   6.957  0.4143  0.1716  1.4445
   59MOL   H18443220   6.873   3.329   6.884  2.1354  0.0084  0.1677
   59MOL   H18543221   6.905   3.202   6.996 -2.8277 -1.1138  0.7669
   59MOL   H18643222   6.810   3.383   7.178  0.5368 -0.1507  1.1132
   59MOL   C18743223   6.979   3.467   7.102 -1.0446  0.0490 -0.0204
   59MOL   O18843224   7.069   3.461   7.019  0.4728 -0.2825 -0.7885
   59MOL   C18943225   6.985   3.573   7.214 -0.0373  0.0143  0.1594
   59MOL   C19043226   7.009   3.716   7.165 -0.3679  1.2088  0.4399
   59MOL   C19143227   6.903   3.777   7.076 -0.2783  0.3113  0.2922
   59MOL   C19243228   6.911   3.927   7.063 -0.2884 -0.1382  0.0290
   59MOL   C19343229   7.043   3.979   7.006 -0.3622  0.2131  1.2496
   59MOL   C19443230   7.076   3.967   6.851 -0.5527 -0.5810 -0.2116
   59MOL   C19543231   7.096   3.823   6.803 -0.0812 -0.0078  0.1531
   59MOL   C19643232   7.173   3.832   6.671  0.1438  0.7078  0.2070
   59MOL   C19743233   7.209   3.688   6.636 -0.1355  0.0382 -0.4766
   59MOL   C19843234   7.302   3.690   6.512  0.3538 -0.4769  0.2692
   59MOL   C19943235   7.392   3.565   6.510 -0.0896  1.2093 -1.1766
   59MOL   N20043236   7.474   3.559   6.391 -0.2075 -0.8736 -0.1567
   59MOL   H20143237   7.073   3.549   7.273  0.9588 -0.0787 -1.3540
   59MOL   H20243238   6.894   3.576   7.276  1.8147  2.0653  2.9130
   59MOL   H20343239   7.037   3.774   7.253 -0.0715  2.2147 -0.3113
   59MOL   H20443240   7.106   3.712   7.115 -0.2608  0.4242  0.6995
   59MOL   H20543241   6.810   3.741   7.121 -1.1409 -0.1263 -1.7865
   59MOL   H20643242   6.890   3.720   6.984 -2.1647 -0.7115  1.1539
   59MOL   H20743243   6.833   3.971   7.002  0.8787 -0.1400 -1.4982
   59MOL   H20843244   6.903   3.975   7.161 -0.3793  1.0262 -0.5423
   59MOL   H20943245   7.127   3.943   7.065  0.5853  0.4088  0.0476
   59MOL   H21043246   7.051   4.085   7.030  2.2556  0.0458  1.2188
   59MOL   H21143247   7.175   4.011   6.864 -1.4446  1.5573 -0.4658
   59MOL   H21243248   7.014   4.027   6.785  2.5717  1.1546 -1.6936
   59MOL   H21343249   6.999   3.775   6.786  0.8201 -2.4613  1.7289
   59MOL   H21443250   7.147   3.765   6.880 -0.4382  1.4455  1.5028
   59MOL   H21543251   7.259   3.899   6.679 -0.0164  0.9392 -0.0051
   59MOL   H21643252   7.111   3.875   6.592  0.8050 -1.5067 -1.5778
   59MOL   H21743253   7.126   3.627   6.598  0.8458  0.7131 -3.8873
   59MOL   H21843254   7.253   3.643   6.725 -1.5678 -1.3187 -0.4277
   59MOL   H21943255   7.374   3.770   6.527 -1.3396  0.8889  1.2859
   59MOL   H22043256   7.251   3.703   6.416 -1.0328 -2.4780  0.7084
   59MOL   H22143257   7.321   3.482   6.513  1.1934  0.1440  2.3843
   59MOL   H22243258   7.458   3.557   6.596 -0.6052  0.8605 -0.8110
   59MOL   H22343259   7.511   3.648   6.361  0.7681 -0.5955  1.7940
   59MOL   C22443260   7.522   3.452   6.332  0.6333 -0.0459  0.0338
   59MOL   O22543261   7.488   3.337   6.355  0.1520 -0.0188 -0.0545
   59MOL   C22643262   7.623   3.488   6.223 -0.6853  0.2141  0.1388
   59MOL   C22743263   7.693   3.363   6.169 -0.2134 -0.5695  0.5232
   59MOL   C22843264   0.099   3.403   6.058  0.4757 -0.0931  0.1066
   59MOL   C22943265   0.134   3.284   5.963  0.8356  0.2752  0.6807
   59MOL   C23043266   0.206   3.328   5.838  0.1472 -0.2924 -0.2985
   59MOL   C23143267   0.106   3.345   5.727  0.2703 -0.3437 -0.7292
   59MOL   C23243268   0.171   3.407   5.600 -0.5021 -0.0002  0.4740
   59MOL   C23343269   0.092   3.407   5.468  0.0083  0.4752 -0.4026
   59MOL   C23443270   0.001   3.527   5.463  0.0233 -0.5816 -0.3317
   59MOL   C23543271   7.616   3.552   5.327 -0.3575  0.7023 -0.5375
   59MOL   C23643272   7.518   3.667   5.329 -0.9099  0.0168 -0.0523
   59MOL   N23743273   7.413   3.642   5.424 -0.0926  0.0903 -0.4287
   59MOL   H23843274   0.004   3.555   6.265  0.7779 -0.6016 -1.0936
   59MOL   H23943275   7.569   3.538   6.143  2.0530 -0.3947 -2.2199
   59MOL   H24043276   0.053   3.316   6.252 -0.5273  2.5071  2.5463
   59MOL   H24143277   7.629   3.282   6.135  0.3720 -1.3895  1.3324
   59MOL   H24243278   0.194   3.432   6.103  0.3936  0.6745 -0.2192
   59MOL   H24343279   0.072   3.488   5.995 -0.1350  0.3902  1.0223
   59MOL   H24443280   0.184   3.206   6.021  1.3855 -0.9307 -1.3453
   59MOL   H24543281   0.041   3.232   5.940  1.8272 -1.3479  0.2337
   59MOL   H24643282   0.296   3.274   5.808  0.7635 -1.0055  2.6480
   59MOL   H24743283   0.247   3.422   5.873 -1.8172 -0.3738  2.3477
   59MOL   H24843284   0.033   3.420   5.757  0.8177  0.3251 -1.0542
   59MOL   H24943285   0.056   3.254   5.692  1.2349 -1.3003  0.3769
   59MOL   H25043286   0.256   3.345   5.571 -0.4000  0.6195 -0.5525
   59MOL   H25143287   0.204   3.507   5.627  1.4766 -0.7360  0.8970
   59MOL   H25243288   0.040   3.313   5.449  1.3038 -0.3416  0.0110
   59MOL   H25343289   0.153   3.424   5.379  1.0133 -0.2103  0.1354
   59MOL   H25443290   0.053   3.615   5.499 -0.0271 -0.3687 -0.7825
   59MOL   H25543291   7.615   3.514   5.536 -0.2180 -2.3351 -0.8742
   59MOL   H25643292   7.563   3.459   5.305 -0.8943  0.8695  0.0332
   59MOL   H25743293   7.682   3.563   5.241  0.0723 -3.1819 -0.7994
   59MOL   H25843294   7.479   3.686   5.229  1.1506  2.2859 -0.4747
   59MOL   H25943295   7.566   3.760   5.358 -0.6602  0.0188 -0.4578
   59MOL   H26043296   7.407   3.544   5.449  0.8911  0.2567  0.5102
   59MOL   C26143297   7.316   3.726   5.471  0.2497 -0.1641  0.2529
   59MOL   O26243298   7.315   3.844   5.447 -0.0069 -0.5245  0.3523
   59MOL   C26343299   7.201   3.660   5.546 -0.7682 -0.4387  0.0092
   59MOL   C26443300   7.163   3.729   5.681 -0.3297  0.2484  0.2021
   59MOL   C26543301   7.026   3.800   5.684 -0.5435 -0.0030 -0.6326
   59MOL   C26643302   7.001   3.920   5.582  0.6971  0.2456 -0.1457
   59MOL   C26743303   6.874   4.007   5.606 -0.5406 -0.6835  0.0421
   59MOL   C26843304   6.742   3.937   5.645  0.5331 -0.8076  0.2861
   59MOL   C26943305   6.632   4.041   5.656 -0.1339 -0.2113 -0.2456
   59MOL   C27043306   6.531   4.052   5.540 -0.9771  0.3876 -0.1253
   59MOL   C27143307   6.418   4.141   5.563 -0.2480 -0.5243 -0.0355
   59MOL   C27243308   6.295   4.127   5.473 -0.0202  0.2520  0.1997
   59MOL   C27343309   6.170   4.214   5.501  0.1485 -0.4776 -1.1543
   59MOL   N27443310   6.207   4.346   5.564  0.3408  0.0395 -0.2254
   59MOL   H27543311   7.210   3.553   5.565  1.8293  0.0239  1.6754
   59MOL   H27643312   7.118   3.661   5.476 -1.0227 -0.0637  0.3113
   59MOL   H27743313   7.166   3.655   5.760  0.9890 -0.1670 -0.2292
   59MOL   H27843314   7.241   3.804   5.699  1.6022 -1.5232 -0.6451
   59MOL   H27943315   7.013   3.833   5.787 -2.4439  0.8671 -1.1392
   59MOL   H28043316   6.948   3.730   5.656 -0.7707  0.6855 -1.7644
   59MOL   H28143317   7.080   3.994   5.598  0.3629  0.1089  2.3078
   59MOL   H28243318   7.006   3.891   5.477  0.7599  1.4922 -0.5022
   59MOL   H28343319   6.858   4.081   5.528  2.1257 -2.5126 -2.3588
   59MOL   H28443320   6.905   4.064   5.694 -1.7972 -2.1705  1.4804
   59MOL   H28543321   6.763   3.888   5.741  1.2006 -0.0232  0.5460
   59MOL   H28643322   6.706   3.862   5.574  0.7647  1.3137 -2.1008
   59MOL   H28743323   6.677   4.139   5.671 -0.2704 -0.4498  1.9057
   59MOL   H28843324   6.575   4.023   5.747 -2.0715 -1.5214 -1.6759
   59MOL   H28943325   6.485   3.955   5.524  0.8930 -0.5748  0.2010
   59MOL   H29043326   6.590   4.075   5.451 -0.6020 -1.4586 -0.3659
   59MOL   H29143327   6.439   4.247   5.555  0.6537 -0.8822 -3.2275
   59MOL   H29243328   6.370   4.125   5.660  1.0439  1.7842  1.0282
   59MOL   H29343329   6.265   4.022   5.476  0.6963 -0.0082 -1.2890
   59MOL   H29443330   6.322   4.150   5.370 -3.8108  0.3564 -0.8398
   59MOL   H29543331   6.099   4.164   5.566  0.7205 -2.4040 -1.9809
   59MOL   H29643332   6.113   4.231   5.410 -1.5140 -0.3062 -0.1087
   59MOL   H29743333   6.202   4.358   5.664  2.4023 -0.8454  0.0215
   59MOL   C29843334   6.238   4.452   5.486  0.0711 -0.6138  0.8478
   59MOL   O29943335   6.236   4.446   5.363 -0.2191 -0.0929 -0.1981
   59MOL   C30043336   6.278   4.582   5.553 -0.1309  0.0165 -0.4460
   59MOL   C30143337   6.426   4.579   5.599 -1.0085 -0.3064  0.2726
   59MOL   C30243338   6.455   4.698   5.692  0.1170 -0.3245  0.7836
   59MOL   C30343339   6.605   4.705   5.718  0.3075  0.2388  0.7382
   59MOL   C30443340   6.633   4.783   5.851  0.0520  0.0012 -0.5513
   59MOL   C30543341   6.777   4.809   5.868  0.0611 -0.1464 -0.3896
   59MOL   C30643342   6.824   4.890   5.747  0.3581 -0.1002 -0.7923
   59MOL   C30743343   6.963   4.942   5.769  0.8779 -0.1503 -0.7572
   59MOL   C30843344   7.012   4.983   5.636 -0.6127 -0.1639 -0.2353
   59MOL   C30943345   7.150   5.054   5.640 -0.5178 -1.2671  0.2768
   59MOL   C31043346   7.214   5.070   5.502  0.3186  0.6316  0.2069
   59MOL   N31143347   7.263   4.945   5.448  1.0884  0.4872  0.3694
   59MOL   H31243348   6.217   4.602   5.641  0.3507  2.8721 -0.7008
   59MOL   H31343349   6.261   4.666   5.486 -0.2117  1.5476  1.4488
   59MOL   H31443350   6.463   4.494   5.656  0.1527 -2.3178 -3.2964
   59MOL   H31543351   6.491   4.580   5.511 -2.5747 -2.9628 -0.9710
   59MOL   H31643352   6.398   4.691   5.784 -2.3936 -1.0491 -0.7733
   59MOL   H31743353   6.433   4.789   5.636  2.2171 -0.7009 -0.7292
   59MOL   H31843354   6.653   4.609   5.740 -2.9576 -1.2243  1.8810
   59MOL   H31943355   6.643   4.740   5.623 -0.7312  1.8422  0.8897
   59MOL   H32043356   6.601   4.712   5.928 -0.4227  0.4716 -0.3154
   59MOL   H32143357   6.570   4.871   5.859  1.2954  0.8365  0.3027
   59MOL   H32243358   6.840   4.722   5.880 -0.6526 -0.7001 -0.6355
   59MOL   H32343359   6.783   4.878   5.952 -0.7448  0.6199 -0.9456
   59MOL   H32443360   6.769   4.981   5.720  2.9022  1.8673  0.4064
   59MOL   H32543361   6.832   4.818   5.665 -0.5859 -0.4052 -0.6225
   59MOL   H32643362   7.028   4.866   5.813 -0.2565 -0.3244  0.6547
   59MOL   H32743363   6.964   5.020   5.845  0.6866 -1.5076  0.6777
   59MOL   H32843364   6.936   5.046   5.590 -0.7263  1.1635  1.7247
   59MOL   H32943365   7.036   4.897   5.574  1.6593 -1.0226  1.7710
   59MOL   H33043366   7.210   5.006   5.716  0.2541  0.7278  0.9457
   59MOL   H33143367   7.121   5.156   5.665  3.0711 -0.3138  0.7834
   59MOL   H33243368   7.298   5.139   5.506  0.8349  0.0741 -0.8276
   59MOL   H33343369   7.140   5.105   5.431 -3.2136 -0.3886  3.2141
   59MOL   H33443370   7.200   4.875   5.412  2.9594 -0.5782 -0.9162
   59MOL   C33543371   7.388   4.897   5.469  0.7637 -0.5896 -0.3640
   59MOL   O33643372   7.477   4.966   5.506  0.2157  0.1864  0.1003
   59MOL   C33743373   7.410   4.750   5.434  0.6526 -0.1344  0.3590
   59MOL   C33843374   7.438   4.658   5.559  0.7538  0.5143 -1.0331
   59MOL   C33943375   7.325   4.643   5.662 -0.0969  0.1532 -0.0768
   59MOL   C34043376   7.212   4.553   5.604 -0.8290 -0.1020  0.0562
   59MOL   C34143377   7.108   4.509   5.702 -0.1439 -0.1178 -0.7752
   59MOL   C34243378   6.986   4.424   5.650 -0.1214  0.3477  0.3859
   59MOL   C34343379   6.925   4.479   5.529 -0.8390  0.2342  0.3401
   59MOL   C34443380   6.799   4.393   5.501  0.1117  0.2745 -0.4334
   59MOL   C34543381   6.733   4.447   5.376  0.1062 -0.3424  0.4782
   59MOL   C34643382   6.626   4.357   5.323  0.1307  0.0048 -0.5021
   59MOL   C34743383   6.561   4.409   5.190 -0.6402 -0.2526 -0.2764
   59MOL   N34843384   6.470   4.514   5.211 -0.0186 -0.4005 -0.7528
   59MOL   H34943385   7.500   4.752   5.373 -0.0260 -0.1513 -0.6452
   59MOL   H35043386   7.323   4.716   5.377  2.3285 -2.0983 -1.1005
   59MOL   H35143387   7.472   4.559   5.528 -4.3998 -1.9561  0.6549
   59MOL   H35243388   7.526   4.703   5.605 -0.1719  2.5657 -1.2383
   59MOL   H35343389   7.287   4.742   5.688 -3.6212 -0.9416 -0.7243
   59MOL   H35443390   7.368   4.594   5.749  0.0249 -1.2015 -0.8985
   59MOL   H35543391   7.166   4.591   5.513  2.0642  0.6689 -1.1371
   59MOL   H35643392   7.252   4.461   5.561 -1.1649  1.6356 -4.2291
   59MOL   H35743393   7.059   4.597   5.744  1.0462  0.0353  0.3185
   59MOL   H35843394   7.153   4.457   5.787 -1.5953  1.2789  0.9075
   59MOL   H35943395   6.918   4.430   5.735 -1.1105  0.5408 -0.4138
   59MOL   H36043396   7.037   4.328   5.641 -0.7743 -0.0273  0.6574
   59MOL   H36143397   6.997   4.473   5.447 -0.9872  1.5698  0.0943
   59MOL   H36243398   6.902   4.582   5.557  1.8919  1.3671 -1.3280
   59MOL   H36343399   6.729   4.395   5.585 -1.7845  2.7806 -1.9708
   59MOL   H36443400   6.828   4.291   5.478 -1.3623  0.0174 -1.2250
   59MOL   H36543401   6.804   4.478   5.300  0.1985 -1.2671  0.1798
   59MOL   H36643402   6.698   4.543   5.413 -0.8467 -0.1382 -0.9329
   59MOL   H36743403   6.544   4.332   5.391 -1.1038  1.1778 -1.5366
   59MOL   H36843404   6.679   4.265   5.300 -0.7401 -1.5194  3.2045
   59MOL   H36943405   6.506   4.326   5.147  0.2114 -1.0865  0.2309
   59MOL   H37043406   6.642   4.432   5.121 -0.7980  1.0979 -0.0379
   59MOL   H37143407   6.388   4.480   5.259 -0.4094  1.5567  0.0299
   59MOL   C37243408   6.476   4.641   5.176  0.6135  0.7642 -0.0886
   59MOL   O37343409   6.575   4.701   5.144 -0.0296  0.1966 -0.3858
   59MOL   C37443410   6.352   4.728   5.192 -1.0543 -0.1592 -0.0615
   59MOL   C37543411   6.285   4.763   5.061  0.0126 -0.2514 -0.0668
   59MOL   C37643412   6.155   4.842   5.074 -0.7699 -0.0636  0.1640
   59MOL   C37743413   6.145   4.954   5.173 -0.7532  0.2302 -1.1138
   59MOL   C37843414   6.224   5.085   5.134  0.2679  0.1321 -0.1644
   59MOL   C37943415   6.241   5.172   5.252  0.2619  0.2170 -0.3293
   59MOL   C38043416   6.321   5.298   5.230 -0.5413  0.0912 -0.5377
   59MOL   C38143417   6.341   5.383   5.358 -0.3802 -0.6348 -0.1088
   59MOL   C38243418   6.390   5.522   5.322 -0.1238 -0.6578  0.2292
   59MOL   C38343419   6.422   5.616   5.444  0.7484  0.1082 -0.1646
   59MOL   C38443420   6.557   5.691   5.436  0.2430 -0.2328  0.0203
   59MOL   N38543421   6.563   5.771   5.315 -0.1008 -0.5609  0.4103
   59MOL   H38643422   6.373   4.824   5.240 -2.5117  0.5523 -0.8358
   59MOL   H38743423   6.285   4.684   5.266 -0.5170 -0.3349  0.3274
   59MOL   H38843424   6.350   4.806   4.984 -1.5727 -0.1426 -1.3584
   59MOL   H38943425   6.255   4.669   5.016  1.2077 -0.1733 -1.0894
   59MOL   H39043426   6.069   4.779   5.096  0.3891 -1.3220  1.1777
   59MOL   H39143427   6.135   4.879   4.973  1.2455  2.4169  0.6093
   59MOL   H39243428   6.039   4.976   5.181 -0.3623  2.1808 -0.9742
   59MOL   H39343429   6.175   4.910   5.268  2.0581 -0.5367 -2.2989
   59MOL   H39443430   6.165   5.128   5.052 -2.8537 -0.5232  1.6756
   59MOL   H39543431   6.321   5.062   5.089 -0.1885  0.1854 -1.2080
   59MOL   H39643432   6.280   5.109   5.333  1.7622  0.5334 -0.7880
   59MOL   H39743433   6.144   5.203   5.291 -0.6040 -3.2549  0.4588
   59MOL   H39843434   6.276   5.354   5.148 -1.4765 -0.1694 -0.2086
   59MOL   H39943435   6.419   5.275   5.190 -0.4571 -0.3951 -0.0558
   59MOL   H40043436   6.408   5.340   5.432  0.3395 -0.7857 -0.8455
   59MOL   H40143437   6.248   5.399   5.413 -0.8328  1.7294 -1.4788
   59MOL   H40243438   6.320   5.573   5.256  0.1749  0.8478  1.0375
   59MOL   H40343439   6.477   5.517   5.257  0.6931  0.4037  1.2145
   59MOL   H40443440   6.437   5.559   5.537 -1.5635  2.2130  1.5562
   59MOL   H40543441   6.332   5.674   5.464  0.8799 -0.1972  1.4324
   59MOL   H40643442   6.639   5.619   5.438 -0.8397 -1.5513 -1.8095
   59MOL   H40743443   6.566   5.750   5.527 -3.0811  0.0730  0.2091
   59MOL   H40843444   6.587   5.724   5.229 -0.7958 -1.9189  0.9433
   59MOL   C40943445   6.540   5.901   5.308 -0.4775 -0.2358  0.1258
   59MOL   O41043446   6.514   5.965   5.414 -0.3925  0.2786  0.3039
   59MOL   C41143447   6.571   5.980   5.182  0.3968 -0.1219 -0.4328
   59MOL   C41243448   6.470   6.088   5.129 -0.4840 -0.6027 -0.0656
   59MOL   C41343449   6.333   6.034   5.073  0.3718  0.2732  0.2069
   59MOL   C41443450   6.236   6.141   5.017 -0.1518  0.2716  0.6459
   59MOL   C41543451   6.100   6.092   4.965  0.3036 -0.0530  0.8295
   59MOL   C41643452   6.009   6.195   4.891  0.2914  0.3236  0.3165
   59MOL   C41743453   5.899   6.118   4.818  0.3534 -0.5203 -0.0008
   59MOL   C41843454   5.803   6.219   4.745 -0.0977  0.1725  0.1430
   59MOL   C41943455   5.856   6.341   4.670 -0.4287  0.0634  0.1336
   59MOL   C42043456   5.743   6.433   4.617  0.3679  0.5196  0.4426
   59MOL   C42143457   5.794   6.574   4.584  0.5719  0.3108 -0.0139
   59MOL   N42243458   5.909   6.580   4.488 -0.0268 -0.1876  0.1064
   59MOL   H42343459   6.595   5.911   5.101 -0.1494 -1.2905  0.3704
   59MOL   H42443460   6.670   6.016   5.208  0.6061 -0.2413 -1.0567
   59MOL   H42543461   6.453   6.152   5.216  1.6393 -1.5158  1.0678
   59MOL   H42643462   6.522   6.149   5.055 -0.2047 -1.7540 -0.8269
   59MOL   H42743463   6.270   5.981   5.145  1.5986 -1.2155  0.2204
   59MOL   H42843464   6.355   5.968   4.989  1.6665  2.6702 -1.3765
   59MOL   H42943465   6.220   6.220   5.090  2.0043  0.3021  1.1240
   59MOL   H43043466   6.285   6.190   4.933 -0.8235  0.0513  0.1201
   59MOL   H43143467   6.040   6.059   5.049 -0.1118  1.7877  1.2715
   59MOL   H43243468   6.115   6.012   4.892 -0.3359  1.3496 -0.8706
   59MOL   H43343469   6.069   6.254   4.823  1.4867 -1.5292 -0.2701
   59MOL   H43443470   5.963   6.264   4.962  1.8938  0.4413  1.2486
   59MOL   H43543471   5.846   6.060   4.893 -0.2092  0.3385  0.2626
   59MOL   H43643472   5.939   6.049   4.743  1.1315  0.6667 -0.6905
   59MOL   H43743473   5.748   6.255   4.832  0.0241  2.0030 -0.5286
   59MOL   H43843474   5.753   6.155   4.673 -0.8178  0.1818  0.6282
   59MOL   H43943475   5.932   6.310   4.598 -0.5407  2.1800 -0.9447
   59MOL   H44043476   5.910   6.409   4.737 -1.0295 -1.1770  1.9200
   59MOL   H44143477   5.656   6.432   4.684  1.2387 -0.5914  1.5967
   59MOL   H44243478   5.695   6.378   4.536  1.6597 -0.5346  0.3764
   59MOL   H44343479   5.809   6.634   4.674  2.5308  0.0813 -0.1464
   59MOL   H44443480   5.714   6.626   4.531  1.6818  1.6153 -0.4519
   59MOL   H44543481   5.891   6.544   4.395 -0.8541 -1.4551  0.7515
   59MOL   C44643482   6.029   6.649   4.504  0.8127  0.7884 -0.0388
   59MOL   O44743483   6.056   6.708   4.603 -0.3622  0.1739 -0.0384
   59MOL   C44843484   6.134   6.625   4.400 -0.0748  0.2610  1.1198
   59MOL   C44943485   6.285   6.629   4.449  0.5873 -0.4858  0.4082
   59MOL   C45043486   6.319   6.528   4.561  0.1269 -0.6483 -0.2964
   59MOL   C45143487   6.300   6.379   4.528  0.6438 -0.5953  1.2010
   59MOL   C45243488   6.368   6.298   4.645 -0.3916  0.1597  0.8694
   59MOL   C45343489   6.396   6.157   4.610 -0.0365  0.2913 -0.4330
   59MOL   C45443490   6.266   6.082   4.605 -0.1263 -0.9432 -0.8702
   59MOL   C45543491   6.290   5.930   4.620  0.7045 -0.6086 -0.5611
   59MOL   C45643492   6.159   5.862   4.571 -0.7068 -0.1300 -0.1063
   59MOL   C45743493   6.163   5.706   4.552 -0.0874  0.0032  0.2949
   59MOL   C45843494   6.022   5.639   4.523  0.0939 -0.2316 -0.2974
   59MOL   N45943495   6.014   5.496   4.548 -0.0354  0.4426  0.3935
   59MOL   H46043496   6.124   6.697   4.318 -0.4271  0.5017  1.3689
   59MOL   H46143497   6.118   6.525   4.361  2.7899 -0.2755  1.1996
   59MOL   H46243498   6.346   6.616   4.359 -0.3755  1.4286 -0.5384
   59MOL   H46343499   6.304   6.722   4.503  1.2814  0.1566 -0.9181
   59MOL   H46443500   6.253   6.548   4.645 -0.4084 -2.3792 -0.2897
   59MOL   H46543501   6.419   6.556   4.595  0.5463 -0.7123 -1.4808
   59MOL   H46643502   6.193   6.361   4.521  0.5656  0.8148 -2.3332
   59MOL   H46743503   6.340   6.347   4.432 -0.7109  1.8857 -0.2325
   59MOL   H46843504   6.318   6.305   4.741  1.1753  2.3551  1.5754
   59MOL   H46943505   6.465   6.348   4.654 -0.1967  0.3686 -1.7989
   59MOL   H47043506   6.449   6.121   4.699 -1.6438 -0.3381  0.3068
   59MOL   H47143507   6.465   6.136   4.529  1.3876 -0.3670  0.9117
   59MOL   H47243508   6.209   6.119   4.520  0.3565  0.9162 -0.4131
   59MOL   H47343509   6.199   6.120   4.682  1.3575  0.2229 -0.1246
   59MOL   H47443510   6.315   5.898   4.721 -0.3783  0.3626  0.0257
   59MOL   H47543511   6.366   5.898   4.549  3.3174 -2.0535  2.7639
   59MOL   H47643512   6.132   5.913   4.479  0.5797 -0.5239 -0.7315
   59MOL   H47743513   6.077   5.897   4.633 -1.2162 -0.4891 -0.5762
   59MOL   H47843514   6.203   5.666   4.646 -0.0932 -0.1204  0.2452
   59MOL   H47943515   6.227   5.685   4.466 -1.7228  1.0962 -1.2291
   59MOL   H48043516   6.001   5.657   4.418 -1.6793 -3.1594 -0.4895
   59MOL   H48143517   5.942   5.680   4.585  0.4895 -0.5404  0.4287
   59MOL   H48243518   6.043   5.474   4.642  1.3805  0.3044 -0.0661
   59MOL   C48343519   5.957   5.408   4.471  1.1803 -0.6094 -0.4270
   59MOL   O48443520   5.901   5.441   4.367 -0.0556 -0.3968  0.0263
   59MOL   C48543521   5.947   5.265   4.517  0.3534  0.1376 -0.3024
   59MOL   C48643522   6.093   5.213   4.529 -0.0477  0.3238 -0.5577
   59MOL   C48743523   6.115   5.061   4.543 -0.5836  0.6333  0.1773
   59MOL   C48843524   6.021   4.991   4.646  0.1281 -0.4445 -0.4248
   59MOL   C48943525   5.997   4.844   4.616 -0.1409 -0.5114  0.5412
   59MOL   C49043526   6.135   4.767   4.618  0.7512  0.1277  0.1388
   59MOL   C49143527   6.098   4.621   4.566 -0.2323 -0.0997  0.0739
   59MOL   C49243528   6.212   4.522   4.574  0.3481 -0.2891 -0.2462
   59MOL   C49343529   6.253   4.489   4.718  0.2904 -0.3435  0.3185
   59MOL   C49443530   6.336   4.364   4.736  0.5072 -0.1894 -0.6721
   59MOL   C49543531   6.370   4.343   4.883  0.1838 -0.4983 -0.0760
   59MOL   N49643532   6.454   4.230   4.906 -0.4738  0.6061  0.2089
   59MOL   H49743533   5.868   5.212   4.465  1.1293 -1.3949  0.0406
   59MOL   H49843534   5.909   5.273   4.619  0.0456  1.4107 -0.5067
   59MOL   H49943535   6.151   5.245   4.442 -0.8115  2.0750 -0.4443
   59MOL   H50043536   6.142   5.260   4.614 -0.6634  2.8489 -1.5382
   59MOL   H50143537   6.219   5.032   4.556 -0.6686 -0.0194 -0.5998
   59MOL   H50243538   6.095   5.027   4.441 -0.1648  1.8483 -0.3170
   59MOL   H50343539   6.065   4.985   4.746 -1.7768  1.0908  0.5604
   59MOL   H50443540   5.926   5.043   4.651  0.3016 -0.0432 -1.1947
   59MOL   H50543541   5.946   4.835   4.520  0.4666  1.0940  0.0657
   59MOL   H50643542   5.930   4.797   4.689  0.7230  0.1570  1.7888
   59MOL   H50743543   6.169   4.768   4.721  3.2442 -0.0162 -0.6574
   59MOL   H50843544   6.212   4.797   4.547 -0.2189 -0.1163 -1.0455
   59MOL   H50943545   6.068   4.623   4.462  3.2549  1.9807 -0.9810
   59MOL   H51043546   6.013   4.582   4.621 -0.2697  1.4606  1.1676
   59MOL   H51143547   6.291   4.570   4.515 -1.6708  2.3510 -0.8742
   59MOL   H51243548   6.176   4.434   4.522 -0.3541  0.2261 -0.6302
   59MOL   H51343549   6.162   4.467   4.774 -0.7791  0.7361 -0.9229
   59MOL   H51443550   6.307   4.571   4.765 -0.6865  0.3247  0.3152
   59MOL   H51543551   6.430   4.369   4.680  0.5219  1.2205 -0.5422
   59MOL   H51643552   6.285   4.275   4.699  0.6655 -0.1437 -1.0042
   59MOL   H51743553   6.276   4.332   4.936  1.1140 -2.4221  1.2172
   59MOL   H51843554   6.418   4.434   4.920 -3.0199  1.4642 -0.5281
   59MOL   H51943555   6.549   4.248   4.934  0.3168  0.7943 -2.4342
   59MOL   C52043556   6.404   4.110   4.942  0.8045 -0.3210  0.0654
   59MOL   O52143557   6.282   4.107   4.967 -0.0568 -0.4455  0.3787
   59MOL   C52243558   6.491   3.986   4.971 -0.3027  0.8291 -0.1770
   59MOL   C52343559   6.542   3.976   5.118  0.3734 -0.0828 -0.1621
   59MOL   C52443560   6.655   3.875   5.121  0.1533  0.8189  0.1273
   59MOL   C52543561   6.709   3.830   5.263 -0.3094 -0.0747 -0.1711
   59MOL   C52643562   6.813   3.715   5.273  0.3791 -0.2214  0.1548
   59MOL   C52743563   6.943   3.744   5.205  0.1768 -0.0613 -0.2323
   59MOL   C52843564   6.937   3.703   5.059 -0.4652  0.2308  0.0275
   59MOL   C52943565   7.082   3.697   5.000  0.0413  0.0148 -0.2593
   59MOL   C53043566   7.165   3.825   5.006  0.4738  0.3331 -0.1170
   59MOL   C53143567   7.308   3.813   4.949  0.0778 -0.1961 -0.7894
   59MOL   C53243568   7.392   3.929   4.993  0.7725  0.4782  1.0470
   59MOL   N53343569   7.520   3.917   4.924 -1.0155 -0.6195  0.0986
   59MOL   H53443570   6.578   3.994   4.906  1.6400  1.6180  2.4385
   59MOL   H53543571   6.440   3.896   4.937  0.2837  0.3510  0.2005
   59MOL   H53643572   6.560   4.074   5.164  0.2751  0.5394 -1.4369
   59MOL   H53743573   6.462   3.931   5.176 -0.7834 -1.5021 -2.7901
   59MOL   H53843574   6.736   3.916   5.060  0.0558 -0.1554 -0.6608
   59MOL   H53943575   6.621   3.784   5.072 -0.6237 -0.3053  2.7238
   59MOL   H54043576   6.743   3.912   5.325  2.3315 -0.2658 -1.3214
   59MOL   H54143577   6.620   3.817   5.324  0.6903  0.9674  1.5270
   59MOL   H54243578   6.765   3.626   5.233  3.5078 -2.3699  1.0314
   59MOL   H54343579   6.832   3.705   5.380 -1.8784 -1.4141  0.4775
   59MOL   H54443580   7.022   3.694   5.260 -0.4458 -1.4005 -0.5328
   59MOL   H54543581   6.980   3.846   5.209  0.7771 -0.3195  0.9719
   59MOL   H54643582   6.878   3.768   4.996  0.7001  1.1706 -0.1190
   59MOL   H54743583   6.901   3.600   5.057  2.0422 -0.6982  0.1276
   59MOL   H54843584   7.064   3.656   4.900 -1.2776  0.6125 -0.2704
   59MOL   H54943585   7.136   3.623   5.059 -0.9416 -1.3682 -1.0752
   59MOL   H55043586   7.174   3.859   5.109 -0.2126 -0.7800  0.3162
   59MOL   H55143587   7.112   3.901   4.948 -2.3344 -1.0528  0.5730
   59MOL   H55243588   7.299   3.812   4.840 -2.0011 -1.6076 -0.6415
   59MOL   H55343589   7.362   3.720   4.967  1.9192  0.8409 -0.8534
   59MOL   H55443590   7.408   3.941   5.100  1.0132  2.7701  0.7722
   59MOL   H55543591   7.339   4.015   4.954 -1.4489 -0.8757  0.9742
   59MOL   H55643592   7.579   3.837   4.943 -0.9940 -0.4313  0.8366
   59MOL   C55743593   7.555   3.987   4.813  0.7612 -0.4233  0.4498
   59MOL   O55843594   7.481   4.069   4.762 -0.3534 -0.1200  0.0289
   59MOL   C55943595   7.686   3.957   4.742 -0.3391 -0.2680 -0.7965
   59MOL   C56043596   7.688   3.920   4.593 -0.2244  0.0990 -0.4903
   59MOL   C56143597   7.626   3.778   4.579  0.2975 -0.1766 -1.1228
   59MOL   C56243598   7.565   3.745   4.447 -0.4847 -0.0675 -0.5378
   59MOL   C56343599   7.662   3.768   4.330  0.4927 -0.2149  0.4525
   59MOL   C56443600   7.589   3.780   4.203 -0.1555  0.0559  0.8635
   59MOL   C56543601   7.689   3.798   4.078  0.3420 -0.4596  0.0116
   59MOL   C56643602   7.621   3.881   3.973 -0.3524  0.6572  0.6243
   59MOL   C56743603   0.030   3.938   3.870  0.8455  0.3689 -0.2864
   59MOL   C56843604   7.656   3.985   3.743  0.5419  0.2554  0.6106
   59MOL   C56943605   7.609   3.873   3.646 -0.0160  0.1041  0.2925
   59MOL   N57043606   0.014   3.763   3.627  0.3224 -0.7206  0.3435
   59MOL   H57143607   0.054   3.890   4.802  1.5798  3.2692  1.3402
   59MOL   H57243608   0.044   4.053   4.751  0.0706 -0.5560 -0.0268
   59MOL   H57343609   7.649   3.997   4.527  0.1117  1.4329  0.8243
   59MOL   H57443610   0.102   3.924   4.582 -0.0901 -0.0223  0.6610
   59MOL   H57543611   7.558   3.754   4.661 -0.3828 -0.8868 -1.8818
   59MOL   H57643612   0.017   3.712   4.598  1.2667  0.6624 -2.4959
   59MOL   H57743613   7.533   3.641   4.436  2.1559 -1.0743  1.0571
   59MOL   H57843614   7.472   3.801   4.438 -0.6823 -0.5007 -1.3668
   59MOL   H57943615   0.040   3.686   4.328  0.6147 -0.0935 -1.5436
   59MOL   H58043616   0.025   3.860   4.344 -0.9360  0.7953 -0.2759
   59MOL   H58143617   7.520   3.864   4.213  0.0379  0.7145 -2.7064
   59MOL   H58243618   7.538   3.685   4.189  1.4160 -0.5819 -0.7484
   59MOL   H58343619   0.023   3.701   4.036 -1.6918 -0.4550 -1.4057
   59MOL   H58443620   0.081   3.851   4.120 -0.9370  0.1188  1.9537
   59MOL   H58543621   7.574   3.965   4.025 -1.9504 -1.2072  2.3150
   59MOL   H58643622   7.537   3.829   3.927  1.0938 -1.0875 -0.0965
   59MOL   H58743623   0.116   3.875   3.848  1.0013  0.2253  0.7035
   59MOL   H58843624   0.071   4.024   3.924  0.3164 -0.6704  1.8321
   59MOL   H58943625   0.026   4.055   3.691  0.9995 -0.5633  0.0651
   59MOL   H59043626   7.570   4.048   3.769 -1.3503 -2.2958  0.7364
   59MOL   H59143627   7.590   3.906   3.544 -0.9180 -3.1263 -0.6577
   59MOL   H59243628   7.514   3.832   3.679 -0.1854  0.2110 -0.0628
   59MOL   H59343629   0.099   3.792   3.583 -0.9422  1.2235 -0.8811
   59MOL   C59443630   0.008   3.649   3.695  0.3504  0.1089  0.6746
   59MOL   O59543631   7.605   3.612   3.760  0.4115 -0.2478 -0.0816
   59MOL   C59643632   0.134   3.567   3.685  0.2256  0.0069 -0.0101
   59MOL   C59743633   0.194   3.495   3.813 -0.1435  0.4704 -0.4251
   59MOL   C59843634   0.162   3.339   3.818  0.1871 -0.6829  0.0398
   59MOL   C59943635   0.234   3.267   3.940  0.5016  0.4689  0.1806
   59MOL   C60043636   0.173   3.124   3.952 -0.0904  0.1750  0.4394
   59MOL   C60143637   0.231   3.038   4.069 -0.5402  0.4888  0.3400
   59MOL   C60243638   0.392   3.018   4.067 -0.1134  0.0820 -0.2111
   59MOL   C60343639   0.458   2.927   4.175  0.5007  0.5364  0.2499
   59MOL   C60443640   0.434   2.783   4.154  0.1431  0.3874 -0.7336
   59MOL   C60543641   0.512   2.700   4.266 -0.7363  0.5620  0.3494
   59MOL   C60643642   0.483   2.552   4.277  0.6570  0.1417  0.4740
   59MOL   N60743643   0.346   2.531   4.314  0.5027 -0.4442 -0.7754
   59MOL   H60843644   0.213   3.629   3.642  1.7641 -1.7074  0.2894
   59MOL   H60943645   0.117   3.507   3.596 -0.6012  0.3252 -0.0659
   59MOL   H61043646   0.300   3.513   3.829  0.0135 -0.3111 -0.5785
   59MOL   H61143647   0.142   3.539   3.899  0.2873 -1.3260  0.7620
   59MOL   H61243648   0.191   3.289   3.725  0.4143  0.9964 -0.8088
   59MOL   H61343649   0.056   3.320   3.831  0.0368  0.3594  0.3649
   59MOL   H61443650   0.342   3.266   3.927  0.6390  1.0994  1.2254
   59MOL   H61543651   0.211   3.327   4.029 -0.5971  1.7364 -0.9444
   59MOL   H61643652   0.194   3.073   3.858  0.6812 -1.3735  1.4403
   59MOL   H61743653   0.065   3.122   3.942  0.0741  0.2108 -1.5719
   59MOL   H61843654   0.182   2.942   4.086  0.0357  0.3664  1.3255
   59MOL   H61943655   0.205   3.095   4.158 -1.2856  0.1038  0.3749
   59MOL   H62043656   0.431   3.119   4.071 -2.0101  0.7474  2.0988
   59MOL   H62143657   0.417   2.987   3.965  2.6598  0.3682  0.3335
   59MOL   H62243658   0.433   2.953   4.278  0.7518 -1.0263  0.7188
   59MOL   H62343659   0.565   2.943   4.176  0.9087 -1.4995 -2.4238
   59MOL   H62443660   0.459   2.746   4.055 -1.0010 -0.5580 -0.6798
   59MOL   H62543661   0.333   2.759   4.184 -0.6551  0.3187 -3.3716
   59MOL   H62643662   0.481   2.748   4.358  0.1360  2.4225 -0.3000
   59MOL   H62743663   0.619   2.715   4.253 -0.6842  0.0226  0.1411
   59MOL   H62843664   0.546   2.510   4.354  3.5823  0.6201 -1.5845
   59MOL   H62943665   0.496   2.505   4.179 -0.7927 -2.6279  1.5816
   59MOL   H63043666   0.297   2.605   4.362 -0.9932 -1.6439 -0.3845
   59MOL   C63143667   0.284   2.412   4.326  0.3046 -0.7158 -0.0187
   59MOL   O63243668   0.343   2.313   4.288 -0.4443  1.1019 -0.4012
   59MOL   C63343669   0.139   2.405   4.375  0.0833  0.2652 -0.2551
   59MOL   C63443670   0.102   2.257   4.414 -0.7188 -0.8032  0.0654
   59MOL   C63543671   0.175   2.197   4.540  0.1971  0.2216 -0.3257
   59MOL   C63643672   0.162   2.045   4.562  0.2802  0.2567 -0.2294
   59MOL   C63743673   0.228   1.964   4.446 -0.1774 -0.1626  0.2908
   59MOL   C63843674   0.216   1.809   4.464  0.2876 -0.3411  0.4156
   59MOL   C63943675   0.293   1.738   4.351  0.0890  0.2699 -0.1768
   59MOL   C64043676   0.261   1.588   4.338 -0.1122 -0.3536 -0.4005
   59MOL   C64143677   0.336   1.510   4.229 -0.3217  0.7501 -0.1553
   59MOL   C64243678   0.489   1.511   4.257  0.2225  0.0570  0.1335
   59MOL   C64343679   0.531   1.422   4.372  0.0622 -0.7775  0.0861
   59MOL   N64443680   0.500   1.484   4.499 -0.2184 -0.0476  0.0517
   59MOL   H64543681   0.066   2.431   4.298  1.0095 -0.3891 -1.3761
   59MOL   H64643682   0.123   2.471   4.459  2.3867 -0.6667  0.9622
   59MOL   H64743683   7.691   2.260   4.441 -0.9523  0.8160 -0.9666
   59MOL   H64843684   0.120   2.194   4.326 -0.0413 -2.2591  1.2126
   59MOL   H64943685   0.143   2.249   4.630 -0.3339  2.3883 -1.7244
   59MOL   H65043686   0.283   2.213   4.540  0.1406  0.6333 -1.5651
   59MOL   H65143687   0.218   2.022   4.653 -0.0058 -0.2879 -0.1910
   59MOL   H65243688   0.054   2.035   4.577  0.3999 -0.3772  0.2044
   59MOL   H65343689   0.334   1.985   4.461  0.4391 -2.3803 -0.6860
   59MOL   H65443690   0.194   2.006   4.351  0.2908 -0.4383 -0.0062
   59MOL   H65543691   0.109   1.785   4.463  0.1927  0.1118 -0.3679
   59MOL   H65643692   0.246   1.772   4.562 -1.5637  0.0685  1.1610
   59MOL   H65743693   0.398   1.759   4.373  1.0400 -0.3120 -3.7639
   59MOL   H65843694   0.266   1.785   4.256 -3.2853 -1.4704 -0.1291
   59MOL   H65943695   0.154   1.589   4.317 -0.7426  1.9856  2.6362
   59MOL   H66043696   0.271   1.540   4.435  0.5701 -3.3485 -1.8536
   59MOL   H66143697   0.315   1.561   4.134  1.0830  0.4408 -0.6418
   59MOL   H66243698   0.285   1.414   4.228 -0.2140  0.6937 -0.4399
   59MOL   H66343699   0.522   1.614   4.271 -1.9367  0.3524  3.4363
   59MOL   H66443700   0.546   1.482   4.169  1.3180  1.4005  0.3882
   59MOL   H66543701   0.636   1.395   4.364  0.1218 -0.2945 -0.7972
   59MOL   H66643702   0.461   1.338   4.372  0.0214 -0.7624 -1.7439
   59MOL   H66743703   0.409   1.462   4.539 -0.7625  0.5726 -0.8390
   59MOL   C66843704   0.590   1.556   4.562  1.1174  0.0942 -0.7962
   59MOL   O66943705   0.703   1.578   4.523  0.3302 -0.0814  0.2925
   59MOL   C67043706   0.527   1.641   4.683 -0.0837  0.7008 -0.3912
   59MOL   C67143707   0.635   1.710   4.765 -0.3180  0.3001 -0.3752
   59MOL   C67243708   0.582   1.823   4.862 -0.3539  0.1657  0.5719
   59MOL   C67343709   0.702   1.914   4.912  0.2607 -0.2597 -0.2614
   59MOL   C67443710   0.664   2.022   5.012 -0.1815  0.3561  0.0503
   59MOL   C67543711   0.784   2.121   5.034  0.0113 -0.8754 -0.0883
   59MOL   C67643712   0.749   2.250   5.103 -0.6729 -0.2479  0.4425
   59MOL   C67743713   0.873   2.322   5.144 -0.2194  0.3825 -0.1543
   59MOL   C67843714   0.834   2.452   5.220 -0.3710 -0.3837 -0.0573
   59MOL   C67943715   0.961   2.520   5.272 -0.2025  0.8742  0.1454
   59MOL   C68043716   0.925   2.649   5.343 -0.3234  0.2583 -0.1705
   59MOL   N68143717   1.053   2.706   5.399 -0.1762 -0.5975 -0.0615
   59MOL   H68243718   0.453   1.585   4.740 -0.7840  0.8086 -1.1896
   59MOL   H68343719   0.457   1.715   4.645 -2.7141 -0.8851  1.2343
   59MOL   H68443720   0.682   1.635   4.829  0.0335  0.1320 -0.8292
   59MOL   H68543721   0.716   1.753   4.707  1.1573  0.4767  1.7526
   59MOL   H68643722   0.519   1.784   4.942  1.2183  0.5008  2.0003
   59MOL   H68743723   0.515   1.883   4.800 -0.7494 -0.0966  0.7405
   59MOL   H68843724   0.772   1.855   4.971  1.6650  1.8942  0.2884
   59MOL   H68943725   0.757   1.962   4.830 -0.6556  1.3992  0.0707
   59MOL   H69043726   0.620   1.974   5.099  0.4642 -1.4730 -0.6152
   59MOL   H69143727   0.583   2.077   4.963 -1.7001 -0.0666  2.0353
   59MOL   H69243728   0.829   2.135   4.935  0.2998 -1.5584 -0.0613
   59MOL   H69343729   0.864   2.065   5.082  1.5346 -0.3513 -1.9474
   59MOL   H69443730   0.684   2.228   5.187 -1.5398  1.2404  0.1796
   59MOL   H69543731   0.686   2.303   5.031  0.6013 -0.3547 -0.7717
   59MOL   H69643732   0.936   2.342   5.058 -0.7206 -0.0658 -0.6295
   59MOL   H69743733   0.940   2.263   5.207  0.4960  0.0081 -1.2454
   59MOL   H69843734   0.757   2.427   5.293  0.8372  0.8997  1.7048
   59MOL   H69943735   0.786   2.518   5.148 -1.5520 -1.2554 -0.0807
   59MOL   H70043736   1.031   2.527   5.190 -0.3965  0.1467 -0.0849
   59MOL   H70143737   1.018   2.461   5.344  1.0767  0.8311 -0.9030
   59MOL   H70243738   0.858   2.631   5.427  1.6459 -1.7643  1.0582
   59MOL   H70343739   0.891   2.727   5.276  0.8620  3.2959  2.6415
   59MOL   H70443740   1.132   2.643   5.402 -0.1651 -0.5503  0.6255
   59MOL   C70543741   1.086   2.833   5.413  0.0650  0.5488 -0.3060
   59MOL   O70643742   1.012   2.923   5.388 -0.4473 -0.6828  0.0137
   59MOL   C70743743   1.223   2.861   5.463 -0.2198  0.2427  0.1906
   59MOL   C70843744   1.240   2.993   5.546  0.1968  0.1405 -0.1223
   59MOL   C70943745   1.266   3.115   5.454 -0.5006 -0.5410 -0.1261
   59MOL   C71043746   1.281   3.257   5.522  0.5956  0.3809 -0.3462
   59MOL   C71143747   1.152   3.316   5.586 -0.2685  0.6097 -0.4121
   59MOL   C71243748   1.184   3.456   5.636  0.5045  0.4171 -0.4536
   59MOL   C71343749   1.064   3.529   5.694 -0.0984 -0.3306 -0.0711
   59MOL   C71443750   1.087   3.668   5.759  0.4482  0.2786 -0.2905
   59MOL   C71543751   0.958   3.726   5.825 -0.0772  0.0848 -0.3533
   59MOL   C71643752   0.984   3.871   5.871  0.3886  0.8279  0.1828
   59MOL   C71743753   0.849   3.934   5.911 -0.4556 -0.6757 -0.2776
   59MOL   N71843754   0.800   4.002   5.787 -0.0806  0.3647  0.0352
   59MOL   H71943755   1.297   2.845   5.385 -0.1360 -2.3008  0.7320
   59MOL   H72043756   1.254   2.786   5.536 -1.3806  1.2596  1.7385
   59MOL   H72143757   1.148   3.009   5.602 -0.0845 -3.2354  0.5002
   59MOL   H72243758   1.315   2.978   5.623  1.9217 -0.9399 -1.9747
   59MOL   H72343759   1.187   3.119   5.380 -1.3863 -2.9519  0.6495
   59MOL   H72443760   1.352   3.107   5.387  1.0206  0.0245  1.7003
   59MOL   H72543761   1.361   3.253   5.596 -0.2671 -0.0115  0.5749
   59MOL   H72643762   1.315   3.321   5.440  2.2534 -1.5907 -1.2437
   59MOL   H72743763   1.113   3.259   5.670 -0.1692 -2.9924 -2.7133
   59MOL   H72843764   1.075   3.314   5.508 -0.8976  0.7796  0.1938
   59MOL   H72943765   1.234   3.512   5.557  0.5580  1.0653  0.0450
   59MOL   H73043766   1.256   3.452   5.717  2.1335  1.5474 -1.8151
   59MOL   H73143767   1.008   3.462   5.759 -1.1863  0.8707  0.2488
   59MOL   H73243768   0.987   3.557   5.623  0.9610 -1.7438 -1.8315
   59MOL   H73343769   1.131   3.728   5.680 -0.7413 -1.0983 -2.0448
   59MOL   H73443770   1.161   3.649   5.838  1.0102 -2.9127 -1.4894
   59MOL   H73543771   0.911   3.668   5.905  1.6919 -0.6310  0.2034
   59MOL   H73643772   0.876   3.724   5.754 -0.8581 -0.2049  0.5456
   59MOL   H73743773   1.025   3.934   5.791  0.7278  2.8913  1.9451
   59MOL   H73843774   1.053   3.867   5.955 -0.0036 -0.2296  0.4643
   59MOL   H73943775   0.868   4.009   5.987 -0.7031 -0.3209 -0.5584
   59MOL   H74043776   0.775   3.859   5.938 -1.2151  0.6963  1.4936
   59MOL   H74143777   0.872   4.054   5.739 -1.0655 -0.8909 -2.8714
   59MOL   H74243778   0.757   3.930   5.731  1.0840 -0.5098  0.2368
   60MOL     C143779   6.198   0.200   6.090  0.4566  0.3867 -0.6784
   60MOL     O243780   6.291   0.278   6.113  0.4130  0.2980  0.7993
   60MOL     C343781   6.059   0.247   6.068 -0.5374  0.0893 -0.2211
   60MOL     C443782   6.001   0.326   6.193 -0.8472  0.0328  0.5031
   60MOL     C543783   5.874   0.396   6.146  0.8871  0.1223  0.6216
   60MOL     C643784   5.795   0.475   6.254 -0.4594 -0.7989  0.5758
   60MOL     C743785   5.854   0.610   6.289  0.0172  0.4113 -0.0852
   60MOL     C843786   5.750   0.686   6.373 -0.1851  0.4168 -0.0836
   60MOL     C943787   5.783   0.836   6.372  0.0557  0.5908  0.7745
   60MOL    C1043788   5.706   0.917   6.479 -0.1762 -0.7108  0.3949
   60MOL    C1143789   5.751   1.060   6.483 -0.3798  0.4635 -0.3362
   60MOL    C1243790   5.654   1.144   6.566  0.3914 -0.4796  0.0528
   60MOL    C1343791   5.696   1.292   6.577 -0.1863 -0.5334  0.0190
   60MOL    N1443792   5.582   1.368   6.627 -0.0710  0.6810  0.0743
   60MOL    H1543793   5.993   0.162   6.048  0.0805 -1.1028  2.5421
   60MOL    H1643794   6.060   0.314   5.982  1.8279  0.0512 -0.2636
   60MOL    H1743795   5.975   0.277   6.287  2.3602  0.0992  1.5076
   60MOL    H1843796   6.076   0.397   6.231  1.0201 -0.7854 -1.5150
   60MOL    H1943797   5.805   0.326   6.099  0.5841 -0.2265  1.5871
   60MOL    H2043798   5.891   0.459   6.058 -1.8273  0.6498  0.4317
   60MOL    H2143799   5.702   0.488   6.200  2.0146  0.3246 -3.6669
   60MOL    H2243800   5.779   0.407   6.338 -0.8626 -1.5757 -0.1303
   60MOL    H2343801   5.895   0.660   6.201  1.0565 -0.4194 -0.0731
   60MOL    H2443802   5.944   0.596   6.349  0.8759 -2.1485 -1.9288
   60MOL    H2543803   5.738   0.641   6.471 -0.5067  0.7368  0.0242
   60MOL    H2643804   5.650   0.684   6.328 -1.6535 -1.2832  3.1075
   60MOL    H2743805   5.758   0.877   6.275 -0.5878 -1.5183  0.0077
   60MOL    H2843806   5.889   0.857   6.381 -0.5793  3.1528  2.9677
   60MOL    H2943807   5.718   0.868   6.576  0.3260  0.1475  0.7817
   60MOL    H3043808   5.599   0.903   6.463 -0.4508  0.4361  1.1634
   60MOL    H3143809   5.749   1.101   6.382  1.7266 -0.3083 -0.7228
   60MOL    H3243810   5.854   1.067   6.519 -0.7979 -0.5780  1.0913
   60MOL    H3343811   5.647   1.110   6.669  1.5911 -1.0030 -0.0286
   60MOL    H3443812   5.554   1.126   6.527 -0.0534 -0.4444  1.1635
   60MOL    H3543813   5.727   1.325   6.478 -2.8147 -2.1292 -1.4106
   60MOL    H3643814   5.776   1.311   6.648  1.2409  0.0830 -1.7352
   60MOL    H3743815   5.490   1.330   6.613  0.5535 -0.5387 -0.7482
   60MOL    H3843816   6.208   0.092   6.093  1.3664  0.4571 -0.8149
   60MOL    C3943817   5.590   1.495   6.678  0.2041  1.1378  0.0092
   60MOL    O4043818   5.700   1.556   6.679  0.4751  0.4313 -0.3640
   60MOL    C4143819   5.464   1.550   6.736  0.0275  0.4377 -0.1567
   60MOL    C4243820   5.453   1.540   6.890  0.4649 -0.6570 -0.3292
   60MOL    C4343821   5.429   1.397   6.957 -0.1806  0.0778  0.1357
   60MOL    C4443822   5.294   1.332   6.909  0.3823  0.3453  0.2308
   60MOL    C4543823   5.255   1.201   6.982 -0.0001 -0.4623 -0.0920
   60MOL    C4643824   5.137   1.122   6.920  0.0300 -0.8301  0.3718
   60MOL    C4743825   5.154   0.982   6.956  0.1310  0.3899 -0.8914
   60MOL    C4843826   5.060   0.895   6.875  0.1378 -0.2694 -0.0279
   60MOL    C4943827   4.915   0.887   6.930 -0.1725  0.4729  0.3056
   60MOL    C5043828   4.818   0.805   6.845 -0.1967  0.2597  0.5747
   60MOL    C5143829   4.672   0.838   6.872 -0.1406  0.0500 -0.2180
   60MOL    N5243830   4.626   0.785   7.001  0.5060 -0.9264  0.0528
   60MOL    H5343831   5.376   1.499   6.699 -0.6458  0.2833  1.5744
   60MOL    H5443832   5.456   1.655   6.708 -0.2412 -0.3633 -3.2005
   60MOL    H5543833   5.552   1.572   6.924  0.5325 -0.9636 -0.2317
   60MOL    H5643834   5.385   1.613   6.932  0.8706  0.0502 -0.8864
   60MOL    H5743835   5.423   1.404   7.065 -0.2896 -1.7599  0.2738
   60MOL    H5843836   5.513   1.331   6.936 -0.6524 -0.6116  0.4008
   60MOL    H5943837   5.218   1.396   6.953  1.2239  0.1340  2.0598
   60MOL    H6043838   5.293   1.319   6.801  3.3998  0.6987  0.1067
   60MOL    H6143839   5.236   1.222   7.087  2.6113 -0.9927  0.5379
   60MOL    H6243840   5.346   1.141   6.982  0.5201  0.3067 -0.3482
   60MOL    H6343841   5.139   1.133   6.812 -1.9207  1.2908  0.4965
   60MOL    H6443842   5.037   1.161   6.941 -0.0882 -0.6015 -0.5809
   60MOL    H6543843   5.129   0.967   7.061 -1.6522  1.5254 -1.1195
   60MOL    H6643844   5.254   0.942   6.940 -0.1159 -0.6175  0.0239
   60MOL    H6743845   5.097   0.793   6.867  0.0991 -0.3840  1.2146
   60MOL    H6843846   5.068   0.932   6.772  0.0415  0.2793  0.1571
   60MOL    H6943847   4.884   0.991   6.932  0.7034  0.7095  1.7611
   60MOL    H7043848   4.931   0.858   7.033 -1.6541  1.2926  0.7784
   60MOL    H7143849   4.840   0.698   6.850  0.8816  0.5199  1.3688
   60MOL    H7243850   4.838   0.837   6.743 -0.8641  1.4559  0.8033
   60MOL    H7343851   4.614   0.795   6.791 -0.2189 -1.1692  0.4661
   60MOL    H7443852   4.657   0.946   6.867  1.6559  0.3510  0.5416
   60MOL    H7543853   4.694   0.793   7.075  0.2983 -1.2484  0.2809
   60MOL    C7643854   4.506   0.736   7.034 -0.2436  0.1963  0.6958
   60MOL    O7743855   4.425   0.706   6.945  0.1031 -0.3576 -0.1862
   60MOL    C7843856   4.467   0.718   7.176  0.1263  0.5917 -0.6219
   60MOL    C7943857   4.322   0.658   7.190 -0.7042 -0.3283  0.4823
   60MOL    C8043858   4.216   0.758   7.165  0.5553  0.3891  0.5098
   60MOL    C8143859   4.072   0.697   7.144  0.4133 -0.6688 -0.5151
   60MOL    C8243860   3.966   0.807   7.150 -0.3754 -0.1319  0.1037
   60MOL    C8343861   3.953   0.882   7.016  0.3490  0.0879  0.1508
   60MOL    C8443862   3.849   0.987   7.020  1.1723 -0.3890 -0.1073
   60MOL    C8543863   3.852   1.086   6.899  0.3046 -0.0965  0.4909
   60MOL    C8643864   3.733   1.172   6.869  0.2017 -0.0598 -0.2526
   60MOL    C8743865   3.764   1.298   6.783  1.0665  0.0220 -0.0606
   60MOL    C8843866   3.843   1.408   6.859 -0.4276 -0.8092 -0.7271
   60MOL    N8943867   3.921   1.492   6.765  0.9150 -0.6101 -0.5678
   60MOL    H9043868   4.481   0.812   7.230  0.4888  0.3517 -0.2940
   60MOL    H9143869   4.531   0.636   7.210 -0.5247  0.3251 -0.0473
   60MOL    H9243870   4.303   0.580   7.116 -0.6715  0.9221 -0.8569
   60MOL    H9343871   4.314   0.611   7.288  0.1310 -0.9109  0.2817
   60MOL    H9443872   4.237   0.822   7.080  0.9858  0.4575  0.6690
   60MOL    H9543873   4.218   0.832   7.246 -0.6107  0.5820  0.3815
   60MOL    H9643874   4.064   0.636   7.054  1.7095 -1.6886  0.0472
   60MOL    H9743875   4.037   0.630   7.222 -0.4996 -0.4645 -0.7486
   60MOL    H9843876   3.987   0.884   7.223  0.5971  0.8675 -1.1995
   60MOL    H9943877   3.870   0.765   7.178  0.1546 -1.7843 -0.4858
   60MOL   H10043878   3.953   0.818   6.928  1.4936 -1.0501  0.9581
   60MOL   H10143879   4.050   0.930   7.001  0.4179 -0.3952 -1.0085
   60MOL   H10243880   3.867   1.037   7.116  3.2314 -0.5386 -0.3894
   60MOL   H10343881   3.752   0.938   7.029  2.1398 -2.6989 -1.8131
   60MOL   H10443882   3.852   1.021   6.811  2.0598 -1.0774  1.2141
   60MOL   H10543883   3.941   1.147   6.911 -1.1353  2.2236 -0.3081
   60MOL   H10643884   3.693   1.206   6.965  1.0034 -0.7833  0.3483
   60MOL   H10743885   3.649   1.106   6.845 -0.3723  0.4349  0.3645
   60MOL   H10843886   3.675   1.337   6.734  0.3690  0.4179  1.4795
   60MOL   H10943887   3.814   1.250   6.699  0.4689 -0.2635 -0.2577
   60MOL   H11043888   3.921   1.349   6.908  1.4154  1.4718 -0.7894
   60MOL   H11143889   3.792   1.479   6.924 -0.3175 -0.9242 -0.5147
   60MOL   H11243890   3.912   1.466   6.668 -2.4138 -2.6411  0.2243
   60MOL   C11343891   4.019   1.574   6.797  0.5628  0.8755 -0.5873
   60MOL   O11443892   4.058   1.595   6.914 -0.1726 -0.2566 -0.0572
   60MOL   C11543893   4.101   1.646   6.692 -0.0745 -0.8042  0.1961
   60MOL   C11643894   4.060   1.790   6.680 -0.4862 -0.1834 -0.5985
   60MOL   C11743895   4.149   1.887   6.592  0.4214  0.4341  0.3969
   60MOL   C11843896   4.158   1.865   6.447  0.0227  0.0098 -0.3280
   60MOL   C11943897   4.239   1.985   6.389  0.2033  0.2541  0.5985
   60MOL   C12043898   4.257   1.951   6.230  0.3946  0.1498 -0.4606
   60MOL   C12143899   4.384   2.015   6.167 -0.6104 -0.0965  0.0242
   60MOL   C12243900   4.384   2.005   6.008  0.0036 -0.4032  0.1035
   60MOL   C12343901   4.264   2.077   5.944 -0.6889  0.6090 -0.8512
   60MOL   C12443902   4.161   1.976   5.902 -0.0825  0.0309  0.2269
   60MOL   C12543903   4.034   2.045   5.861 -0.6021 -0.5877  0.0584
   60MOL   N12643904   3.959   2.111   5.972  0.1652  0.3269 -0.1424
   60MOL   H12743905   4.096   1.614   6.588  2.4339 -0.8822  0.0502
   60MOL   H12843906   4.207   1.642   6.720  0.8121 -0.9788 -3.0110
   60MOL   H12943907   3.959   1.796   6.639 -0.5658  1.1342 -0.2286
   60MOL   H13043908   4.052   1.836   6.778  1.5073 -0.2969 -0.3563
   60MOL   H13143909   4.250   1.896   6.632  1.4944 -0.4646 -1.9785
   60MOL   H13243910   4.100   1.984   6.604 -0.3600 -0.1449  1.9790
   60MOL   H13343911   4.203   1.766   6.433  0.7279  0.0561  1.5492
   60MOL   H13443912   4.056   1.861   6.408  0.2840 -1.1717 -0.9246
   60MOL   H13543913   4.339   1.984   6.434 -0.5849 -1.1320  2.3869
   60MOL   H13643914   4.178   2.073   6.407 -1.3894 -0.2626 -1.9372
   60MOL   H13743915   4.166   1.992   6.184  0.3784  0.3687 -0.2352
   60MOL   H13843916   4.263   1.845   6.207  0.0935 -0.0655  0.4402
   60MOL   H13943917   4.475   1.970   6.205 -0.5788  1.0692  1.3830
   60MOL   H14043918   4.380   2.120   6.197  2.4277  0.3364 -0.8960
   60MOL   H14143919   4.374   1.899   5.985 -1.0175 -0.0031 -1.3732
   60MOL   H14243920   4.480   2.032   5.963 -0.3961 -0.4002 -0.7470
   60MOL   H14343921   4.310   2.134   5.863  2.1333 -1.9473 -1.1653
   60MOL   H14443922   4.226   2.155   6.010 -0.3072  2.7338 -3.0811
   60MOL   H14543923   4.130   1.913   5.985  1.1916 -2.2989 -1.0235
   60MOL   H14643924   4.190   1.907   5.822  0.1176  1.3938 -0.8921
   60MOL   H14743925   3.959   1.974   5.828 -0.3908 -0.3730 -0.8880
   60MOL   H14843926   4.068   2.104   5.776 -0.5761  0.0832  0.5258
   60MOL   H14943927   3.921   2.060   6.051  2.4583 -0.6287  0.4045
   60MOL   C15043928   3.931   2.240   5.975 -0.0268  0.7627  0.3355
   60MOL   O15143929   3.965   2.314   5.887  0.0637  0.3960  0.5029
   60MOL   C15243930   3.846   2.299   6.091 -0.7557 -0.4615  0.0429
   60MOL   C15343931   3.926   2.401   6.178  0.5426 -0.1135 -0.0654
   60MOL   C15443932   4.035   2.327   6.262  0.0380  0.1007  0.2527
   60MOL   C15543933   4.104   2.432   6.350  0.8655  0.2459 -0.5560
   60MOL   C15643934   4.178   2.363   6.461 -0.5819 -0.6298 -0.5566
   60MOL   C15743935   4.084   2.311   6.569 -0.0666  0.2083  0.2116
   60MOL   C15843936   4.153   2.253   6.698  0.9703 -0.5556 -0.6779
   60MOL   C15943937   4.042   2.190   6.799 -0.3416  0.7573  0.0067
   60MOL   C16043938   3.956   2.299   6.865 -0.1362 -0.0626  0.5974
   60MOL   C16143939   3.859   2.244   6.964 -0.2183  0.5341 -0.3285
   60MOL   C16243940   3.774   2.354   7.030 -0.2338 -0.5946 -0.4643
   60MOL   N16343941   3.685   2.315   7.140 -0.5508 -0.0289 -0.5798
   60MOL   H16443942   3.796   2.223   6.151  1.5109 -1.0969  1.2042
   60MOL   H16543943   3.763   2.347   6.039  0.0135  0.3710 -0.4377
   60MOL   H16643944   3.961   2.484   6.116  0.0855 -0.2668 -0.5408
   60MOL   H16743945   3.858   2.442   6.253  0.3465 -0.1347 -0.2302
   60MOL   H16843946   4.111   2.271   6.207 -0.7097 -0.9831  0.3055
   60MOL   H16943947   3.994   2.247   6.323 -0.5083 -0.9328 -1.4128
   60MOL   H17043948   4.165   2.501   6.292 -0.4014  0.1354 -2.0753
   60MOL   H17143949   4.025   2.492   6.396  1.0832  1.7072 -2.0286
   60MOL   H17243950   4.247   2.426   6.516  0.6380 -2.6819  0.3411
   60MOL   H17343951   4.245   2.286   6.421  1.1197  1.0190 -0.9293
   60MOL   H17443952   4.028   2.226   6.532 -0.8174 -0.5544  3.0320
   60MOL   H17543953   4.013   2.390   6.590  0.0261 -0.2184  2.2348
   60MOL   H17643954   4.212   2.327   6.751 -0.0408  0.0616 -0.4051
   60MOL   H17743955   4.222   2.172   6.674 -0.3924 -1.6429 -1.0833
   60MOL   H17843956   4.092   2.125   6.871  1.7313 -0.4340 -2.4522
   60MOL   H17943957   3.984   2.113   6.750  2.3295 -0.2988 -1.6460
   60MOL   H18043958   3.897   2.354   6.791 -0.3551 -0.9100  0.1433
   60MOL   H18143959   4.026   2.368   6.913  0.1024 -0.2079  0.4556
   60MOL   H18243960   3.914   2.193   7.043 -1.1305  1.9119  1.2206
   60MOL   H18343961   3.797   2.163   6.925  1.3016 -0.3230 -1.0116
   60MOL   H18443962   3.708   2.406   6.960  0.2970  0.6593 -0.0540
   60MOL   H18543963   3.836   2.437   7.063 -1.7179  0.9866 -1.5207
   60MOL   H18643964   3.714   2.239   7.200  1.3012 -1.2383 -2.8955
   60MOL   C18743965   3.564   2.369   7.171 -0.2355 -0.5702  0.7631
   60MOL   O18843966   3.511   2.449   7.096  0.6749 -0.1948 -0.1472
   60MOL   C18943967   3.492   2.317   7.296  0.5211 -0.3057  0.7449
   60MOL   C19043968   3.372   2.397   7.334 -0.5090  0.5068 -0.1485
   60MOL   C19143969   3.297   2.323   7.448 -0.1193  0.5358  0.0647
   60MOL   C19243970   3.154   2.386   7.461 -0.3688  0.3702  0.2148
   60MOL   C19343971   3.046   2.291   7.526  0.1568  0.0363  0.2744
   60MOL   C19443972   2.907   2.364   7.549 -0.2707  0.6336 -0.5141
   60MOL   C19543973   2.907   2.487   7.645 -0.1605  0.4928  0.8739
   60MOL   C19643974   2.768   2.559   7.657  0.3523  0.7140  0.0455
   60MOL   C19743975   2.653   2.473   0.009  0.6283 -0.7690  0.5191
   60MOL   C19843976   2.516   2.553   0.010 -0.1082 -0.3869  0.2355
   60MOL   C19943977   2.401   2.476   0.074 -0.2563 -0.4014  0.1955
   60MOL   N20043978   2.290   2.558   0.119 -0.3571  0.6011 -0.1137
   60MOL   H20143979   3.550   2.325   7.389  0.3124  2.2568  0.6946
   60MOL   H20243980   3.460   2.216   7.272 -2.2087  0.3762  1.3335
   60MOL   H20343981   3.399   2.498   7.362 -0.1350  0.1063  0.9613
   60MOL   H20443982   3.316   2.408   7.241  2.0489 -0.9725 -1.9402
   60MOL   H20543983   3.354   2.333   7.540  0.3937 -0.2089 -0.1630
   60MOL   H20643984   3.282   2.217   7.426  0.1765  1.0905 -3.0377
   60MOL   H20743985   3.165   2.478   7.518  2.2707 -0.5159  1.1967
   60MOL   H20843986   3.108   2.398   7.363 -0.7250 -0.3451  0.2870
   60MOL   H20943987   3.079   2.256   7.624 -0.3519  1.1211  0.8476
   60MOL   H21043988   3.014   2.203   7.469  1.1749 -2.4318  3.3833
   60MOL   H21143989   2.828   2.292   7.569  1.3462 -0.8965  0.5269
   60MOL   H21243990   2.867   2.394   7.453 -1.9425  2.9367  0.8542
   60MOL   H21343991   2.971   2.570   7.615  0.5898 -0.3407  0.1233
   60MOL   H21443992   2.938   2.462   0.053  1.3246  0.2799  0.3843
   60MOL   H21543993   2.734   2.597   7.561 -0.0523 -0.9584 -0.4922
   60MOL   H21643994   2.783   2.644   0.030 -1.2346  0.0044  1.3374
   60MOL   H21743995   2.675   2.419   0.101 -0.4033  0.8929  1.7620
   60MOL   H21843996   2.640   2.393   7.629 -1.9083 -0.2671  0.3761
   60MOL   H21943997   2.493   2.577   7.601  0.7255  1.3592  0.4468
   60MOL   H22043998   2.520   2.652   0.055  0.9005  0.0003 -0.6947
   60MOL   H22143999   2.424   2.428   0.169  2.5580  1.2161  0.3878
   60MOL   H22244000   2.364   2.406   7.693 -0.3438  0.7353 -0.8507
   60MOL   H22344001   2.302   2.658   0.108 -0.2947  0.9535  2.7603
   60MOL   C22444002   2.176   2.498   0.158 -0.6241 -0.0070 -0.1274
   60MOL   O22544003   2.171   2.372   0.168 -0.1246  0.1029  0.6689
   60MOL   C22644004   2.060   2.587   0.202  0.1713  0.1326 -0.6312
   60MOL   C22744005   1.983   2.541   0.325  0.1501 -0.2403 -0.6771
   60MOL   C22844006   1.889   2.648   0.379 -0.2810  0.1731  0.4447
   60MOL   C22944007   1.784   2.701   0.271  0.1691 -0.5332 -0.1121
   60MOL   C23044008   1.676   2.594   0.227  0.6087  0.2770  0.2637
   60MOL   C23144009   1.560   2.644   0.138 -0.1383  0.0646  0.6200
   60MOL   C23244010   1.473   2.526   0.091 -1.0065 -0.8080  0.8244
   60MOL   C23344011   1.384   2.575   7.668  0.3068  0.6866  0.4367
   60MOL   C23444012   1.303   2.458   7.611 -0.3230 -0.3670 -0.1900
   60MOL   C23544013   1.217   2.503   7.490  0.7354 -0.1637  0.3625
   60MOL   C23644014   1.128   2.396   7.441  0.0435 -0.3478 -0.1087
   60MOL   N23744015   1.205   2.281   7.403 -0.6837  0.1447  0.3476
   60MOL   H23844016   1.986   2.587   0.122 -0.2847  1.9982 -0.2276
   60MOL   H23944017   2.093   2.689   0.216 -1.1416  0.5024 -0.1706
   60MOL   H24044018   1.928   2.455   0.286  0.4024 -0.6337 -0.1694
   60MOL   H24144019   2.065   2.507   0.389  0.8741  1.5431 -0.6192
   60MOL   H24244020   1.937   2.737   0.419 -1.6314 -0.4520  3.6481
   60MOL   H24344021   1.850   2.607   0.473  1.4219 -0.2751  0.9707
   60MOL   H24444022   1.735   2.785   0.320  0.3134 -1.3356  1.4670
   60MOL   H24544023   1.840   2.741   0.187  2.3644 -2.1480  0.5446
   60MOL   H24644024   1.634   2.552   0.318  0.0160 -1.2932 -0.7076
   60MOL   H24744025   1.726   2.514   0.172 -0.4190  0.6247 -1.2090
   60MOL   H24844026   1.599   2.694   0.050 -1.1935  0.0549  0.1306
   60MOL   H24944027   1.507   2.725   0.190 -0.3234 -1.3066  2.6196
   60MOL   H25044028   1.414   2.488   0.174 -2.2827  0.4811  0.5227
   60MOL   H25144029   1.531   2.437   0.065  1.8416  1.3912 -0.6375
   60MOL   H25244030   1.445   2.628   7.595 -1.0110  1.0431 -0.4224
   60MOL   H25344031   1.310   2.644   0.014 -1.5352 -1.8582  1.5714
   60MOL   H25444032   1.250   2.400   7.687 -2.1670  1.5954  0.0531
   60MOL   H25544033   1.369   2.381   7.571  0.0487 -0.5352  0.7440
   60MOL   H25644034   1.268   2.548   7.405  0.6928 -0.0344  0.4063
   60MOL   H25744035   1.153   2.578   7.536  0.8177 -0.8200  1.5820
   60MOL   H25844036   1.065   2.423   7.357  1.0577  0.8864 -0.4970
   60MOL   H25944037   1.064   2.366   7.524 -0.3392  2.0494  0.5131
   60MOL   H26044038   1.207   2.203   7.468  2.0717  0.0953  0.2700
   60MOL   C26144039   1.252   2.245   7.284 -0.2162  0.7256 -0.6365
   60MOL   O26244040   1.257   2.320   7.188 -0.5277  0.3541 -0.4480
   60MOL   C26344041   1.293   2.092   7.277 -0.8683 -0.1384  0.0747
   60MOL   C26444042   1.320   2.034   7.138 -1.1607  0.7499 -0.7151
   60MOL   C26544043   1.469   2.024   7.091  0.2262  0.6105 -0.4401
   60MOL   C26644044   1.538   2.154   7.054  0.2403 -0.9298 -0.0674
   60MOL   C26744045   1.679   2.132   7.006  0.4591  0.1951 -0.3668
   60MOL   C26844046   1.763   2.059   7.120  0.0001 -0.8101 -0.1359
   60MOL   C26944047   1.912   2.064   7.082  0.0580 -0.4327 -0.0698
   60MOL   C27044048   1.992   1.956   7.156  0.1560 -0.4706 -0.1722
   60MOL   C27144049   1.996   1.979   7.312 -0.6794 -0.1366 -0.2843
   60MOL   C27244050   2.097   1.875   7.371 -0.0314 -0.7198 -0.2912
   60MOL   C27344051   2.126   1.912   7.521  0.2703  0.7159 -0.5019
   60MOL   N27444052   2.212   1.810   7.582  0.6119  0.2267  0.1100
   60MOL   H27544053   1.206   2.043   7.322 -1.5812 -0.2547 -1.4186
   60MOL   H27644054   1.375   2.062   7.343 -0.0276  0.2278 -0.7810
   60MOL   H27744055   1.276   1.935   7.143  0.9355 -0.1680  0.5565
   60MOL   H27844056   1.276   2.092   7.057  0.3023  2.6054 -0.2200
   60MOL   H27944057   1.470   1.966   6.999  2.2745 -0.4790  0.2394
   60MOL   H28044058   1.521   1.971   7.171 -0.3594  2.9711  1.6080
   60MOL   H28144059   1.476   2.195   6.973  0.2680  1.3390  1.0206
   60MOL   H28244060   1.533   2.228   7.134  0.6485 -0.5890 -0.3628
   60MOL   H28344061   1.727   2.227   6.980 -1.9255  2.2048  2.2668
   60MOL   H28444062   1.682   2.071   6.916 -1.4976  0.8733 -0.9121
   60MOL   H28544063   1.731   1.957   7.144  0.8451 -1.0437  0.0192
   60MOL   H28644064   1.749   2.107   7.217 -0.3649  1.1777 -1.1649
   60MOL   H28744065   1.949   2.166   7.095 -3.3626  0.7075  1.3460
   60MOL   H28844066   1.919   2.049   6.975 -0.7785  0.4905 -0.2703
   60MOL   H28944067   2.095   1.960   7.120  0.3989  0.2879  0.6014
   60MOL   H29044068   1.958   1.858   7.121  1.3671 -0.4817 -1.3664
   60MOL   H29144069   1.896   1.969   7.356 -0.6541  0.2543 -0.1392
   60MOL   H29244070   2.023   2.083   7.330  0.1315 -0.1278 -1.5224
   60MOL   H29344071   2.189   1.881   7.313 -0.5764 -2.7689 -1.3791
   60MOL   H29444072   2.056   1.774   7.372  1.5190 -1.3652 -0.8452
   60MOL   H29544073   2.030   1.914   7.571 -0.3180  1.0827 -1.6295
   60MOL   H29644074   2.186   2.002   7.537 -0.6118  1.2375 -0.1453
   60MOL   H29744075   2.172   1.732   7.633  0.5901  0.8651  1.0676
   60MOL   C29844076   2.343   1.796   7.564 -0.2793 -0.4816  1.1730
   60MOL   O29944077   2.407   1.872   7.491  0.0514 -0.0582  0.6114
   60MOL   C30044078   2.406   1.684   7.638  0.2072  0.1750 -0.1997
   60MOL   C30144079   2.552   1.656   7.599 -0.0760  1.0114 -0.0647
   60MOL   C30244080   2.573   1.554   7.488  1.0143  0.2017 -0.1324
   60MOL   C30344081   2.712   1.484   7.485  0.1817  0.2975 -0.1359
   60MOL   C30444082   2.754   1.421   7.350  0.0210  0.4000  0.0720
   60MOL   C30544083   2.886   1.342   7.342  0.3543 -0.0917  0.3939
   60MOL   C30644084   2.892   1.213   7.435  0.5111 -0.6420  0.6593
   60MOL   C30744085   2.779   1.116   7.379 -0.0416  0.0172 -0.5615
   60MOL   C30844086   2.753   0.988   7.462 -0.0024 -0.2560 -0.1138
   60MOL   C30944087   2.615   0.921   7.455  0.4770  0.0745  0.8291
   60MOL   C31044088   2.579   0.821   7.559 -0.2303 -0.5192  0.5104
   60MOL   N31144089   2.448   0.753   7.538  0.7729  0.0768 -0.2875
   60MOL   H31244090   2.346   1.596   7.613  1.9263 -1.1022  0.0446
   60MOL   H31344091   2.399   1.702   0.052 -3.0253  1.9777 -0.6588
   60MOL   H31444092   2.608   1.745   7.570 -0.1132  1.4728  1.2171
   60MOL   H31544093   2.593   1.619   7.693 -1.9513 -1.1226 -0.0457
   60MOL   H31644094   2.564   1.606   7.392 -0.9283 -2.0332 -1.2275
   60MOL   H31744095   2.488   1.486   7.475  0.3863  0.5460  2.0996
   60MOL   H31844096   2.793   1.545   7.527  0.3281 -0.0570  0.0935
   60MOL   H31944097   2.694   1.405   7.557  1.0138  0.2604  0.0416
   60MOL   H32044098   2.772   1.502   7.281 -4.5362  2.4863  1.1029
   60MOL   H32144099   2.667   1.370   7.306 -1.8401  1.4081  2.4474
   60MOL   H32244100   2.960   1.418   7.370 -1.0865  1.4075  0.2024
   60MOL   H32344101   2.901   1.326   7.235  0.5812  1.0254  0.2480
   60MOL   H32444102   2.889   1.238   7.541  0.2861 -1.0411  0.7491
   60MOL   H32544103   2.990   1.167   7.419 -0.7152 -2.8299 -0.8003
   60MOL   H32644104   2.801   1.097   7.274 -0.3598  1.5836 -0.9285
   60MOL   H32744105   2.688   1.176   7.379 -0.7652 -1.0480  0.9079
   60MOL   H32844106   2.766   1.014   7.567 -3.1483  0.2412  0.1942
   60MOL   H32944107   2.825   0.911   7.433 -0.5567 -0.0535 -2.0462
   60MOL   H33044108   2.597   0.888   7.352 -3.6569  0.3863  1.3766
   60MOL   H33144109   2.543   1.001   7.474  1.1510  0.4234  1.9188
   60MOL   H33244110   2.586   0.878   7.651 -2.5415 -1.7633  1.4846
   60MOL   H33344111   2.661   0.749   7.551  0.9664  0.4840  3.0674
   60MOL   H33444112   2.359   0.791   7.569 -0.1570 -1.8397 -0.5130
   60MOL   C33544113   2.438   0.625   7.492 -0.1530 -0.0764  0.1362
   60MOL   O33644114   2.539   0.552   7.491 -0.9767 -0.4233  0.0076
   60MOL   C33744115   2.299   0.571   7.450  0.5913 -0.0952 -0.0847
   60MOL   C33844116   2.300   0.422   7.408 -0.0629  0.4800 -0.8245
   60MOL   C33944117   2.158   0.369   7.353 -0.0304 -0.5611  0.2572
   60MOL   C34044118   2.116   0.433   7.218  0.0536 -0.5382 -0.0539
   60MOL   C34144119   1.974   0.388   7.157  0.0859  0.4997 -0.0536
   60MOL   C34244120   1.954   0.435   7.013 -0.5091 -0.2090 -0.0114
   60MOL   C34344121   1.818   0.423   6.949  0.0270  0.1010 -0.2127
   60MOL   C34444122   1.825   0.456   6.796  0.3775 -0.0765 -0.3437
   60MOL   C34544123   1.692   0.430   6.728  0.0298 -0.1152  0.8620
   60MOL   C34644124   1.691   0.449   6.582  0.2981  0.4904  0.2537
   60MOL   C34744125   1.561   0.389   6.518 -0.0277 -0.5792  0.8795
   60MOL   N34844126   1.560   0.246   6.540  0.0202 -0.2651 -0.1903
   60MOL   H34944127   2.265   0.645   7.378  0.3947  1.2686  1.3890
   60MOL   H35044128   2.226   0.580   7.531 -2.0994  0.9650 -2.5481
   60MOL   H35144129   2.383   0.406   7.339  1.5106 -1.1178  1.3648
   60MOL   H35244130   2.334   0.361   7.491 -4.1299  0.3205  0.7957
   60MOL   H35344131   2.093   0.396   7.436 -0.7387 -0.3523 -0.3656
   60MOL   H35444132   2.145   0.263   7.332 -1.4468 -0.1308 -1.1426
   60MOL   H35544133   2.129   0.541   7.227  1.0587 -0.6039 -0.7201
   60MOL   H35644134   2.194   0.405   7.147  1.0435 -0.8486  1.1351
   60MOL   H35744135   1.889   0.425   7.216  0.5565  0.0019  0.9542
   60MOL   H35844136   1.973   0.280   7.171  0.3316  0.5349  0.2527
   60MOL   H35944137   2.025   0.377   6.954 -0.4644  0.3764 -0.5370
   60MOL   H36044138   1.980   0.541   7.010 -3.0249  0.3817 -1.2257
   60MOL   H36144139   1.740   0.482   6.997  0.0217  1.0580 -1.3715
   60MOL   H36244140   1.793   0.318   6.966 -1.2572  0.4079 -0.1141
   60MOL   H36344141   1.903   0.393   6.752 -1.7848 -1.6796 -1.9996
   60MOL   H36444142   1.852   0.561   6.792  0.6289 -0.0586  1.4952
   60MOL   H36544143   1.600   0.475   6.765 -1.7373 -1.6046 -1.5824
   60MOL   H36644144   1.670   0.325   6.747  3.2595 -1.2921 -1.4706
   60MOL   H36744145   1.775   0.387   6.549  0.4643  0.2610  1.1116
   60MOL   H36844146   1.708   0.550   6.546 -0.1726  1.1374  1.8291
   60MOL   H36944147   1.567   0.416   6.412 -0.4346 -0.1246  0.9669
   60MOL   H37044148   1.471   0.432   6.563 -0.1440 -0.0074  0.1131
   60MOL   H37144149   1.515   0.214   6.624  1.6328  1.1972  1.2759
   60MOL   C37244150   1.634   0.156   6.474  0.8497  0.4828 -0.6535
   60MOL   O37344151   1.676   0.187   6.363 -0.1538  0.2494  0.3189
   60MOL   C37444152   1.652   0.019   6.530  0.1124 -0.1082 -0.5787
   60MOL   C37544153   1.788   0.011   6.603  0.3895 -0.2217  0.1903
   60MOL   C37644154   1.792   7.656   6.747  1.2292  0.9051  0.2417
   60MOL   C37744155   1.925   7.674   6.826 -0.3935 -0.4262  0.2164
   60MOL   C37844156   1.912   7.665   6.980 -0.3092  0.1872 -0.1669
   60MOL   C37944157   2.044   7.636   7.055  0.2514  0.2321  0.4635
   60MOL   C38044158   2.161   0.042   7.024 -0.3525  0.0150 -0.2241
   60MOL   C38144159   2.289   7.681   7.077 -0.2977 -0.3816 -0.6658
   60MOL   C38244160   2.365   7.584   6.990 -0.1650  0.7679 -0.0742
   60MOL   C38344161   2.497   7.537   7.061  0.2722  0.2733 -0.0746
   60MOL   C38444162   2.580   7.444   6.968 -0.1923  0.1418  0.3458
   60MOL   N38544163   2.618   7.510   6.844  0.5168 -0.4875  0.2289
   60MOL   H38644164   1.654   7.644   6.445  0.6469 -1.3428  0.4236
   60MOL   H38744165   1.571   7.679   6.594 -1.1396  2.3437 -0.8119
   60MOL   H38844166   1.849   7.634   6.548 -1.2978 -2.3135  0.9511
   60MOL   H38944167   1.838   0.107   6.589 -0.1735 -0.0343 -0.5561
   60MOL   H39044168   1.752   7.555   6.749  1.4637  0.8152  0.5187
   60MOL   H39144169   1.719   0.026   6.797  0.9384  1.9355 -1.4468
   60MOL   H39244170   1.996   7.598   6.792  0.1193 -0.7356  1.9335
   60MOL   H39344171   1.963   0.077   6.793  1.4496 -1.3591 -0.4621
   60MOL   H39444172   1.845   7.586   7.013  1.9708 -1.9088 -0.3479
   60MOL   H39544173   1.877   0.069   7.013 -0.9840 -0.7617  2.0137
   60MOL   H39644174   2.069   7.537   7.018  0.0572  0.1043  0.6743
   60MOL   H39744175   2.029   7.625   7.162 -3.2117 -0.4548 -0.0092
   60MOL   H39844176   2.148   0.144   7.061  2.2385  0.7071 -1.1394
   60MOL   H39944177   2.186   0.049   6.918  2.6311  0.7599  0.4887
   60MOL   H40044178   2.288   7.638   7.177  2.9309  0.9904  0.0231
   60MOL   H40144179   2.349   0.076   7.098  1.9820 -2.2729  1.0507
   60MOL   H40244180   2.387   7.630   6.893  0.9496  0.3753 -0.0223
   60MOL   H40344181   2.306   7.498   6.959  2.0687 -0.1074 -2.0696
   60MOL   H40444182   2.487   7.481   7.154  0.4201 -1.1154 -0.8824
   60MOL   H40544183   2.554   7.626   7.084  0.2661  0.3687 -0.4136
   60MOL   H40644184   2.532   7.350   6.941  2.3564 -0.7423 -1.3059
   60MOL   H40744185   2.668   7.410   7.024  0.9366  1.8643 -0.3750
   60MOL   H40844186   2.566   7.591   6.813 -0.0671 -1.3171 -0.9793
   60MOL   C40944187   2.715   7.447   6.771  0.3590  0.2425 -0.5523
   60MOL   O41044188   2.782   7.350   6.807  0.4585  0.7053 -0.3246
   60MOL   C41144189   2.745   7.512   6.637 -0.4160 -0.8339  0.3847
   60MOL   C41244190   2.885   7.493   6.580  0.2022  1.0238  0.1884
   60MOL   C41344191   2.989   7.601   6.623  0.6053  0.4366  0.6936
   60MOL   C41444192   3.106   7.615   6.530  0.5330  0.5430  0.0328
   60MOL   C41544193   3.229   7.691   6.590 -0.8957 -0.4056  0.1290
   60MOL   C41644194   3.352   0.020   6.501  0.1022 -0.2259  0.2306
   60MOL   C41744195   3.433   0.142   6.548  0.2286 -0.9538 -0.4060
   60MOL   C41844196   3.378   0.274   6.500  0.6329 -0.2177  0.7554
   60MOL   C41944197   3.470   0.387   6.535 -0.0637 -0.2981  0.1765
   60MOL   C42044198   3.404   0.524   6.498  0.6601 -0.0130  0.2663
   60MOL   C42144199   3.500   0.639   6.490 -0.1525 -0.0796  0.6130
   60MOL   N42244200   3.596   0.617   6.377 -0.4835 -0.0969 -0.7252
   60MOL   H42344201   2.729   7.619   6.636 -1.9608 -1.0141  2.2568
   60MOL   H42444202   2.666   7.471   6.574 -0.9157  0.9323 -0.1667
   60MOL   H42544203   2.927   7.397   6.611  0.3940  1.4182  1.1956
   60MOL   H42644204   2.880   7.481   6.472  2.7727 -1.6558  0.3024
   60MOL   H42744205   3.027   7.591   6.725  1.9329 -1.8065  0.0012
   60MOL   H42844206   2.943   0.006   6.619  1.0611  0.5926 -0.8278
   60MOL   H42944207   3.135   7.512   6.507 -0.6667  0.2342 -0.1192
   60MOL   H43044208   3.067   7.657   6.437 -0.2646  0.1121  0.1731
   60MOL   H43144209   3.258   7.634   6.679  0.7156  0.9061  0.4710
   60MOL   H43244210   3.192   0.096   6.616 -1.0430  0.0481 -1.6932
   60MOL   H43344211   3.316   0.033   6.399  0.6389 -1.6815 -0.1569
   60MOL   H43444212   3.410   7.623   6.489  2.0210  0.8695  1.0523
   60MOL   H43544213   3.533   0.126   6.507 -0.1141 -0.4752 -1.4398
   60MOL   H43644214   3.448   0.139   6.656 -1.5767 -0.5890 -0.1351
   60MOL   H43744215   3.283   0.296   6.547  0.6043 -0.6235  0.8875
   60MOL   H43844216   3.361   0.264   6.393 -0.9275  2.3022  0.7275
   60MOL   H43944217   3.564   0.394   6.479 -1.1187 -0.1995 -1.6382
   60MOL   H44044218   3.508   0.393   6.637 -0.5384  1.4223  0.2695
   60MOL   H44144219   3.328   0.540   6.574  0.6623 -2.3208  0.7749
   60MOL   H44244220   3.345   0.506   6.407 -0.3176 -0.5105  0.9838
   60MOL   H44344221   3.562   0.658   6.578  1.2154  1.1192 -0.5758
   60MOL   H44444222   3.436   0.725   6.470 -3.0643 -2.0864  0.9904
   60MOL   H44544223   3.665   0.545   6.391  1.6717  2.3059  1.6618
   60MOL   C44644224   3.599   0.678   6.254  0.7493 -0.0642  0.4663
   60MOL   O44744225   3.514   0.758   6.214  0.1288  0.0328 -0.3300
   60MOL   C44844226   3.707   0.644   6.155 -0.7760  0.2080  0.6916
   60MOL   C44944227   3.723   0.749   6.038  0.0778 -0.3916  0.1397
   60MOL   C45044228   3.847   0.843   6.065 -0.0936  0.5703  0.1635
   60MOL   C45144229   3.837   0.977   5.989  0.3665 -0.7522  1.2185
   60MOL   C45244230   3.869   0.950   5.839 -0.0394 -0.0580  0.2293
   60MOL   C45344231   3.855   1.081   5.759 -0.2055 -0.1609  0.0375
   60MOL   C45444232   3.871   1.067   5.614  0.6598  0.1721 -0.0706
   60MOL   C45544233   4.014   1.019   5.580 -0.0317 -0.5932  0.0427
   60MOL   C45644234   4.041   1.006   5.423 -0.1001 -0.3329 -0.4702
   60MOL   C45744235   4.189   0.987   5.381  0.5519 -0.4213 -0.5306
   60MOL   C45844236   4.264   1.104   5.323  0.3989  0.4826 -0.7701
   60MOL   N45944237   4.277   1.210   5.423  0.3387 -0.0763  0.1381
   60MOL   H46044238   3.697   0.545   6.110 -0.6195  0.4325  0.1570
   60MOL   H46144239   3.808   0.643   6.196  0.0498 -1.3853 -1.3353
   60MOL   H46244240   3.735   0.704   5.940  3.4311  1.0584 -0.1775
   60MOL   H46344241   3.636   0.814   6.030  1.7988  1.8784 -0.4856
   60MOL   H46444242   3.943   0.797   6.044 -0.3803  0.5092 -1.0488
   60MOL   H46544243   3.837   0.872   6.170  1.8648 -0.2649  0.5990
   60MOL   H46644244   3.740   1.026   5.996  0.7023  0.0678  0.3519
   60MOL   H46744245   3.901   1.050   6.038 -0.0993  1.4160 -1.2724
   60MOL   H46844246   3.808   0.870   5.796  1.3019 -0.2194 -1.4123
   60MOL   H46944247   3.967   0.906   5.827 -0.6305 -0.8318 -2.2040
   60MOL   H47044248   3.922   1.161   5.793 -0.9982  0.9330 -0.9142
   60MOL   H47144249   3.755   1.122   5.772 -0.9062 -1.3126 -1.5631
   60MOL   H47244250   3.859   1.161   5.560  1.2917  0.4406  0.2545
   60MOL   H47344251   3.793   1.004   5.570  1.3839 -0.2585 -0.7704
   60MOL   H47444252   4.039   0.921   5.623 -3.3190 -0.9118  1.3068
   60MOL   H47544253   4.081   1.088   5.630 -0.3972  0.0404 -0.3421
   60MOL   H47644254   3.994   1.085   5.366  0.0496 -1.0755 -1.6354
   60MOL   H47744255   3.984   0.918   5.393 -0.4474  0.0671 -0.9819
   60MOL   H47844256   4.194   0.898   5.319  0.5310  0.4984 -1.8695
   60MOL   H47944257   4.254   0.953   5.462  0.0090  3.1326  1.5314
   60MOL   H48044258   4.219   1.141   5.231  4.4358  1.0489 -2.6392
   60MOL   H48144259   4.367   1.076   5.299  0.3349 -1.2521  0.8733
   60MOL   H48244260   4.212   1.196   5.499 -0.9166  2.3195 -0.4406
   60MOL   C48344261   4.344   1.327   5.421 -0.0561 -0.3748 -0.4909
   60MOL   O48444262   4.342   1.403   5.525  0.1328  0.2770  0.2570
   60MOL   C48544263   4.426   1.353   5.295 -0.0394  0.4467  0.1676
   60MOL   C48644264   4.545   1.450   5.316 -0.0411 -0.0853  0.1679
   60MOL   C48744265   4.589   1.520   5.187 -0.1882 -0.4246  0.3663
   60MOL   C48844266   4.703   1.622   5.205 -0.1680 -0.6439  0.5987
   60MOL   C48944267   4.779   1.669   5.082  0.7079 -0.1225  0.2710
   60MOL   C49044268   4.892   1.777   5.119 -0.3413 -0.2568 -0.0900
   60MOL   C49144269   4.988   1.813   5.005  0.4843 -0.0442 -0.3601
   60MOL   C49244270   5.115   1.888   5.041 -0.2598  0.1420  0.8247
   60MOL   C49344271   5.225   1.908   4.939 -0.0119  0.3211  0.5245
   60MOL   C49444272   5.260   1.767   4.871 -0.7037  0.0612  0.3842
   60MOL   C49544273   5.405   1.765   4.817 -0.5884 -0.2983  0.5889
   60MOL   N49644274   5.424   1.880   4.727 -0.4470 -0.6227  0.3534
   60MOL   H49744275   4.364   1.385   5.211 -1.4675 -1.8971  0.2849
   60MOL   H49844276   4.465   1.257   5.261 -1.2863 -0.5507  1.4915
   60MOL   H49944277   4.530   1.514   5.402 -0.6313 -0.9335  0.6926
   60MOL   H50044278   4.630   1.389   5.346 -0.5134 -0.7998  0.0550
   60MOL   H50144279   4.509   1.578   5.140  1.6337  1.6619 -0.2402
   60MOL   H50244280   4.606   1.436   5.119  0.7032  0.6001 -0.6981
   60MOL   H50344281   4.657   1.714   5.240  3.3148  1.2186  0.5065
   60MOL   H50444282   4.788   1.605   5.271 -2.4798 -2.8047  3.1769
   60MOL   H50544283   4.721   1.708   4.999  2.0428  2.5710  0.5418
   60MOL   H50644284   4.826   1.584   5.032  1.1863  1.2007 -1.5840
   60MOL   H50744285   4.953   1.734   5.198  0.4778  2.2229  0.6907
   60MOL   H50844286   4.845   1.868   5.158  0.0673  0.9857 -2.4074
   60MOL   H50944287   4.931   1.862   4.925 -2.7376 -0.9140  1.2996
   60MOL   H51044288   5.024   1.720   4.961 -0.3754 -0.1777 -0.8037
   60MOL   H51144289   5.154   1.820   5.117 -1.0798 -0.2051  0.9367
   60MOL   H51244290   5.104   1.983   5.093  2.2458  1.8889 -1.7310
   60MOL   H51344291   5.318   1.945   4.983  0.9938 -0.8539 -0.5920
   60MOL   H51444292   5.188   1.969   4.857  0.2379 -0.2789 -0.0376
   60MOL   H51544293   5.185   1.746   4.795 -0.8006 -0.9007  0.7432
   60MOL   H51644294   5.240   1.686   4.941  1.1281 -3.8496 -3.3429
   60MOL   H51744295   5.427   1.682   4.750 -0.2398 -1.1837  1.7965
   60MOL   H51844296   5.486   1.753   4.889  1.4737 -0.6282 -1.7327
   60MOL   H51944297   5.335   1.910   4.692  0.7572  1.4074 -1.0413
   60MOL   C52044298   5.526   1.958   4.713  0.5525  0.2100 -0.2300
   60MOL   O52144299   5.640   1.928   4.757  0.1126  0.0273  0.0582
   60MOL   C52244300   5.512   2.088   4.641  0.0201  0.2597 -0.4244
   60MOL   C52344301   5.410   2.191   4.710 -0.2866  0.5363  0.0363
   60MOL   C52444302   5.455   2.245   4.852 -0.4907  0.1465 -0.1776
   60MOL   C52544303   5.340   2.324   4.927 -0.1767 -0.1536 -0.2276
   60MOL   C52644304   5.299   2.445   4.840  0.8320  0.2512 -0.3507
   60MOL   C52744305   5.182   2.535   4.900 -0.1435 -0.1028 -0.2777
   60MOL   C52844306   5.160   2.662   4.812  0.1906  0.1387  0.3950
   60MOL   C52944307   5.022   2.722   4.842  0.2593 -0.2046  0.1806
   60MOL   C53044308   5.004   2.873   4.803  0.1785 -0.5054  0.0367
   60MOL   C53144309   4.863   2.913   4.830 -0.3308 -0.2824  0.3639
   60MOL   C53244310   4.807   3.048   4.787 -0.3684  0.0420 -0.0832
   60MOL   N53344311   4.876   3.162   4.847 -0.3018 -0.8000  0.4116
   60MOL   H53444312   5.482   2.064   4.539 -1.9508  0.9858 -0.0346
   60MOL   H53544313   5.613   2.127   4.625  0.7452 -0.4171  2.2618
   60MOL   H53644314   5.405   2.275   4.641  0.6945 -0.5963 -1.4502
   60MOL   H53744315   5.316   2.139   4.726 -1.0832  2.1320  0.6240
   60MOL   H53844316   5.545   2.306   4.838 -0.4407 -0.5380 -3.2069
   60MOL   H53944317   5.487   2.162   4.914 -0.1036  0.0555 -0.4937
   60MOL   H54044318   5.252   2.264   4.950 -0.2819  0.7745  1.9306
   60MOL   H54144319   5.377   2.370   5.018  1.9539 -0.8820 -0.6996
   60MOL   H54244320   5.255   2.402   4.750 -1.3587  0.3612  0.6239
   60MOL   H54344321   5.383   2.513   4.835  2.1956 -1.1637  2.1936
   60MOL   H54444322   5.207   2.555   5.004 -0.2436  0.2221 -0.3181
   60MOL   H54544323   5.094   2.471   4.909 -0.6435  0.4404 -1.1302
   60MOL   H54644324   5.160   2.627   4.708  1.8609  1.7389 -0.1812
   60MOL   H54744325   5.244   2.731   4.803  0.2623  0.2247  1.6411
   60MOL   H54844326   5.011   2.710   4.949 -0.7646 -0.6022  0.0316
   60MOL   H54944327   4.940   2.663   4.801 -0.9140  0.4959  1.5043
   60MOL   H55044328   5.043   2.876   4.701  2.1176  1.3472  0.8019
   60MOL   H55144329   5.072   2.944   4.850  0.2943 -0.3630 -0.3426
   60MOL   H55244330   4.831   2.900   4.933  0.2106 -1.8169  0.3532
   60MOL   H55344331   4.803   2.842   4.774 -0.2334  1.1041 -1.5644
   60MOL   H55444332   4.701   3.046   4.812 -0.2131  0.2721  0.5976
   60MOL   H55544333   4.809   3.055   4.678 -1.2730  3.5721  0.0861
   60MOL   H55644334   4.823   3.204   4.922 -1.3344 -0.0766 -0.6985
   60MOL   C55744335   4.994   3.218   4.823  0.0457 -0.0375 -0.1644
   60MOL   O55844336   5.066   3.171   4.734  0.0174  0.0922  0.2389
   60MOL   C55944337   5.036   3.336   4.917 -0.3331  0.0849  0.2982
   60MOL   C56044338   5.060   3.473   4.853  0.6802 -0.9170 -0.0865
   60MOL   C56144339   4.938   3.520   4.769 -0.1204 -0.3299 -0.2794
   60MOL   C56244340   4.923   3.672   4.760  0.3933 -0.4064 -0.0457
   60MOL   C56344341   4.782   3.720   4.723  0.4730 -0.3169  0.1536
   60MOL   C56444342   4.784   3.876   4.743 -0.1315  0.1157  0.3376
   60MOL   C56544343   4.656   3.952   4.718  0.0172  1.2013 -0.0669
   60MOL   C56644344   4.658   4.101   4.763 -0.3823 -0.1087 -0.0703
   60MOL   C56744345   4.528   4.182   4.733  0.4285  0.1387 -0.0420
   60MOL   C56844346   4.541   4.333   4.773 -0.4102  0.5427 -0.3651
   60MOL   C56944347   4.407   4.414   4.746  0.0797  0.2996 -0.0009
   60MOL   N57044348   4.409   4.552   4.795 -0.0933 -0.0222  0.6108
   60MOL   H57144349   5.122   3.308   4.978  1.2088 -1.4746 -2.4674
   60MOL   H57244350   4.963   3.349   4.997  0.2123  0.9371  0.6654
   60MOL   H57344351   5.070   3.548   4.931 -0.7829 -0.2742 -0.4935
   60MOL   H57444352   5.153   3.466   4.797  0.6185 -1.1426 -0.1577
   60MOL   H57544353   4.850   3.477   4.815 -0.2692  0.8531  0.5450
   60MOL   H57644354   4.945   3.472   4.671 -1.5824 -2.4896  0.6442
   60MOL   H57744355   4.927   3.698   4.866  0.8763  0.5159 -0.2831
   60MOL   H57844356   5.005   3.712   4.700  1.8430 -0.8615  1.5928
   60MOL   H57944357   4.706   3.671   4.785  0.8991  0.7148  1.5283
   60MOL   H58044358   4.755   3.685   4.623  0.4176 -1.4194  0.5446
   60MOL   H58144359   4.860   3.917   4.677  0.1238  1.7122  1.6034
   60MOL   H58244360   4.829   3.894   4.841 -0.5033 -1.2608  0.7708
   60MOL   H58344361   4.579   3.904   4.778 -0.4126  1.9383 -0.0277
   60MOL   H58444362   4.636   3.944   4.611 -0.0753  0.5299 -0.0039
   60MOL   H58544363   4.743   4.149   4.716  0.9898 -1.5153  0.8903
   60MOL   H58644364   4.675   4.088   4.870  1.6359  0.1301 -0.3375
   60MOL   H58744365   4.448   4.130   4.786  0.9539 -1.7710 -1.0891
   60MOL   H58844366   4.508   4.177   4.626  0.7000  1.5896 -0.1791
   60MOL   H58944367   4.619   4.381   4.715 -0.3177  0.1057 -0.6104
   60MOL   H59044368   4.568   4.341   4.878 -0.5456 -0.0597 -0.2774
   60MOL   H59144369   4.335   4.354   4.802  1.8543 -0.9167  1.0548
   60MOL   H59244370   4.386   4.414   4.639  1.7838  1.9465 -0.3603
   60MOL   H59344371   4.487   4.591   4.846 -0.3216  2.7158 -1.0060
   60MOL   C59444372   4.295   4.619   4.802 -0.4586  0.0467  0.0318
   60MOL   O59544373   4.198   4.575   4.744 -0.3133 -0.0831  0.5846
   60MOL   C59644374   4.299   4.753   4.869 -0.2612 -1.2006  0.7672
   60MOL   C59744375   4.171   4.840   4.850 -0.0978 -0.2350  0.5085
   60MOL   C59844376   4.044   4.791   4.916  0.0638  0.1900 -0.2556
   60MOL   C59944377   3.918   4.872   4.891 -0.1596  0.0280  0.0048
   60MOL   C60044378   3.791   4.811   4.959  0.0062 -0.2436 -0.1234
   60MOL   C60144379   3.650   4.868   4.908 -0.6587 -0.2466  0.5498
   60MOL   C60244380   3.522   4.794   4.962 -0.3466  0.2443  0.4314
   60MOL   C60344381   3.394   4.841   4.886  0.0958  0.7281  0.3670
   60MOL   C60444382   3.331   4.982   4.912 -0.4883 -0.0411  0.5448
   60MOL   C60544383   3.194   4.977   4.850 -0.3138  0.2317 -0.2153
   60MOL   C60644384   3.123   5.114   4.855 -0.7081 -0.7266 -0.4560
   60MOL   N60744385   2.984   5.122   4.814 -0.4572  0.1630  0.3407
   60MOL   H60844386   4.379   4.806   4.817 -1.0636 -2.8612 -2.2635
   60MOL   H60944387   4.333   4.742   4.972  2.2417  0.9984  0.2308
   60MOL   H61044388   4.213   4.931   4.892 -0.9529  0.4723 -0.1631
   60MOL   H61144389   4.153   4.858   4.744  2.0774  0.3849  0.2311
   60MOL   H61244390   4.056   4.776   5.023 -2.3656 -0.8538 -0.0954
   60MOL   H61344391   4.043   4.691   4.874  1.7291 -0.0006  0.1136
   60MOL   H61444392   3.935   4.977   4.916  0.6283  0.3888 -1.9689
   60MOL   H61544393   3.892   4.871   4.786 -0.5810 -0.8680  0.1146
   60MOL   H61644394   3.792   4.832   5.066  2.7310 -0.0932 -0.1335
   60MOL   H61744395   3.798   4.702   4.955 -1.8031 -0.4569  1.4819
   60MOL   H61844396   3.655   4.850   4.801 -0.8313  0.5172  0.4069
   60MOL   H61944397   3.645   4.975   4.929  3.4437  0.1087  0.1172
   60MOL   H62044398   3.507   4.797   5.070 -0.1568 -0.0078  0.4663
   60MOL   H62144399   3.531   4.686   4.952  0.6013  0.1571  2.1642
   60MOL   H62244400   3.323   4.759   4.903 -0.0162  0.4848 -1.2049
   60MOL   H62344401   3.397   4.822   4.779 -2.5245  0.4286  0.3270
   60MOL   H62444402   3.399   5.050   4.861 -1.8853  0.1502 -1.0931
   60MOL   H62544403   3.338   5.030   5.009  2.2979 -0.3162  0.5265
   60MOL   H62644404   3.132   4.902   4.901  0.0512 -0.8717 -1.3584
   60MOL   H62744405   3.188   4.933   4.750  2.1007  0.1342 -0.3473
   60MOL   H62844406   3.188   5.187   4.807  1.5976 -2.4526 -0.0224
   60MOL   H62944407   3.131   5.155   4.955  0.6578 -0.6869 -0.5826
   60MOL   H63044408   2.911   5.138   4.882  0.2483  0.5596  1.0085
   60MOL   C63144409   2.935   5.105   4.689  0.8525 -1.1066  0.1438
   60MOL   O63244410   3.005   5.064   4.596  0.2988 -0.4546 -0.0896
   60MOL   C63344411   2.794   5.142   4.655 -0.0088 -0.0133 -0.1221
   60MOL   C63444412   2.704   5.027   4.616  0.1302 -0.5580  0.6302
   60MOL   C63544413   2.570   5.072   4.558  0.3617  0.5472 -0.8043
   60MOL   C63644414   2.483   5.145   4.660 -0.2928 -1.0715 -0.7328
   60MOL   C63744415   2.339   5.162   4.614 -0.9672  0.3565 -0.6864
   60MOL   C63844416   2.251   5.037   4.639  0.4173  0.1099  0.2194
   60MOL   C63944417   2.197   5.024   4.783 -0.2334  0.0409  0.1062
   60MOL   C64044418   2.093   4.913   4.785  0.5890 -0.2309  0.7464
   60MOL   C64144419   2.039   4.880   4.923  0.4518 -0.2650  0.1236
   60MOL   C64244420   1.960   4.743   4.926  0.0157 -0.1841  0.6622
   60MOL   C64344421   1.896   4.711   5.061  0.5511 -0.5534  0.0893
   60MOL   N64444422   1.843   4.573   5.058  0.7399 -0.8180  0.4450
   60MOL   H64544423   2.812   5.220   4.581  1.4303 -2.0323 -1.9461
   60MOL   H64644424   2.756   5.183   4.749  0.1513 -0.6549  0.2257
   60MOL   H64744425   2.753   4.965   4.542 -0.7558 -1.2432  0.6180
   60MOL   H64844426   2.686   4.963   4.702 -0.3771  0.9867  1.7102
   60MOL   H64944427   2.519   4.982   4.526  2.6807 -1.8570  1.9498
   60MOL   H65044428   2.591   5.140   4.476 -0.8593  2.1996  0.2233
   60MOL   H65144429   2.479   5.081   4.749 -1.8655 -0.6459 -0.4951
   60MOL   H65244430   2.535   5.236   4.689 -0.2101 -0.8858 -1.4531
   60MOL   H65344431   2.348   5.186   4.508  0.7507  1.2989 -0.3444
   60MOL   H65444432   2.292   5.253   4.650 -1.0883  0.9378 -2.2711
   60MOL   H65544433   2.307   4.945   4.626  1.0674  0.6461 -0.9212
   60MOL   H65644434   2.164   5.038   4.573 -0.0272 -0.5704  0.8000
   60MOL   H65744435   2.140   5.113   4.810 -2.7813 -1.6049  0.4173
   60MOL   H65844436   2.280   5.019   4.852  1.1561  1.3367 -1.4324
   60MOL   H65944437   2.134   4.825   4.734 -0.4660 -1.0366  1.2610
   60MOL   H66044438   2.004   4.934   4.727  0.2834 -1.8512  0.5933
   60MOL   H66144439   1.965   4.958   4.940  1.5595  0.9032 -0.3780
   60MOL   H66244440   2.111   4.889   5.004  2.9069  2.4430 -2.2592
   60MOL   H66344441   2.032   4.670   4.891  1.7707  0.8512  2.0009
   60MOL   H66444442   1.880   4.756   4.853  1.5111  4.8206 -0.3197
   60MOL   H66544443   1.821   4.785   5.091 -0.5002 -1.7806  0.5295
   60MOL   H66644444   1.963   4.704   5.147  0.9101  1.7836  0.0511
   60MOL   H66744445   1.898   4.492   5.083  1.6402 -0.5465 -0.6151
   60MOL   C66844446   1.711   4.552   5.025 -0.0394  0.0554  0.6383
   60MOL   O66944447   1.637   4.650   4.996  0.7531  0.1514 -0.1747
   60MOL   C67044448   1.676   4.412   5.024  0.2286  0.0229  0.4952
   60MOL   C67144449   1.609   4.359   4.897 -0.0457  0.0518  0.2034
   60MOL   C67244450   1.708   4.356   4.781 -0.2239 -0.6635  0.7320
   60MOL   C67344451   1.645   4.296   4.655 -0.7729  0.3837 -0.5232
   60MOL   C67444452   1.738   4.278   4.536 -0.6136  0.5862 -0.3454
   60MOL   C67544453   1.676   4.185   4.418  0.4263  1.1024  0.3082
   60MOL   C67644454   1.730   4.221   4.279 -0.3408  0.3870 -0.0948
   60MOL   C67744455   1.885   4.246   4.274 -0.4986  0.2381  0.1483
   60MOL   C67844456   1.940   4.250   4.131  0.0005 -0.4025  0.6596
   60MOL   C67944457   1.938   4.395   4.065  0.1752  0.0813 -0.6805
   60MOL   C68044458   2.010   4.420   3.933  0.2435 -0.3709  0.6635
   60MOL   N68144459   1.966   4.541   3.865  0.0590 -0.2831  0.0358
   60MOL   H68244460   1.593   4.399   5.093  0.7144 -1.1726  0.8720
   60MOL   H68344461   1.757   4.348   5.057 -1.8414 -2.1927  1.3989
   60MOL   H68444462   1.568   4.257   4.901  2.8599 -1.0989  1.9418
   60MOL   H68544463   1.522   4.419   4.872  0.1451  1.3181  2.5305
   60MOL   H68644464   1.799   4.300   4.802 -0.0851 -1.1543 -1.0528
   60MOL   H68744465   1.748   4.453   4.751 -0.9791 -0.4632  0.3554
   60MOL   H68844466   1.598   4.202   4.686  2.5143 -1.3577 -0.6370
   60MOL   H68944467   1.554   4.349   4.626 -0.8602 -0.1113 -1.1688
   60MOL   H69044468   1.825   4.216   4.561 -1.1850 -0.7286 -1.5434
   60MOL   H69144469   1.761   4.378   4.500 -1.4537 -0.2111 -3.2043
   60MOL   H69244470   1.568   4.180   4.422  0.4704 -1.9201 -1.1110
   60MOL   H69344471   1.705   4.082   4.440  0.8819  0.6560 -2.2810
   60MOL   H69444472   1.688   4.316   4.248 -0.2423  0.2495 -0.6547
   60MOL   H69544473   1.686   4.151   4.208 -0.1078  1.3204 -1.1628
   60MOL   H69644474   1.931   4.167   4.334 -0.7737 -1.1873 -1.4634
   60MOL   H69744475   1.921   4.342   4.311 -0.6409  0.2253  0.3201
   60MOL   H69844476   1.897   4.171   4.069  1.9816 -1.3239  0.4404
   60MOL   H69944477   2.044   4.219   4.136  0.5749  1.1453 -0.9826
   60MOL   H70044478   1.976   4.466   4.138 -0.7368  1.2520 -1.3236
   60MOL   H70144479   1.830   4.410   4.054  0.6403  2.1739 -2.8612
   60MOL   H70244480   1.996   4.327   3.880 -0.6940 -0.3057  0.7892
   60MOL   H70344481   2.118   4.419   3.948  0.1917 -2.7216  1.0681
   60MOL   H70444482   1.890   4.541   3.799 -1.0244  1.2363  1.2447
   60MOL   C70544483   2.020   4.665   3.881 -0.6369 -0.1120  0.2707
   60MOL   O70644484   2.104   4.695   3.975  0.3636  0.7251  0.1499
   60MOL   C70744485   1.988   4.781   3.789  0.9415 -0.2693  0.1740
   60MOL   C70844486   2.100   4.886   3.771  0.9269  0.7298  0.2805
   60MOL   C70944487   2.221   4.823   3.698  0.1156  0.1035 -0.4448
   60MOL   C71044488   2.296   4.921   3.611 -1.1867  0.9407  0.1750
   60MOL   C71144489   2.423   4.879   3.534  0.5431  0.5223 -0.9759
   60MOL   C71244490   2.397   4.767   3.431 -0.1944 -0.0352 -0.4451
   60MOL   C71344491   2.525   4.696   3.405 -0.1581  0.4405  0.0034
   60MOL   C71444492   2.511   4.585   3.295  0.3628  0.6425  0.1790
   60MOL   C71544493   2.625   4.485   3.293 -1.1562  0.2420  0.3315
   60MOL   C71644494   2.619   4.376   3.405 -0.0117 -0.1496  0.3806
   60MOL   C71744495   2.690   4.244   3.368 -0.2244 -1.0634  0.0926
   60MOL   N71844496   2.829   4.257   3.418  0.5906 -0.0302 -0.1043
   60MOL   H71944497   1.897   4.820   3.836  0.6161 -1.3697  0.4639
   60MOL   H72044498   1.939   4.750   3.697  1.0218  0.6181 -0.1734
   60MOL   H72144499   2.074   4.977   3.717  0.4902 -0.3636 -1.4017
   60MOL   H72244500   2.122   4.919   3.873  0.4062  0.3970  0.5030
   60MOL   H72344501   2.200   4.723   3.660 -0.1746 -0.5584  1.4052
   60MOL   H72444502   2.285   4.805   3.785 -2.7297  2.1485  2.1414
   60MOL   H72544503   2.224   4.950   3.535 -1.1931  0.2967 -0.0703
   60MOL   H72644504   2.330   5.006   3.671  0.8687  0.2570  0.0257
   60MOL   H72744505   2.500   4.840   3.600 -0.0043  1.8594  0.4658
   60MOL   H72844506   2.458   4.972   3.490  0.4856  1.0177  0.0271
   60MOL   H72944507   2.347   4.811   3.344 -1.9000 -0.8942  0.0770
   60MOL   H73044508   2.330   4.691   3.472 -0.7842  0.9268  0.4063
   60MOL   H73144509   2.555   4.655   3.502 -1.5362  0.0860  0.2942
   60MOL   H73244510   2.601   4.764   3.368 -0.4856  1.0882  0.5049
   60MOL   H73344511   2.484   4.625   3.197 -0.0298 -1.0208 -0.4060
   60MOL   H73444512   2.416   4.539   3.321  0.4644 -0.2860 -1.0561
   60MOL   H73544513   2.720   4.537   3.309 -1.1124 -0.0802  1.1572
   60MOL   H73644514   2.632   4.444   3.193  1.8698 -1.4256  1.1710
   60MOL   H73744515   2.512   4.355   3.414 -0.0927 -0.3953 -0.9383
   60MOL   H73844516   2.654   4.427   3.494 -1.7140  1.7104  0.0319
   60MOL   H73944517   2.688   4.204   3.266  3.4394 -0.6483 -0.2276
   60MOL   H74044518   2.647   4.168   3.432 -0.4196 -0.1720  1.0285
   60MOL   H74144519   2.828   4.297   3.511  0.7853 -0.4301  0.0716
   60MOL   H74244520   2.879   4.318   3.355 -1.0183 -0.2496 -1.6149
   61MOL     C144521   5.949   1.334   1.438  0.0361  0.5023  0.1936
   61MOL     O244522   5.877   1.238   1.450  0.6545  0.0127 -0.1260
   61MOL     C344523   6.091   1.321   1.391 -0.3721  0.8339 -0.5721
   61MOL     C444524   6.158   1.462   1.387  0.5416 -0.1845 -0.2452
   61MOL     C544525   6.169   1.528   1.525 -0.4190 -0.1702 -0.1477
   61MOL     C644526   6.266   1.461   1.615 -0.5275  0.7247 -0.0067
   61MOL     C744527   6.300   1.520   1.755  0.6869 -0.0018  0.2450
   61MOL     C844528   6.418   1.452   1.819 -0.5360  0.4720  0.9868
   61MOL     C944529   6.460   1.525   1.947 -0.9634  0.2412  0.4144
   61MOL    C1044530   6.503   1.673   1.928  0.1158  0.6177  0.4849
   61MOL    C1144531   6.391   1.772   1.967  0.1792  0.6154 -0.3033
   61MOL    C1244532   6.437   1.914   1.946  1.0033 -0.3595  0.0493
   61MOL    C1344533   6.321   2.020   1.947  0.1079  0.3284  0.6412
   61MOL    N1444534   6.229   2.001   2.056  0.5090  0.0901  0.7259
   61MOL    H1544535   6.091   1.283   1.289 -0.4712  0.1871 -0.3311
   61MOL    H1644536   6.139   1.253   1.461 -0.7528  0.8358 -0.3071
   61MOL    H1744537   6.250   1.443   1.332  0.3388  1.3666 -1.1631
   61MOL    H1844538   6.094   1.519   1.320 -1.3616 -0.8690  0.9723
   61MOL    H1944539   6.071   1.538   1.572  0.9482 -0.6323  2.8901
   61MOL    H2044540   6.213   1.626   1.511  1.9956 -1.2364 -0.1971
   61MOL    H2144541   6.213   1.368   1.636  0.7158  0.2830  1.2628
   61MOL    H2244542   6.351   1.435   1.552 -1.4305 -2.1216 -0.1219
   61MOL    H2344543   6.216   1.527   1.824  1.2211  1.5616  0.7604
   61MOL    H2444544   6.330   1.620   1.724  1.9015 -0.8983 -1.5469
   61MOL    H2544545   6.506   1.437   1.757 -0.6187 -1.9062  1.3806
   61MOL    H2644546   6.386   1.349   1.832  1.3814 -0.3038 -0.2285
   61MOL    H2744547   6.542   1.476   2.001 -0.3967  0.2300 -0.4564
   61MOL    H2844548   6.378   1.532   2.019 -1.2314  2.4105 -0.0592
   61MOL    H2944549   6.518   1.687   1.821 -0.2944  2.0483  0.6127
   61MOL    H3044550   6.590   1.691   1.991  0.7554 -0.5581 -0.0511
   61MOL    H3144551   6.358   1.753   2.069  0.3533  0.0789 -0.3496
   61MOL    H3244552   6.312   1.744   1.897  0.0140 -0.4344  0.2971
   61MOL    H3344553   6.473   1.934   1.846  2.5416  0.6144  0.7881
   61MOL    H3444554   6.515   1.944   2.017  2.9481  0.3494 -2.3354
   61MOL    H3544555   6.264   2.023   1.855  1.5990 -1.6799 -0.3910
   61MOL    H3644556   6.374   2.115   1.956 -2.6410  1.6851  3.5612
   61MOL    H3744557   6.150   1.947   2.025  1.6050 -1.4057  0.4835
   61MOL    H3844558   5.904   1.431   1.455 -1.6987 -0.6783  2.7161
   61MOL    C3944559   6.249   2.029   2.181  0.2213 -0.0947  0.0586
   61MOL    O4044560   6.350   2.091   2.215  0.0809 -0.5571 -0.1349
   61MOL    C4144561   6.145   1.993   2.284 -0.5597 -0.4618 -0.0853
   61MOL    C4244562   5.997   2.048   2.282  1.1810 -0.2648  0.0916
   61MOL    C4344563   5.983   2.202   2.301 -0.0183  0.5922  0.7226
   61MOL    C4444564   5.836   2.241   2.304  0.9228  0.1675  0.2114
   61MOL    C4544565   5.809   2.397   2.298 -0.0024  0.5825  0.5843
   61MOL    C4644566   5.665   2.441   2.252  0.0962  0.0549 -0.4928
   61MOL    C4744567   5.633   2.591   2.240  0.2028 -0.3484  0.0491
   61MOL    C4844568   5.720   2.670   2.136  0.0473 -0.0553  0.3995
   61MOL    C4944569   5.726   2.635   1.987 -0.4232 -0.6638 -0.0191
   61MOL    C5044570   5.805   2.738   1.889  0.8386  0.8915 -0.4850
   61MOL    C5144571   5.953   2.756   1.924 -0.6919  0.2994 -0.0402
   61MOL    N5244572   6.016   2.863   1.844 -0.0262 -0.0426  0.2484
   61MOL    H5344573   6.200   2.023   2.373  0.1476  1.7995 -1.2464
   61MOL    H5444574   6.142   1.885   2.298 -1.9685 -0.2783  1.0870
   61MOL    H5544575   5.943   2.017   2.193  0.8987  0.4225  0.0182
   61MOL    H5644576   5.951   2.001   2.369  0.1465 -0.7560 -0.7161
   61MOL    H5744577   6.021   2.246   2.209 -1.2638 -0.5392 -0.3488
   61MOL    H5844578   6.027   2.226   2.398  1.9687 -1.7875  0.4512
   61MOL    H5944579   5.777   2.188   2.229  1.3837  0.3709 -0.2985
   61MOL    H6044580   5.796   2.207   2.400  0.4938 -1.2956 -0.4686
   61MOL    H6144581   5.880   2.433   2.224 -2.4977  0.4980 -1.9306
   61MOL    H6244582   5.841   2.449   2.389  0.4556  0.3358  0.5602
   61MOL    H6344583   5.593   2.409   2.326 -1.2073 -0.4286 -1.9430
   61MOL    H6444584   5.639   2.388   2.160 -2.0416  0.5337 -0.1700
   61MOL    H6544585   5.631   2.647   2.333  3.4217  2.9192 -1.7076
   61MOL    H6644586   5.534   2.608   2.197  0.8295 -0.1995 -1.3763
   61MOL    H6744587   5.825   2.665   2.165 -0.1014  0.1876  0.9984
   61MOL    H6844588   5.681   2.772   2.147 -1.1718 -0.4392 -0.2647
   61MOL    H6944589   5.625   2.627   1.947 -1.0047 -2.0294  1.6798
   61MOL    H7044590   5.768   2.535   1.974  2.2198  0.2536  1.0779
   61MOL    H7144591   5.754   2.834   1.887  1.9571  1.5207  0.6181
   61MOL    H7244592   5.799   2.697   1.788  1.4154  0.1395 -0.2213
   61MOL    H7344593   5.998   2.658   1.907 -1.0252 -0.2761  2.2509
   61MOL    H7444594   5.960   2.768   2.032  1.1593  0.9613 -0.2106
   61MOL    H7544595   5.956   2.937   1.811  1.0720  1.6191  1.8435
   61MOL    C7644596   6.151   2.865   1.820  0.6252 -0.0993 -0.4187
   61MOL    O7744597   6.223   2.773   1.850  0.2161  0.6598  0.1934
   61MOL    C7844598   6.211   2.972   1.735  0.2112  0.3306 -0.3800
   61MOL    C7944599   6.355   2.951   1.674 -0.4307  0.2855 -0.5440
   61MOL    C8044600   6.371   2.825   1.588  0.8734  0.5310  0.8350
   61MOL    C8144601   6.515   2.809   1.532  0.0921 -0.3349  0.2594
   61MOL    C8244602   6.532   2.689   1.446  0.3131  0.0840  0.0667
   61MOL    C8344603   6.477   2.691   1.301 -0.3560 -0.4702  0.1925
   61MOL    C8444604   6.462   2.554   1.236 -0.1117  0.9204 -0.8266
   61MOL    C8544605   6.385   2.581   1.104 -0.1327 -0.0042  0.1010
   61MOL    C8644606   6.412   2.463   1.010  0.8586 -0.2045  1.2291
   61MOL    C8744607   6.551   2.453   0.946  0.0563 -0.6024 -0.1533
   61MOL    C8844608   6.555   2.387   0.804  0.4628 -1.1061  0.1305
   61MOL    N8944609   6.697   2.379   0.746 -0.1129 -0.1807  0.5687
   61MOL    H9044610   6.206   3.062   1.797 -0.0149  1.1553 -1.5846
   61MOL    H9144611   6.135   2.981   1.657 -0.4876  0.9702  0.3642
   61MOL    H9244612   6.369   3.036   1.608 -1.1210  0.7412 -0.1034
   61MOL    H9344613   6.433   2.952   1.749  1.1693 -1.6731 -2.1310
   61MOL    H9444614   6.314   2.826   1.495  0.4431  1.6990  1.1003
   61MOL    H9544615   6.340   2.739   1.647  0.7084  1.9279  2.8057
   61MOL    H9644616   6.539   2.899   1.476 -1.5986  0.5806  0.9608
   61MOL    H9744617   6.585   2.797   1.614 -0.0032 -1.4349  0.1920
   61MOL    H9844618   6.492   2.608   1.505  0.9781  1.2960  2.2419
   61MOL    H9944619   6.637   2.663   1.431 -0.1064 -0.0993 -2.8933
   61MOL   H10044620   6.538   2.758   1.239  2.4523  1.8594  5.1526
   61MOL   H10144621   6.387   2.750   1.315  2.0698  3.4384  0.2959
   61MOL   H10244622   6.420   2.479   1.304  1.7180 -1.4672 -2.2342
   61MOL   H10344623   6.567   2.526   1.223  0.5359  2.1769  1.4419
   61MOL   H10444624   6.418   2.671   1.052 -1.8918  0.3103 -0.5015
   61MOL   H10544625   6.279   2.597   1.123 -0.3149 -2.3631  1.3041
   61MOL   H10644626   6.343   2.470   0.926 -0.3308  0.3132  2.2240
   61MOL   H10744627   6.373   2.375   1.061  1.0092  0.7665  3.1021
   61MOL   H10844628   6.626   2.415   1.015  1.3633  2.6031  0.2336
   61MOL   H10944629   6.574   2.555   0.917 -0.6207 -0.7373 -1.1745
   61MOL   H11044630   6.491   2.440   0.733  0.7860  1.2032  1.5130
   61MOL   H11144631   6.525   2.282   0.805 -0.5999 -0.8256 -1.0178
   61MOL   H11244632   6.748   2.293   0.751 -0.9021 -0.9268 -2.9278
   61MOL   C11344633   6.758   2.476   0.672  0.8536 -0.3688  1.1615
   61MOL   O11444634   6.707   2.581   0.636  0.2524 -0.5622 -0.3886
   61MOL   C11544635   6.908   2.444   0.648 -0.4715  0.3503  0.2104
   61MOL   C11644636   6.977   2.501   0.517  0.5768  1.0031  0.5691
   61MOL   C11744637   6.900   2.489   0.388  0.5689  0.1915 -0.1373
   61MOL   C11844638   6.924   2.597   0.286 -0.0767 -0.6779  0.1330
   61MOL   C11944639   6.851   2.563   0.156  0.2106  0.0549  0.5779
   61MOL   C12044640   6.873   2.677   0.054  0.2250  0.0953 -0.4839
   61MOL   C12144641   6.847   2.637   7.599 -0.4322 -0.1495  0.0556
   61MOL   C12244642   6.698   2.616   7.569  0.2946 -0.7480 -0.4941
   61MOL   C12344643   6.668   2.514   7.459 -0.7163  0.1426 -0.3865
   61MOL   C12444644   6.521   2.504   7.425 -0.0261  0.1502  0.0877
   61MOL   C12544645   6.443   2.422   7.533 -0.4651 -0.3300 -0.9153
   61MOL   N12644646   6.305   2.409   7.491  0.3220 -0.1787  0.1354
   61MOL   H12744647   6.920   2.336   0.637  0.3356  0.3707  0.9145
   61MOL   H12844648   6.959   2.459   0.743  0.5246 -1.3362 -0.0234
   61MOL   H12944649   7.003   2.604   0.541  0.2534  1.3076 -0.3695
   61MOL   H13044650   7.074   2.456   0.495  0.1993  0.8951 -0.9273
   61MOL   H13144651   6.793   2.488   0.407  0.6002  0.9329  0.0849
   61MOL   H13244652   6.918   2.389   0.348 -1.7122 -0.3596  0.1299
   61MOL   H13344653   6.891   2.693   0.327  1.6877 -0.7363  1.7423
   61MOL   H13444654   7.029   2.622   0.273 -0.5076  0.7831 -0.6493
   61MOL   H13544655   6.744   2.546   0.164  0.5659 -2.0452  1.0233
   61MOL   H13644656   6.895   2.467   0.130 -2.0690 -0.9184  0.1956
   61MOL   H13744657   6.973   2.719   0.063 -0.2136  0.9358  0.5305
   61MOL   H13844658   6.813   2.765   0.076  0.0329 -0.7321  2.4550
   61MOL   H13944659   6.909   2.552   7.570 -2.4318 -2.0609  1.3214
   61MOL   H14044660   6.886   2.717   7.535 -0.4470  1.3439  1.8505
   61MOL   H14144661   6.662   2.717   7.547  2.5850 -0.2312 -1.9814
   61MOL   H14244662   6.652   2.591   7.664  0.6014 -1.7056 -0.5976
   61MOL   H14344663   6.698   2.414   7.493  0.7816  0.2093 -1.4316
   61MOL   H14444664   6.713   2.548   7.366 -2.9171  0.9906 -1.1732
   61MOL   H14544665   6.500   2.462   7.327 -2.3647 -0.9423  1.0193
   61MOL   H14644666   6.496   2.607   7.402  2.0833 -0.0587 -3.4557
   61MOL   H14744667   6.432   2.464   7.633 -0.1439 -2.5733  0.0989
   61MOL   H14844668   6.483   2.324   7.556  0.1841  0.3937  1.1899
   61MOL   H14944669   6.283   2.407   7.392  1.2226 -0.0193 -0.0673
   61MOL   C15044670   6.210   2.363   7.574  0.0150  0.1992 -0.7379
   61MOL   O15144671   6.237   2.322   7.684 -0.1639 -0.0477 -0.7620
   61MOL   C15244672   6.070   2.338   7.517  0.1985 -0.0204  0.2149
   61MOL   C15344673   5.963   2.453   7.546  1.2986  1.1097  0.8601
   61MOL   C15444674   5.983   2.564   7.436  0.2456 -1.1577  0.0071
   61MOL   C15544675   5.890   2.678   7.475 -0.3627 -0.9729  0.1455
   61MOL   C15644676   5.873   2.801   7.382 -1.1238 -0.0489  0.4058
   61MOL   C15744677   6.018   2.849   7.345 -0.8839  0.1854 -0.1941
   61MOL   C15844678   6.024   3.000   7.303 -0.0514 -0.4625  0.2770
   61MOL   C15944679   6.164   3.069   7.316  1.0606 -0.0792  0.0751
   61MOL   C16044680   6.173   3.169   7.200  0.3405  0.5496  0.1096
   61MOL   C16144681   6.309   3.245   7.186 -0.3756  0.2646  0.3088
   61MOL   C16244682   6.294   3.366   7.090  0.0975  0.3205  0.2005
   61MOL   N16344683   6.410   3.447   7.078 -0.5437 -0.5641  0.1925
   61MOL   H16444684   6.029   2.249   7.564 -0.2832  2.3205  4.5133
   61MOL   H16544685   6.075   2.314   7.411 -0.6677  0.1719  0.1266
   61MOL   H16644686   5.861   2.414   7.544  1.9975 -0.7052 -1.0040
   61MOL   H16744687   5.988   2.485   7.647  2.2879 -1.1306  1.3509
   61MOL   H16844688   5.968   2.535   7.332  0.4116  2.0021 -0.9793
   61MOL   H16944689   6.086   2.599   7.445 -1.3487  3.6338  1.2769
   61MOL   H17044690   5.788   2.654   7.504 -0.7885 -0.6018 -1.0024
   61MOL   H17144691   5.932   2.719   7.567  2.6374 -2.1541 -0.6525
   61MOL   H17244692   5.812   2.881   7.423 -2.7371 -1.3979  0.6894
   61MOL   H17344693   5.832   2.766   7.288  0.4735 -0.4260 -0.1655
   61MOL   H17444694   6.071   2.777   7.282 -0.0729  0.0659  0.5964
   61MOL   H17544695   6.091   2.845   7.427  1.5721 -1.2599 -2.3626
   61MOL   H17644696   5.957   3.057   7.367 -0.7311  0.1775 -0.9991
   61MOL   H17744697   5.983   3.015   7.204  0.3575  1.6271  0.3854
   61MOL   H17844698   6.244   2.997   7.303  2.1666  1.5312 -2.4894
   61MOL   H17944699   6.175   3.118   7.412  1.0965  0.5265 -0.2324
   61MOL   H18044700   6.101   3.250   7.214 -1.3691 -0.9998  0.4055
   61MOL   H18144701   6.140   3.119   7.109 -1.8064 -0.0284  1.1612
   61MOL   H18244702   6.385   3.179   7.143  2.0168  1.5113  2.4414
   61MOL   H18344703   6.352   3.266   7.284  0.5680 -2.8769  0.6162
   61MOL   H18444704   6.209   3.429   7.114 -0.4666 -1.4132  3.0608
   61MOL   H18544705   6.267   3.330   6.991  2.2103 -0.3316 -0.1713
   61MOL   H18644706   6.494   3.414   7.124  0.6247  3.1251  0.8281
   61MOL   C18744707   6.419   3.558   6.998 -0.5599 -0.1183 -0.2812
   61MOL   O18844708   6.337   3.600   6.918 -0.1955 -0.5445 -0.1493
   61MOL   C18944709   6.549   3.637   7.012 -1.1411 -0.2671 -0.0135
   61MOL   C19044710   6.578   3.717   6.880 -0.3151 -0.7258  0.2290
   61MOL   C19144711   6.628   3.633   6.763  0.3416  0.0001  0.1581
   61MOL   C19244712   6.647   3.695   6.625  0.3162 -0.6901 -0.3841
   61MOL   C19344713   6.741   3.819   6.615 -0.5803 -0.0810 -0.5864
   61MOL   C19444714   6.705   3.924   6.515 -0.2549 -0.1009 -0.0689
   61MOL   C19544715   6.781   4.054   6.540 -0.6519  0.5437  0.3018
   61MOL   C19644716   6.764   4.176   6.438 -0.5892 -0.5644 -0.5557
   61MOL   C19744717   6.654   4.285   6.473  0.0542  0.3898 -0.4684
   61MOL   C19844718   6.513   4.227   6.473 -0.1587  0.3399  0.2979
   61MOL   C19944719   6.410   4.340   6.492  0.2967 -0.3112 -0.3026
   61MOL   N20044720   6.279   4.280   6.489  0.0897  0.2629 -0.0481
   61MOL   H20144721   6.626   3.564   7.032  0.0666  0.4824 -1.7332
   61MOL   H20244722   6.539   3.699   7.101  0.1807 -0.3202  0.1712
   61MOL   H20344723   6.491   3.770   6.840 -0.1388 -0.9615 -0.4898
   61MOL   H20444724   6.645   3.798   6.909 -1.8749  1.3558 -1.8006
   61MOL   H20544725   6.568   3.544   6.744  0.2627  0.7258 -3.3250
   61MOL   H20644726   6.726   3.610   6.805  0.9905  1.9081 -0.2677
   61MOL   H20744727   6.665   3.618   6.550  2.2801  0.8719 -1.5940
   61MOL   H20844728   6.548   3.727   6.595  0.9688  2.6656  0.8689
   61MOL   H20944729   6.838   3.779   6.586 -0.5947 -0.3191 -0.3172
   61MOL   H21044730   6.758   3.853   6.717 -0.1774  0.6679 -0.9051
   61MOL   H21144731   6.599   3.947   6.526 -0.0676  0.0426  1.4801
   61MOL   H21244732   6.716   3.878   6.416  2.3860 -1.2716  0.7282
   61MOL   H21344733   6.887   4.029   6.548 -0.9850 -0.4894  1.7888
   61MOL   H21444734   6.757   4.081   6.643 -1.5987 -2.7778  0.9955
   61MOL   H21544735   6.742   4.135   6.339  3.3057 -0.3793 -1.5801
   61MOL   H21644736   6.861   4.222   6.419 -1.1317  0.1095 -1.7726
   61MOL   H21744737   6.661   4.376   6.413  0.0804  0.4786 -0.3295
   61MOL   H21844738   6.684   4.316   6.573  0.6960  1.0255 -0.8476
   61MOL   H21944739   6.510   4.151   6.551 -1.1304  1.6991  1.6005
   61MOL   H22044740   6.495   4.179   6.377 -1.8882  0.7241  0.4189
   61MOL   H22144741   6.416   4.413   6.411 -0.4356 -0.9379 -0.9254
   61MOL   H22244742   6.425   4.387   6.589  2.0182  1.0373 -1.1884
   61MOL   H22344743   6.246   4.245   6.578  0.4362 -3.1914 -1.2082
   61MOL   C22444744   6.198   4.271   6.380  0.4559  0.6804 -0.1592
   61MOL   O22544745   6.222   4.335   6.279 -0.0087  0.0234 -0.5434
   61MOL   C22644746   6.060   4.198   6.390  0.3748  0.9516  0.3641
   61MOL   C22744747   6.046   4.073   6.298 -0.1749 -0.0896 -0.4950
   61MOL   C22844748   6.031   4.108   6.145 -0.1939  0.3352  0.1055
   61MOL   C22944749   5.914   4.199   6.112  0.2813 -0.5227  0.1576
   61MOL   C23044750   5.905   4.221   5.959 -0.0662  0.1432 -0.0670
   61MOL   C23144751   5.796   4.320   5.911  0.6809 -0.0797 -0.9514
   61MOL   C23244752   5.814   4.344   5.761  0.6834 -0.2183 -0.7943
   61MOL   C23344753   5.727   4.459   5.703  0.2510 -0.2590 -0.7028
   61MOL   C23444754   5.743   4.586   5.777  1.1399 -0.6755  0.2053
   61MOL   C23544755   5.624   4.682   5.754 -0.3851  0.1935 -0.0100
   61MOL   C23644756   5.495   4.655   5.831 -0.0035 -0.1808 -0.8333
   61MOL   N23744757   5.518   4.667   5.978  0.2803  0.3925 -0.2332
   61MOL   H23844758   5.974   4.262   6.377 -0.8597 -0.5587  0.9978
   61MOL   H23944759   6.056   4.164   6.493 -0.5057 -2.1095 -0.6210
   61MOL   H24044760   6.132   4.006   6.305  0.0715  0.3123  0.3686
   61MOL   H24144761   5.957   4.018   6.327  1.3898 -2.0968  0.6232
   61MOL   H24244762   6.031   4.018   6.084  3.1813  1.0381 -1.0532
   61MOL   H24344763   6.119   4.156   6.101 -0.4989  0.6631 -0.1512
   61MOL   H24444764   5.823   4.151   6.148  0.1342  0.6296  1.3856
   61MOL   H24544765   5.934   4.296   6.158  1.6017 -0.4552 -0.5215
   61MOL   H24644766   5.887   4.130   5.902 -0.5687 -0.3605  0.8697
   61MOL   H24744767   6.002   4.255   5.923 -0.5056  2.9323  1.2330
   61MOL   H24844768   5.815   4.406   5.975 -0.9701 -1.3872  1.3581
   61MOL   H24944769   5.695   4.288   5.937  0.4473  1.1369 -0.3165
   61MOL   H25044770   5.789   4.254   5.705 -0.8402 -1.0055  1.0934
   61MOL   H25144771   5.918   4.362   5.732  0.3670  0.2992 -1.6059
   61MOL   H25244772   5.627   4.419   5.684  0.6018 -0.9355 -1.1736
   61MOL   H25344773   5.769   4.473   5.603 -1.0444  0.7896 -1.1183
   61MOL   H25444774   5.835   4.636   5.745  0.3805  0.0216 -0.9360
   61MOL   H25544775   5.740   4.573   5.885  1.0187  0.5232  0.3562
   61MOL   H25644776   5.593   4.685   5.649 -0.8672 -0.1568  0.1236
   61MOL   H25744777   5.655   4.781   5.788  0.0322  0.5772 -1.4286
   61MOL   H25844778   5.467   4.552   5.809 -1.6133 -0.4534  2.1970
   61MOL   H25944779   5.409   4.717   5.805 -0.6878 -0.3952  0.8402
   61MOL   H26044780   5.493   4.586   6.033  0.3178  1.2896  1.1112
   61MOL   C26144781   5.532   4.782   6.042 -0.4297  0.8081  0.5135
   61MOL   O26244782   5.540   4.889   5.978  0.1442 -0.2627  0.2627
   61MOL   C26344783   5.549   4.773   6.198 -0.0318 -0.0866 -0.0836
   61MOL   C26444784   5.563   4.910   6.272 -0.5433 -0.1075  0.1787
   61MOL   C26544785   5.709   4.958   6.265 -0.7483  0.4331  0.1067
   61MOL   C26644786   5.726   5.096   6.338 -0.2998  0.4790  0.6416
   61MOL   C26744787   5.847   5.177   6.279  0.4402  0.9141 -0.3543
   61MOL   C26844788   5.872   5.293   6.369 -0.2599  0.0487 -0.5904
   61MOL   C26944789   5.998   5.374   6.324  0.2096  0.6603  0.7756
   61MOL   C27044790   6.036   5.481   6.421  0.1304  1.0047  0.0457
   61MOL   C27144791   6.151   5.570   6.369  0.5334  0.1713 -0.3180
   61MOL   C27244792   6.208   5.674   6.473  0.0207 -0.1626 -0.1707
   61MOL   C27344793   6.099   5.779   6.497 -0.5100 -0.0692 -0.6096
   61MOL   N27444794   6.158   5.894   6.557  0.0118  0.2773  0.1407
   61MOL   H27544795   5.640   4.715   6.214 -0.0599 -0.4392 -1.1970
   61MOL   H27644796   5.467   4.706   6.225  0.1471 -0.8654 -1.4480
   61MOL   H27744797   5.503   4.989   6.228  0.5856 -0.1370 -1.4803
   61MOL   H27844798   5.548   4.897   6.379  0.8353  1.1923  0.5463
   61MOL   H27944799   5.736   4.968   6.160 -2.7387  3.1914 -0.1998
   61MOL   H28044800   5.775   4.881   6.304 -2.3780 -0.0766  1.9238
   61MOL   H28144801   5.631   5.149   6.335 -0.2828  0.4283 -1.7023
   61MOL   H28244802   5.738   5.085   6.446  0.7918  0.2934  0.5038
   61MOL   H28344803   5.825   5.208   6.177  0.0628 -0.5662 -0.7342
   61MOL   H28444804   5.932   5.110   6.268 -0.6581 -0.6897  0.7307
   61MOL   H28544805   5.874   5.275   6.476 -2.1554 -0.1442 -0.5619
   61MOL   H28644806   5.794   5.369   6.356 -0.6672 -0.4833 -1.2807
   61MOL   H28744807   5.970   5.429   6.235  2.2333  1.0280  0.3375
   61MOL   H28844808   6.082   5.309   6.299  2.0638  2.9160  0.9878
   61MOL   H28944809   6.084   5.443   6.512  1.4975  0.0424 -1.0499
   61MOL   H29044810   5.946   5.539   6.443 -0.3167  0.2632  0.1995
   61MOL   H29144811   6.127   5.615   6.272 -0.6591 -0.4687 -0.3256
   61MOL   H29244812   6.233   5.503   6.341 -1.4175 -2.5809  0.3700
   61MOL   H29344813   6.302   5.710   6.431 -0.0937  0.3463  0.0081
   61MOL   H29444814   6.232   5.633   6.571 -0.2755  2.5980  1.1028
   61MOL   H29544815   6.018   5.738   6.558 -0.6556 -0.6155 -1.1595
   61MOL   H29644816   6.050   5.797   6.401 -1.2707  0.4182 -0.1396
   61MOL   H29744817   6.248   5.893   6.603  0.1108  1.9109  0.0389
   61MOL   C29844818   6.096   6.014   6.562  0.0715 -0.2517 -0.1458
   61MOL   O29944819   5.988   6.044   6.507  0.0851  0.3883  0.5821
   61MOL   C30044820   6.184   6.123   6.635 -0.4039  0.2191 -0.2765
   61MOL   C30144821   6.107   6.250   6.677  0.5012 -0.0064  0.1845
   61MOL   C30244822   6.189   6.371   6.733 -0.6513  0.5944 -0.9533
   61MOL   C30344823   6.101   6.494   6.766 -0.3478 -0.1164 -0.5649
   61MOL   C30444824   6.011   6.479   6.887  0.1142 -0.2518 -0.2457
   61MOL   C30544825   6.101   6.491   7.014  0.6340 -0.0120 -0.2714
   61MOL   C30644826   6.022   6.525   7.136  0.8023 -0.2340  0.4426
   61MOL   C30744827   5.919   6.419   7.174  0.8194 -0.1610 -0.0285
   61MOL   C30844828   5.850   6.447   7.311  0.0607  0.1710 -0.4826
   61MOL   C30944829   5.736   6.547   7.307  0.0778  0.3160  0.3624
   61MOL   C31044830   5.664   6.560   7.442  0.2440 -0.4463  0.3940
   61MOL   N31144831   5.545   6.639   7.421  0.3357  0.5063 -0.1558
   61MOL   H31244832   6.265   6.147   6.566 -0.3443  0.5984 -0.0765
   61MOL   H31344833   6.235   6.083   6.722 -0.4800  1.2232  0.2393
   61MOL   H31444834   6.060   6.285   6.585  1.5242  1.2590  0.1290
   61MOL   H31544835   6.033   6.235   6.755  0.7723 -0.4187  0.3598
   61MOL   H31644836   6.276   6.397   6.672 -0.9003  1.6491 -0.8633
   61MOL   H31744837   6.240   6.328   6.819  2.2161  0.1998 -2.7841
   61MOL   H31844838   6.174   6.573   6.781  0.5073 -0.9077 -0.5253
   61MOL   H31944839   6.043   6.520   6.677  0.6218  1.0012 -0.8882
   61MOL   H32044840   5.948   6.390   6.874  0.4357 -0.6954  1.1293
   61MOL   H32144841   5.933   6.555   6.897  0.1349 -0.1596 -0.8046
   61MOL   H32244842   6.174   6.569   6.994 -1.2009  1.3110 -2.0550
   61MOL   H32344843   6.158   6.399   7.021 -0.3911 -0.7295 -1.1841
   61MOL   H32444844   5.990   6.629   7.124 -0.3938 -0.3430  2.4194
   61MOL   H32544845   6.096   6.542   7.215  0.1286  2.6072  0.5247
   61MOL   H32644846   5.972   6.324   7.182  2.7898  0.9631  0.7067
   61MOL   H32744847   5.845   6.413   7.095  0.0676  0.7355  0.5922
   61MOL   H32844848   5.917   6.494   7.383  0.5856 -0.5105 -0.5235
   61MOL   H32944849   5.817   6.351   7.350 -3.4520  1.2643 -0.5833
   61MOL   H33044850   5.669   6.525   7.224 -0.3112 -0.3589  0.8509
   61MOL   H33144851   5.782   6.644   7.290 -1.3525  1.2690  1.8957
   61MOL   H33244852   5.733   6.605   7.513  1.1153 -4.6825  2.4179
   61MOL   H33344853   5.642   6.460   7.478 -0.5839 -0.1168  0.8287
   61MOL   H33444854   5.483   6.613   7.345 -0.9307 -2.0509  1.6706
   61MOL   C33544855   5.515   6.751   7.488  0.0914 -0.5118  0.1989
   61MOL   O33644856   5.574   6.791   7.591  0.4532  0.2437 -0.0268
   61MOL   C33744857   5.404   6.834   7.424 -0.0988  0.6026 -0.6074
   61MOL   C33844858   5.465   6.954   7.343 -0.0236 -0.0265  0.8370
   61MOL   C33944859   5.489   6.928   7.200  0.8604 -0.5848  0.0873
   61MOL   C34044860   5.553   7.059   7.138 -0.3165  0.1196  0.0702
   61MOL   C34144861   5.698   7.099   7.176  0.8685  0.0910  0.1695
   61MOL   C34244862   5.754   7.212   7.090  0.2038  0.1100 -0.5856
   61MOL   C34344863   5.865   7.286   7.159  0.2086  0.1878 -0.3515
   61MOL   C34444864   5.941   7.367   7.052  0.1276  0.5378 -0.2650
   61MOL   C34544865   6.053   7.460   7.101  0.5675  0.0095 -0.3252
   61MOL   C34644866   6.129   7.516   6.981 -0.8504 -0.1385 -0.6684
   61MOL   C34744867   6.257   7.584   7.026  0.0026  0.2392  0.5916
   61MOL   N34844868   6.328   7.630   6.913 -0.3248  0.7692  0.1313
   61MOL   H34944869   5.350   6.882   7.506  0.2906  2.0372 -1.1816
   61MOL   H35044870   5.332   6.774   7.367 -0.6023 -0.6878  1.3462
   61MOL   H35144871   5.390   7.033   7.337 -0.2767 -0.2426  1.1409
   61MOL   H35244872   5.545   6.995   7.403 -0.7873  0.2178  1.6969
   61MOL   H35344873   5.403   6.890   7.144 -1.1189 -0.3981  2.8775
   61MOL   H35444874   5.566   6.852   7.200  1.5172  0.0698 -0.3772
   61MOL   H35544875   5.553   7.043   7.030 -3.4232  0.9122 -0.1072
   61MOL   H35644876   5.488   7.146   7.142  0.9906  1.0794  0.4117
   61MOL   H35744877   5.767   7.015   7.173 -1.3079 -1.6764 -2.0570
   61MOL   H35844878   5.695   7.145   7.275  0.2459  0.7721 -0.1657
   61MOL   H35944879   5.665   7.274   7.082 -0.4697 -0.7704  0.0348
   61MOL   H36044880   5.782   7.171   6.993  2.1088  2.1879 -0.9646
   61MOL   H36144881   5.929   7.218   7.216 -1.4844  0.0488  1.4205
   61MOL   H36244882   5.809   7.346   7.230  0.0051  0.2021 -0.5235
   61MOL   H36344883   5.870   7.434   7.004  0.7340  0.3972 -1.3728
   61MOL   H36444884   5.974   7.300   6.973  0.9193  1.8125 -1.0344
   61MOL   H36544885   6.116   7.420   7.180  1.8640  0.8410 -0.9254
   61MOL   H36644886   5.993   7.543   7.138  1.0023  0.4333 -0.5700
   61MOL   H36744887   6.065   7.591   6.933 -0.7380 -0.2700 -1.0244
   61MOL   H36844888   6.150   7.437   6.909  0.3145 -0.7246  0.3075
   61MOL   H36944889   6.318   7.515   7.085  1.4692  1.1550  0.1742
   61MOL   H37044890   6.227   7.665   7.092  2.0706  0.2923  1.4985
   61MOL   H37144891   6.322   7.566   6.835 -0.9924 -0.7280  1.3818
   61MOL   C37244892   6.394   0.050   6.900  0.5892 -0.4195  0.1683
   61MOL   O37344893   6.397   0.132   6.994  0.5555 -0.3963  0.4006
   61MOL   C37444894   6.479   0.071   6.773  0.6604  0.6080  0.5341
   61MOL   C37544895   6.532   0.217   6.756 -0.1400  0.5195  0.1160
   61MOL   C37644896   6.440   0.336   6.718 -1.0097 -0.7714  0.3180
   61MOL   C37744897   6.411   0.359   6.570  0.5951 -0.8046  1.0575
   61MOL   C37844898   6.340   0.487   6.533  0.1710  0.4731 -0.6136
   61MOL   C37944899   6.319   0.510   6.380 -0.1088 -0.0088 -0.1828
   61MOL   C38044900   6.284   0.654   6.356 -0.4248  0.0238 -0.1481
   61MOL   C38144901   6.217   0.672   6.217  0.4775  0.8003 -0.0581
   61MOL   C38244902   6.186   0.822   6.176 -0.1744  0.6659  0.5233
   61MOL   C38344903   6.121   0.844   6.034  0.0975 -0.2617  0.4066
   61MOL   C38444904   6.221   0.806   5.929 -0.9960  0.5258 -0.0786
   61MOL   N38544905   6.168   0.829   5.795 -0.2161 -0.1139  0.7812
   61MOL   H38644906   6.410   0.043   6.694  1.8408 -1.4400  0.1916
   61MOL   H38744907   6.553   7.684   6.773 -0.9453 -0.8766  0.8830
   61MOL   H38844908   6.570   0.245   6.854 -1.9985 -2.2341  1.6862
   61MOL   H38944909   6.622   0.217   6.695 -0.0069 -0.7243  0.2932
   61MOL   H39044910   6.496   0.422   6.755 -0.3294  0.5661 -3.5996
   61MOL   H39144911   6.345   0.330   6.770 -1.0681 -1.1338  0.1674
   61MOL   H39244912   6.504   0.352   6.513  0.6446 -1.1109  1.1771
   61MOL   H39344913   6.348   0.279   6.531  0.1448  0.2981 -0.4970
   61MOL   H39444914   6.404   0.567   6.568 -0.1504  0.0417  1.0068
   61MOL   H39544915   6.245   0.507   6.582  0.4549  0.4101 -0.0420
   61MOL   H39644916   6.260   0.432   6.332 -1.7898  1.6900 -0.9511
   61MOL   H39744917   6.418   0.501   6.337 -0.2808  0.0105 -0.5791
   61MOL   H39844918   6.380   0.705   6.368 -0.1734 -0.3303 -0.6282
   61MOL   H39944919   6.214   0.699   6.427  1.1676  0.0812  1.4128
   61MOL   H40044920   6.124   0.616   6.215  0.4908  0.7961 -2.2733
   61MOL   H40144921   6.294   0.618   6.161  1.0465 -1.4735  2.8035
   61MOL   H40244922   6.271   0.889   6.189  0.5555 -0.4620  1.7360
   61MOL   H40344923   6.114   0.861   6.247  0.1147  0.8114  0.7407
   61MOL   H40444924   6.079   0.943   6.015  0.1997 -0.0279  1.3667
   61MOL   H40544925   6.036   0.776   6.028  0.1570 -0.4327  1.3640
   61MOL   H40644926   6.244   0.700   5.936 -1.0797  0.3456 -2.1415
   61MOL   H40744927   6.309   0.868   5.947 -0.3423 -0.8879  1.8197
   61MOL   H40844928   6.150   0.742   5.746 -1.3131 -0.6559  2.1196
   61MOL   C40944929   6.183   0.944   5.726  0.6664 -0.5358 -0.7165
   61MOL   O41044930   6.222   1.043   5.779  0.0782 -0.0147  0.0372
   61MOL   C41144931   6.142   0.949   5.580  0.0645  0.4714  0.2107
   61MOL   C41244932   6.030   1.042   5.536  0.7125  0.2251 -0.2867
   61MOL   C41344933   5.887   0.990   5.513  0.5413 -0.2546 -0.1062
   61MOL   C41444934   5.791   1.117   5.476  0.6293  0.4030  0.2468
   61MOL   C41544935   5.776   1.228   5.580  0.2300  0.5675 -0.5089
   61MOL   C41644936   5.700   1.348   5.527 -0.7550 -0.4547  0.5805
   61MOL   C41744937   5.693   1.475   5.615  0.1590  0.1692  0.3604
   61MOL   C41844938   5.633   1.599   5.554 -0.1818  0.2716  0.0749
   61MOL   C41944939   5.485   1.618   5.557  0.7019 -0.0406  0.5276
   61MOL   C42044940   5.456   1.751   5.483 -0.2390 -0.4039 -0.3425
   61MOL   C42144941   5.309   1.798   5.500  0.4171 -0.5945  0.2869
   61MOL   N42244942   5.211   1.701   5.459 -1.0816 -0.2532 -0.2975
   61MOL   H42344943   6.109   0.847   5.559 -0.4297  0.2742  1.8414
   61MOL   H42444944   6.234   0.980   5.530  1.2948  0.3636  2.3257
   61MOL   H42544945   6.024   1.128   5.603 -1.4716 -0.5994  0.6298
   61MOL   H42644946   6.071   1.086   5.446 -1.4210  2.9102 -0.0229
   61MOL   H42744947   5.857   0.938   5.604  0.6238  2.2658  1.4004
   61MOL   H42844948   5.890   0.920   5.430 -0.1731  0.0262 -0.3691
   61MOL   H42944949   5.819   1.168   5.384 -1.1353  0.5027 -0.2419
   61MOL   H43044950   5.689   1.084   5.461  0.9021  0.0466 -0.8156
   61MOL   H43144951   5.865   1.266   5.629  0.1524  0.8635 -0.5973
   61MOL   H43244952   5.720   1.189   5.666  4.1403 -0.5672  1.6596
   61MOL   H43344953   5.601   1.321   5.491 -0.8157  0.1507  0.2910
   61MOL   H43444954   5.758   1.378   5.440  0.9838 -0.1753  1.8187
   61MOL   H43544955   5.794   1.499   5.648  0.8713 -2.0064 -0.1760
   61MOL   H43644956   5.649   1.443   5.709 -2.7596 -1.1973 -1.3716
   61MOL   H43744957   5.676   1.607   5.454 -0.3713 -0.2067 -0.0478
   61MOL   H43844958   5.674   1.683   5.610 -0.2029  0.2492  0.1243
   61MOL   H43944959   5.442   1.623   5.657  2.1936 -0.6791  1.2234
   61MOL   H44044960   5.426   1.533   5.525  2.6935 -0.7627 -1.3447
   61MOL   H44144961   5.481   1.747   5.377  0.6355 -0.7890 -0.1252
   61MOL   H44244962   5.531   1.821   5.519 -0.8431  0.9761 -1.7524
   61MOL   H44344963   5.279   1.877   5.432 -0.8636 -1.2137  0.1181
   61MOL   H44444964   5.293   1.830   5.603 -1.5389 -1.7174  0.3556
   61MOL   H44544965   5.232   1.666   5.366 -0.1716 -1.1428  0.2407
   61MOL   C44644966   5.107   1.662   5.536 -0.3065  0.5236 -0.5541
   61MOL   O44744967   5.091   1.701   5.654 -0.1730  0.4099  0.3144
   61MOL   C44844968   5.009   1.567   5.480 -0.3521 -0.4674 -0.1004
   61MOL   C44944969   4.958   1.468   5.589  0.0681  0.1679  0.0813
   61MOL   C45044970   4.836   1.376   5.534 -0.2996 -0.4387  0.8909
   61MOL   C45144971   4.806   1.250   5.619  0.3517  0.2163 -0.3411
   61MOL   C45244972   4.671   1.189   5.581 -0.0893 -0.0620 -0.0292
   61MOL   C45344973   4.666   1.041   5.622 -0.1907  0.2141 -0.1409
   61MOL   C45444974   4.530   0.980   5.611 -0.3421  0.0004 -0.3884
   61MOL   C45544975   4.524   0.832   5.657  0.4805  0.2465  0.3162
   61MOL   C45644976   4.375   0.778   5.643  0.6298 -0.3901  0.0124
   61MOL   C45744977   4.348   0.652   5.714  0.3465 -0.0811 -0.3315
   61MOL   C45844978   4.196   0.633   5.738 -0.2661 -0.1894 -0.3084
   61MOL   N45944979   4.161   0.547   5.855 -0.3286  0.3601  0.2123
   61MOL   H46044980   5.061   1.514   5.400 -0.7703 -1.7080  0.4341
   61MOL   H46144981   4.927   1.623   5.436 -0.1207  0.4437  0.5951
   61MOL   H46244982   5.038   1.402   5.624  1.0631  1.8133  0.9527
   61MOL   H46344983   4.911   1.512   5.677  2.2655  1.0883  0.8266
   61MOL   H46444984   4.846   1.347   5.429 -0.5211  2.0863  0.1332
   61MOL   H46544985   4.748   1.439   5.546  0.5239  0.8172  0.4654
   61MOL   H46644986   4.890   1.182   5.605  1.2900  1.4017 -0.6514
   61MOL   H46744987   4.785   1.282   5.721 -3.4954 -0.0872 -0.9538
   61MOL   H46844988   4.656   1.205   5.474  2.8304  0.2833 -0.4104
   61MOL   H46944989   4.592   1.241   5.635 -0.7221 -0.9059 -0.1258
   61MOL   H47044990   4.733   1.012   5.703 -2.6470 -3.8115  0.5607
   61MOL   H47144991   4.719   0.997   5.538  3.1587 -0.8845  2.4323
   61MOL   H47244992   4.479   0.992   5.516  4.4228  1.1366 -2.9231
   61MOL   H47344993   4.480   1.030   5.695  1.0216 -0.8407  0.9632
   61MOL   H47444994   4.560   0.845   5.759  0.9737  1.9964 -0.0529
   61MOL   H47544995   4.602   0.771   5.613 -0.0903 -0.3082  0.0792
   61MOL   H47644996   4.343   0.760   5.541 -2.3602  0.0029  0.8141
   61MOL   H47744997   4.320   0.863   5.685 -0.2292 -0.7056 -0.4531
   61MOL   H47844998   4.398   0.660   5.811  0.6258  0.5028 -0.5255
   61MOL   H47944999   4.391   0.562   5.668  0.0890 -0.3347 -0.0760
   61MOL   H48045000   4.157   0.591   5.645 -0.9963 -2.3075  0.9252
   61MOL   H48145001   4.154   0.732   5.752  1.6295  0.8781 -1.9754
   61MOL   H48245002   4.231   0.501   5.912 -1.1789 -0.0735  0.9179
   61MOL   C48345003   4.040   0.509   5.883  0.3122  0.1037  0.8064
   61MOL   O48445004   3.944   0.545   5.812 -0.1327  0.3592 -0.4581
   61MOL   C48545005   4.013   0.415   6.007 -0.1578  0.3941  0.3623
   61MOL   C48645006   3.942   0.284   5.978 -0.3711  0.3463  0.0748
   61MOL   C48745007   4.030   0.187   5.896 -0.0718  0.7482  0.4996
   61MOL   C48845008   3.956   0.054   5.884  0.6866 -0.4940 -0.0003
   61MOL   C48945009   4.024   7.635   5.814  0.4628  0.2305  0.6023
   61MOL   C49045010   4.046   7.644   5.660  0.5322  0.3411  0.6898
   61MOL   C49145011   4.130   7.528   5.606  0.3726  0.2983 -0.2409
   61MOL   C49245012   4.156   7.548   5.458  0.7515  0.9070 -1.0714
   61MOL   C49345013   4.265   7.641   5.416  0.1816  0.1133 -0.3238
   61MOL   C49445014   4.280   7.644   5.262  0.0218  0.0147 -0.2485
   61MOL   C49545015   4.416   0.010   5.219 -0.1318  0.9239 -0.3107
   61MOL   N49645016   4.442   7.681   5.074 -0.1560  0.2914 -0.2606
   61MOL   H49745017   3.953   0.479   6.071 -2.5712 -0.0552 -1.3990
   61MOL   H49845018   4.097   0.388   6.071  1.4853  0.9082 -1.5370
   61MOL   H49945019   3.924   0.231   6.072 -1.4627  1.0890  0.2905
   61MOL   H50045020   3.844   0.306   5.935 -0.9529  0.7076  1.5492
   61MOL   H50145021   4.113   0.168   5.963 -0.4397  0.9944  1.0320
   61MOL   H50245022   4.067   0.228   5.802 -0.5405  1.2008  0.5073
   61MOL   H50345023   3.938   0.020   5.986  1.7013 -1.1616 -0.0448
   61MOL   H50445024   3.850   0.056   5.858  0.4671 -0.4647  0.8868
   61MOL   H50545025   3.980   7.540   5.842  0.2310  0.1040 -0.1867
   61MOL   H50645026   4.122   7.631   5.862  0.5850  0.9547  0.4146
   61MOL   H50745027   4.097   0.043   5.635  0.7532  0.4612  1.5777
   61MOL   H50845028   3.947   7.638   5.616  1.5205  0.1140 -1.5901
   61MOL   H50945029   4.069   7.440   5.628  1.8515 -0.4233  1.1041
   61MOL   H51045030   4.223   7.518   5.661  0.8471  2.1148 -0.6927
   61MOL   H51145031   4.064   7.580   5.410 -1.1338 -3.1245 -0.3841
   61MOL   H51245032   4.177   7.449   5.418 -1.9986  0.7820 -2.3392
   61MOL   H51345033   4.361   7.614   5.458 -1.4708  0.2921  3.7702
   61MOL   H51445034   4.244   0.048   5.450 -2.3898 -0.6453  0.4204
   61MOL   H51545035   4.202   0.021   5.234  1.2820  1.3451 -0.4461
   61MOL   H51645036   4.273   7.547   5.213  2.1479  0.3136 -1.1880
   61MOL   H51745037   4.501   7.668   5.277 -0.1479  0.0359 -0.8277
   61MOL   H51845038   4.405   0.118   5.234 -0.2999  0.8325  0.2116
   61MOL   H51945039   4.371   0.030   5.017 -2.8745 -2.3487  0.9739
   61MOL   C52045040   4.538   7.613   5.020 -0.2086 -0.1625 -0.3145
   61MOL   O52145041   4.630   7.566   5.088 -0.7848 -0.4272  0.6089
   61MOL   C52245042   4.534   7.604   4.869  0.0785 -0.2719 -0.5991
   61MOL   C52345043   4.633   7.509   4.810  0.3909 -0.1714 -0.1518
   61MOL   C52445044   4.585   7.364   4.823  0.0528  0.5927 -0.0816
   61MOL   C52545045   4.692   7.266   4.760  0.4941 -0.6106 -1.0057
   61MOL   C52645046   4.663   7.117   4.781  1.0071 -0.0213  0.4117
   61MOL   C52745047   4.774   7.029   4.719  0.2555 -1.1249 -0.5171
   61MOL   C52845048   4.746   6.880   4.748 -0.3423  0.6005 -1.0837
   61MOL   C52945049   4.865   6.789   4.720 -0.3464  0.0310 -0.1587
   61MOL   C53045050   4.858   6.653   4.784  0.0459  0.1226 -0.2613
   61MOL   C53145051   4.951   6.544   4.723 -0.2103  0.3528 -0.4121
   61MOL   C53245052   5.099   6.576   4.726 -0.0599  0.7983 -0.1127
   61MOL   N53345053   5.178   6.466   4.670  0.1569 -0.6215 -0.6470
   61MOL   H53445054   4.563   0.004   4.822  3.0402 -0.4547  0.7658
   61MOL   H53545055   4.429   7.582   4.850 -0.2553 -0.2948  1.1815
   61MOL   H53645056   4.621   7.539   4.706 -0.0858 -0.7767 -0.2769
   61MOL   H53745057   4.731   7.520   4.856 -0.4918  1.3365  1.4290
   61MOL   H53845058   4.490   7.351   4.771  0.3478 -3.2020  0.1941
   61MOL   H53945059   4.574   7.340   4.929  1.5354 -0.7404 -0.1913
   61MOL   H54045060   4.709   7.292   4.655  2.5665 -1.1764 -0.8443
   61MOL   H54145061   4.785   7.298   4.807 -1.1077 -0.2067  1.9918
   61MOL   H54245062   4.571   7.090   4.730 -0.3084  0.7470  2.3469
   61MOL   H54345063   4.656   7.095   4.887 -0.4095 -0.3802  0.2490
   61MOL   H54445064   4.865   7.066   4.765 -1.8909  3.0718  0.6332
   61MOL   H54545065   4.787   7.036   4.611 -1.8892 -1.7953 -0.8533
   61MOL   H54645066   4.667   6.841   4.683 -1.0413  1.7041 -0.9207
   61MOL   H54745067   4.710   6.867   4.850 -1.9757  1.3928 -1.5443
   61MOL   H54845068   4.960   6.842   4.728  0.2458 -0.9245 -0.7421
   61MOL   H54945069   4.866   6.774   4.612 -1.6127  1.1520 -0.3346
   61MOL   H55045070   4.755   6.620   4.778  0.6895 -1.7651 -1.2771
   61MOL   H55145071   4.883   6.657   4.890 -1.0428  2.6386 -0.0742
   61MOL   H55245072   4.917   6.531   4.620 -3.9518 -0.0255  0.7962
   61MOL   H55345073   4.920   6.453   4.775  0.9410 -0.6219 -1.4112
   61MOL   H55445074   5.121   6.599   4.830 -0.9271 -1.3574  0.5653
   61MOL   H55545075   5.128   6.668   4.674  1.3659 -0.6047 -1.8848
   61MOL   H55645076   5.143   6.374   4.692 -3.0854  1.1429  1.9842
   61MOL   C55745077   5.282   6.469   4.585 -0.1111  0.7986 -0.4081
   61MOL   O55845078   5.334   6.575   4.543 -0.1132  0.4764 -0.0242
   61MOL   C55945079   5.329   6.337   4.533 -0.1235  0.5630 -0.7242
   61MOL   C56045080   5.380   6.347   4.393 -0.0369 -0.4400 -0.8134
   61MOL   C56145081   5.286   6.369   4.277  0.5265 -0.3254  0.1368
   61MOL   C56245082   5.209   6.240   4.246 -0.0293 -0.1763 -0.2581
   61MOL   C56345083   5.082   6.255   4.162  0.9162 -0.1742 -1.2071
   61MOL   C56445084   5.032   6.122   4.107  0.3951 -0.9486  0.3870
   61MOL   C56545085   4.888   6.114   4.062  0.1529 -0.2806 -0.1509
   61MOL   C56645086   4.886   6.127   3.916 -0.1167  0.2302  0.0006
   61MOL   C56745087   4.942   6.250   3.845 -0.5514  0.1034 -0.0744
   61MOL   C56845088   4.895   6.389   3.890  0.3893  0.2286 -0.1990
   61MOL   C56945089   4.948   6.493   3.796 -0.3238 -0.6829 -0.6694
   61MOL   N57045090   4.908   6.623   3.839  0.5827  0.5352  0.0651
   61MOL   H57145091   5.247   6.266   4.531 -0.3099  0.7712 -0.4121
   61MOL   H57245092   5.403   6.290   4.598 -1.6995 -1.9266 -0.6410
   61MOL   H57345093   5.462   6.418   4.384 -1.5914  1.4610 -0.4228
   61MOL   H57445094   5.436   6.255   4.376 -0.5675 -0.9199 -0.0439
   61MOL   H57545095   5.338   6.411   4.191 -1.4921  0.2620 -0.8150
   61MOL   H57645096   5.207   6.437   4.307 -0.8892 -1.8340 -0.0956
   61MOL   H57745097   5.267   6.155   4.210 -1.5762 -1.9485  1.3321
   61MOL   H57845098   5.177   6.195   4.340  1.6586 -1.9154 -0.4748
   61MOL   H57945099   5.100   6.332   4.087  1.0114  0.7325 -0.2635
   61MOL   H58045100   5.006   6.297   4.229  2.2512 -0.0580  0.2726
   61MOL   H58145101   5.039   6.047   4.186 -0.2104 -0.5329  0.8391
   61MOL   H58245102   5.102   6.095   4.027 -0.4731  3.2225 -1.9358
   61MOL   H58345103   4.834   6.195   4.111  3.2527  2.6135 -1.3926
   61MOL   H58445104   4.846   6.016   4.088 -0.9721  0.5261  1.1670
   61MOL   H58545105   4.778   6.127   3.900 -0.2308 -1.4092  0.7227
   61MOL   H58645106   4.923   6.037   3.868 -0.6389 -1.1646  2.1311
   61MOL   H58745107   4.904   6.246   3.743  0.3780  1.6134 -0.5018
   61MOL   H58845108   5.051   6.245   3.839 -0.6007  0.3683 -1.3788
   61MOL   H58945109   4.914   6.412   3.995 -2.3870  0.3606  0.3164
   61MOL   H59045110   4.786   6.392   3.893  0.2461 -3.0625 -0.6718
   61MOL   H59145111   4.931   6.478   3.689 -2.7136  1.6969 -0.6627
   61MOL   H59245112   5.057   6.494   3.806 -0.2852  1.8142 -0.9560
   61MOL   H59345113   4.971   6.666   3.905 -0.6402 -0.4647  1.9020
   61MOL   C59445114   4.788   6.677   3.819  0.1288 -0.8605  0.0613
   61MOL   O59545115   4.700   6.630   3.747  0.2395  0.5408  0.1477
   61MOL   C59645116   4.782   6.815   3.876  0.0378  0.3305  0.2920
   61MOL   C59745117   4.774   6.930   3.776 -0.0884  0.2836 -0.1243
   61MOL   C59845118   4.894   6.941   3.682  0.4794  0.5816 -0.2914
   61MOL   C59945119   4.895   7.074   3.606  0.5147  0.6887  0.3489
   61MOL   C60045120   5.020   7.077   3.511  0.7113  0.1838 -0.6199
   61MOL   C60145121   5.033   7.211   3.439 -0.5562 -0.1531  0.1044
   61MOL   C60245122   5.100   7.307   3.541 -0.2365 -0.2146  0.2085
   61MOL   C60345123   5.084   7.454   3.515 -0.1642  0.2588  0.2124
   61MOL   C60445124   4.953   7.521   3.533  0.4645  0.3601  0.1798
   61MOL   C60545125   4.873   7.487   3.659 -0.1858  0.0189  0.2497
   61MOL   C60645126   4.732   7.551   3.666  0.5441 -0.1926  0.3075
   61MOL   N60745127   4.725   0.004   3.649  0.5969 -1.3068  0.1089
   61MOL   H60845128   4.868   6.831   3.940  0.2972 -2.0965  0.6043
   61MOL   H60945129   4.696   6.811   3.943 -0.5498 -1.0629 -0.5268
   61MOL   H61045130   4.687   6.915   3.712 -0.0211 -2.2424  0.3472
   61MOL   H61145131   4.758   7.018   3.837  0.4295  0.9594 -0.9500
   61MOL   H61245132   4.879   6.855   3.616 -0.6608 -1.4611  2.5339
   61MOL   H61345133   4.984   6.923   3.741  0.8718  2.8531 -0.1575
   61MOL   H61445134   4.801   7.092   3.553  1.1632  1.2822 -0.6137
   61MOL   H61545135   4.889   7.160   3.674 -0.3084  1.2803 -0.4603
   61MOL   H61645136   5.007   6.994   3.441  0.1087  0.3408 -0.6965
   61MOL   H61745137   5.110   7.059   3.571 -0.3888 -1.2453  0.6408
   61MOL   H61845138   4.941   7.260   3.405  0.2133  0.6148 -0.9052
   61MOL   H61945139   5.106   7.204   3.359 -0.8913  1.3489 -0.3420
   61MOL   H62045140   5.203   7.272   3.547  0.2120  1.0686  0.1308
   61MOL   H62145141   5.070   7.290   3.645  0.8079  0.4696  0.6291
   61MOL   H62245142   5.120   7.480   3.415 -0.1333  2.7582  0.8506
   61MOL   H62345143   5.149   7.502   3.587  0.3502  1.7652 -1.2240
   61MOL   H62445144   4.891   7.506   3.444  0.2079 -0.5051  0.5039
   61MOL   H62545145   4.960   7.629   3.518 -0.4091  0.6295  1.6140
   61MOL   H62645146   4.929   7.506   3.750  0.5195 -0.1693 -0.1404
   61MOL   H62745147   4.847   7.381   3.658 -0.9534  0.1815 -3.0234
   61MOL   H62845148   4.696   7.512   3.761 -1.1608 -1.4540 -0.8178
   61MOL   H62945149   4.672   7.508   3.585 -0.7622  0.3309  0.9762
   61MOL   H63045150   4.685   0.036   3.562  0.0622 -1.3126  0.3520
   61MOL   C63145151   4.732   0.083   3.757 -1.0275 -0.7301 -0.2539
   61MOL   O63245152   4.765   0.047   3.869  1.2957 -0.2485  0.1098
   61MOL   C63345153   4.683   0.225   3.730  0.6081 -0.0639  0.2032
   61MOL   C63445154   4.788   0.335   3.771  0.5619  0.0088  0.3074
   61MOL   C63545155   4.913   0.368   3.674 -0.4045 -0.1208 -0.2844
   61MOL   C63645156   5.006   0.477   3.732  0.3996 -0.3282  0.3243
   61MOL   C63745157   5.123   0.509   3.633  0.4768  0.0863 -0.1515
   61MOL   C63845158   5.215   0.625   3.681  0.8784  0.0899  0.8314
   61MOL   C63945159   5.328   0.635   3.583 -0.1196  0.2431  0.3422
   61MOL   C64045160   5.433   0.734   3.635  0.0203 -0.2141  0.4894
   61MOL   C64145161   5.574   0.695   3.582  0.0583  0.4497  0.2144
   61MOL   C64245162   5.678   0.811   3.610 -0.0317 -0.4182  0.3473
   61MOL   C64345163   5.806   0.802   3.525 -0.4514 -0.3613 -0.4768
   61MOL   N64445164   5.879   0.930   3.524  0.3044  0.2816 -0.0624
   61MOL   H64545165   4.598   0.224   3.798 -0.1831 -0.4156 -0.7886
   61MOL   H64645166   4.643   0.235   3.630  1.1807 -0.2046 -0.0429
   61MOL   H64745167   4.735   0.430   3.776  0.3778 -0.0448 -0.5084
   61MOL   H64845168   4.829   0.313   3.869  0.8395 -0.8329  0.0063
   61MOL   H64945169   4.877   0.400   3.576 -0.3263 -0.9893 -0.5953
   61MOL   H65045170   4.963   0.273   3.657 -1.7214 -0.6054 -1.4971
   61MOL   H65145171   4.945   0.560   3.766 -0.9318 -1.4466  0.7370
   61MOL   H65245172   5.040   0.423   3.821 -0.5764 -2.4677 -0.5731
   61MOL   H65345173   5.082   0.550   3.541 -1.4803 -0.7027  0.3309
   61MOL   H65445174   5.188   0.424   3.611  0.3953  0.1932 -0.8031
   61MOL   H65545175   5.257   0.590   3.775 -0.7893 -2.6990  0.5993
   61MOL   H65645176   5.165   0.720   3.698  2.1017  0.7191  0.9095
   61MOL   H65745177   5.299   0.659   3.481  2.1762 -0.1758 -0.4532
   61MOL   H65845178   5.370   0.534   3.579 -0.1188  0.2212  0.9144
   61MOL   H65945179   5.435   0.739   3.744 -0.4940  2.4812  0.3986
   61MOL   H66045180   5.413   0.830   3.588 -2.2890 -1.0366 -0.2424
   61MOL   H66145181   5.562   0.673   3.476  1.7250  1.1667 -0.1415
   61MOL   H66245182   5.604   0.599   3.622  0.6512  0.1517 -0.9163
   61MOL   H66345183   5.698   0.804   3.717  3.0386 -2.3052 -0.2896
   61MOL   H66445184   5.629   0.907   3.594 -1.3697 -1.2966 -0.9729
   61MOL   H66545185   5.791   0.786   3.419 -2.6469  0.3695 -0.3106
   61MOL   H66645186   5.864   0.719   3.566  0.9968  1.0643  0.3958
   61MOL   H66745187   5.834   1.002   3.470 -0.5366  0.6309  1.0746
   61MOL   C66845188   6.003   0.955   3.568  0.3151 -0.2940  0.2594
   61MOL   O66945189   6.063   0.866   3.629  0.7827  0.5031 -0.6084
   61MOL   C67045190   6.062   1.089   3.549  0.4474 -0.4573  0.8523
   61MOL   C67145191   6.118   1.153   3.677 -0.7132  0.0583  0.1908
   61MOL   C67245192   6.116   1.308   3.676  0.0987 -0.5183 -0.0343
   61MOL   C67345193   6.202   1.372   3.787  0.5350 -0.4301  0.2674
   61MOL   C67445194   6.201   1.523   3.786  0.1519  0.0664  0.2307
   61MOL   C67545195   6.245   1.592   3.648  0.3058  0.1515  0.2614
   61MOL   C67645196   6.269   1.742   3.667 -0.1828  0.4298  0.5217
   61MOL   C67745197   6.387   1.769   3.754  0.0859  0.5362 -0.1070
   61MOL   C67845198   6.436   1.911   3.731 -0.9021 -0.7233 -0.3873
   61MOL   C67945199   6.560   1.934   3.820 -1.1254 -0.9700  0.1448
   61MOL   C68045200   6.599   2.085   3.851  0.0329  0.2412  0.5326
   61MOL   N68145201   6.663   2.146   3.728  0.5458  0.1326  0.2085
   61MOL   H68245202   6.000   1.168   3.508  1.6635  1.2267  2.2005
   61MOL   H68345203   6.135   1.080   3.469 -1.0768 -0.0566 -0.6098
   61MOL   H68445204   6.074   1.123   3.772  0.4751 -1.1522  0.3640
   61MOL   H68545205   6.223   1.126   3.685 -0.9816 -0.5916  1.6142
   61MOL   H68645206   6.011   1.334   3.679 -0.0471 -0.7642 -2.2355
   61MOL   H68745207   6.145   1.349   3.579 -1.0268 -1.8450 -0.9444
   61MOL   H68845208   6.157   1.343   3.882 -0.6525  0.8204  0.1077
   61MOL   H68945209   6.305   1.339   3.802  1.1709  1.5368  0.3784
   61MOL   H69045210   6.260   1.555   3.871 -0.6074  0.5676  0.5708
   61MOL   H69145211   6.101   1.557   3.810  1.2277  1.9547  2.1477
   61MOL   H69245212   6.168   1.561   3.578  0.8750  0.2566 -0.4229
   61MOL   H69345213   6.338   1.548   3.611 -0.0947  1.8716 -2.9483
   61MOL   H69445214   6.180   1.798   3.697  0.5196  1.2252  1.1575
   61MOL   H69545215   6.304   1.770   3.567  0.5236  0.3288  0.7346
   61MOL   H69645216   6.462   1.697   3.721 -2.2178 -0.2266 -4.0259
   61MOL   H69745217   6.360   1.750   3.858 -0.9319  1.2686 -0.2338
   61MOL   H69845218   6.351   1.977   3.746 -0.5873 -1.1661  4.1248
   61MOL   H69945219   6.464   1.930   3.627 -2.0986 -0.5166 -0.6691
   61MOL   H70045220   6.638   1.879   3.767 -0.3172 -0.7422  1.0866
   61MOL   H70145221   6.552   1.878   3.914  1.7646 -1.0668  0.3765
   61MOL   H70245222   6.675   2.082   3.929  1.0851 -1.9444 -0.5176
   61MOL   H70345223   6.511   2.136   3.889 -0.1758 -1.3929  2.3122
   61MOL   H70445224   6.640   2.102   3.641 -0.6165  0.0119  0.5702
   61MOL   C70545225   6.732   2.263   3.732  0.1327 -0.1571  0.0802
   61MOL   O70645226   6.765   2.320   3.836 -0.1114  0.2220 -0.2640
   61MOL   C70745227   6.773   2.324   3.596  0.5177 -0.9926 -0.6500
   61MOL   C70845228   6.668   2.423   3.524  0.1603  0.3200  0.4912
   61MOL   C70945229   6.644   2.551   3.603 -0.3560  0.5002 -0.0143
   61MOL   C71045230   6.615   2.662   3.500 -0.5325  0.4370  0.5404
   61MOL   C71145231   6.581   2.793   3.579  0.1243  0.0341 -0.1933
   61MOL   C71245232   6.537   2.903   3.486  0.0744 -0.1905  0.1831
   61MOL   C71345233   6.539   3.051   3.541 -0.5382  0.2637  0.2846
   61MOL   C71445234   6.527   3.158   3.431  0.6397 -0.0392 -0.0402
   61MOL   C71545235   6.498   3.292   3.498  0.5634 -0.1967 -0.8501
   61MOL   C71645236   6.458   3.405   3.394 -0.6473 -0.0599 -0.5127
   61MOL   C71745237   6.409   3.535   3.474  0.1194 -0.0608  0.5765
   61MOL   N71845238   6.392   3.650   3.385 -0.8301  0.4102 -0.8523
   61MOL   H71945239   6.790   2.241   3.528 -3.5995 -1.8743 -0.7306
   61MOL   H72045240   6.864   2.383   3.606 -0.0310  0.1484 -2.1641
   61MOL   H72145241   6.710   2.458   3.430 -0.1686 -1.1762 -0.2203
   61MOL   H72245242   6.568   2.382   3.507  1.2250 -2.0144 -0.3820
   61MOL   H72345243   6.728   2.580   3.666  0.8504  0.2788 -1.4872
   61MOL   H72445244   6.554   2.534   3.661  0.2058  0.1885  0.7809
   61MOL   H72545245   6.699   2.681   3.432  1.0625 -1.1237  2.0260
   61MOL   H72645246   6.533   2.638   3.433  0.6274 -0.0215 -0.7407
   61MOL   H72745247   6.663   2.837   3.637 -0.1876  0.6635 -0.2265
   61MOL   H72845248   6.510   2.779   3.661  0.0066 -1.8122 -0.5803
   61MOL   H72945249   6.446   2.876   3.432 -0.9810  1.4416  1.0654
   61MOL   H73045250   6.610   2.908   3.406 -1.0965  0.0071 -0.8893
   61MOL   H73145251   6.637   3.070   3.584 -0.2943  0.0773 -0.1853
   61MOL   H73245252   6.465   3.060   3.621 -0.7510 -1.8363  0.3674
   61MOL   H73345253   6.433   3.129   3.384  0.5668  1.1055 -0.6083
   61MOL   H73445254   6.616   3.158   3.369  0.0364 -1.3834 -0.9372
   61MOL   H73545255   6.589   3.316   3.554 -1.2120  1.2594  1.5262
   61MOL   H73645256   6.418   3.284   3.572 -0.6924 -0.8799 -2.2706
   61MOL   H73745257   6.385   3.373   3.321  0.9785  0.6168 -2.4666
   61MOL   H73845258   6.544   3.424   3.329 -0.9450  2.0818 -0.3173
   61MOL   H73945259   6.492   3.554   3.542  0.6712 -1.0807  0.2099
   61MOL   H74045260   6.319   3.521   3.533  0.3704 -2.2841  0.4926
   61MOL   H74145261   6.477   3.655   3.330 -0.2206 -2.2333 -0.1985
   61MOL   H74245262   6.313   3.632   3.325 -0.5963  3.6205 -2.2694
   62MOL     C145263   5.564   3.647   1.080  0.3502  0.7806 -0.4003
   62MOL     O245264   5.581   3.635   1.201 -0.2567  0.1143 -0.3545
   62MOL     C345265   5.648   3.577   0.975  0.0418  0.2035 -0.3061
   62MOL     C445266   5.717   3.447   1.021  0.5767  0.1013  0.2975
   62MOL     C545267   5.780   3.367   0.909  0.5259 -0.2984 -0.2025
   62MOL     C645268   5.836   3.232   0.949 -0.0866 -0.4293  0.3587
   62MOL     C745269   5.921   3.184   0.833  0.6392  0.4736 -0.6925
   62MOL     C845270   6.012   3.073   0.880  0.2102  0.3453 -0.0525
   62MOL     C945271   6.085   2.993   0.758 -0.7257 -0.1939 -0.5218
   62MOL    C1045272   6.216   2.930   0.801  0.6361  0.1015 -1.1083
   62MOL    C1145273   6.282   2.838   0.699 -0.0841 -0.7447  0.2011
   62MOL    C1245274   6.426   2.793   0.737 -0.4282  0.8759 -1.2043
   62MOL    C1345275   6.540   2.898   0.712  0.4311 -0.7764 -0.4855
   62MOL    N1445276   6.660   2.834   0.758 -0.2651 -0.6670 -1.0971
   62MOL    H1545277   5.725   3.654   0.967  0.3683  0.1217  1.7149
   62MOL    H1645278   5.600   3.555   0.880 -0.1188  0.0410 -0.1856
   62MOL    H1745279   5.786   3.457   1.105 -0.2621  2.8229  0.7071
   62MOL    H1845280   5.637   3.376   1.043  0.0250  0.9388  1.0523
   62MOL    H1945281   5.858   3.427   0.863  0.4132  0.6597  0.8448
   62MOL    H2045282   5.703   3.341   0.836 -1.3492 -0.9760  1.9705
   62MOL    H2145283   5.892   3.251   1.040  1.8809  1.8126 -1.2507
   62MOL    H2245284   5.763   3.156   0.980  0.3337 -0.7996  0.4393
   62MOL    H2345285   5.973   3.273   0.797 -0.7536  2.1937  1.3820
   62MOL    H2445286   5.860   3.142   0.753 -2.3158  2.7391  0.2772
   62MOL    H2545287   5.952   2.997   0.930  2.2673 -1.2106  0.1470
   62MOL    H2645288   6.088   3.118   0.944  3.0089 -1.8172 -1.7147
   62MOL    H2745289   6.106   3.061   0.676  0.3945 -1.8582 -1.6456
   62MOL    H2845290   6.019   2.917   0.717 -0.9335  1.0629 -2.5696
   62MOL    H2945291   6.188   2.883   0.895 -0.9751  0.5361 -1.3582
   62MOL    H3045292   6.293   3.001   0.835  1.6795 -0.3044 -2.5791
   62MOL    H3145293   6.305   2.875   0.599  2.9970 -2.3342  0.2272
   62MOL    H3245294   6.218   2.751   0.682  1.8818 -2.2012  0.0105
   62MOL    H3345295   6.460   2.709   0.676 -0.3354  0.1378 -0.1557
   62MOL    H3445296   6.420   2.759   0.841  0.4326 -0.2071 -1.5015
   62MOL    H3545297   6.516   2.985   0.773 -0.7912 -1.4501  0.0110
   62MOL    H3645298   6.549   2.913   0.604  1.2557  1.2318 -0.1603
   62MOL    H3745299   6.675   2.738   0.730  1.7129  0.0144 -2.5287
   62MOL    H3845300   5.484   3.709   1.039  1.2575  0.6272 -2.4687
   62MOL    C3945301   6.768   2.890   0.813 -0.5029 -0.2186  0.5327
   62MOL    O4045302   6.775   3.007   0.854  0.0233  0.4100 -0.1308
   62MOL    C4145303   6.891   2.799   0.824  1.0744 -0.6628 -0.0185
   62MOL    C4245304   6.959   2.798   0.959 -0.0295 -0.0682 -0.0372
   62MOL    C4345305   6.875   2.732   1.064  0.2380 -0.3006  0.0137
   62MOL    C4445306   6.921   2.763   1.201 -0.1763 -0.2364  0.1998
   62MOL    C4545307   6.894   2.641   1.296 -0.4156 -0.8258  0.4423
   62MOL    C4645308   6.909   2.667   1.446 -0.1173 -0.6784  0.1326
   62MOL    C4745309   6.895   2.542   1.531 -0.1592  0.8548  0.1318
   62MOL    C4845310   6.894   2.559   1.683  0.2298  0.0487 -0.1164
   62MOL    C4945311   7.020   2.604   1.746  0.5680  0.6065  0.0804
   62MOL    C5045312   7.139   2.515   1.724 -0.3478  0.1591 -0.5794
   62MOL    C5145313   7.260   2.568   1.802 -0.4302  0.4251 -0.0402
   62MOL    N5245314   7.308   2.686   1.740 -0.1245 -0.5353  0.4357
   62MOL    H5345315   6.969   2.831   0.754  1.1037 -0.6730  0.0095
   62MOL    H5445316   6.863   2.701   0.786 -1.5713 -0.4012  1.1488
   62MOL    H5545317   7.051   2.740   0.952 -0.4578 -0.5572 -1.6792
   62MOL    H5645318   6.986   2.898   0.993 -0.7632  0.4040 -0.8243
   62MOL    H5745319   6.900   2.627   1.057  1.3795  0.0315 -1.0746
   62MOL    H5845320   6.769   2.748   1.045  0.5486  0.5558 -1.0735
   62MOL    H5945321   7.028   2.781   1.193 -0.0430  0.0578  2.4772
   62MOL    H6045322   6.875   2.857   1.230  1.7597  0.9405 -0.4912
   62MOL    H6145323   6.966   2.563   1.270 -0.5265 -0.7086 -0.2326
   62MOL    H6245324   6.798   2.590   1.281 -0.7953 -0.3238  1.1664
   62MOL    H6345325   6.843   2.747   1.479 -0.3911 -0.5733 -0.6564
   62MOL    H6445326   7.007   2.710   1.467  0.1670 -1.1668 -0.1767
   62MOL    H6545327   6.976   2.475   1.503 -2.5312 -2.2642  0.4129
   62MOL    H6645328   6.804   2.487   1.508 -0.2356  0.9388  0.2326
   62MOL    H6745329   6.884   2.461   1.730  1.3667 -0.7072 -1.4303
   62MOL    H6845330   6.808   2.624   1.703  1.1176  1.9921 -2.3877
   62MOL    H6945331   7.006   2.609   1.854 -0.7009 -0.7779  0.0075
   62MOL    H7045332   7.034   2.709   1.722  2.3903 -0.1249 -2.2363
   62MOL    H7145333   7.157   2.509   1.617 -2.3953  1.0476 -0.9860
   62MOL    H7245334   7.114   2.413   1.755  0.9917 -0.4433 -1.3803
   62MOL    H7345335   7.341   2.494   1.808 -1.9204 -1.4669 -2.4414
   62MOL    H7445336   7.231   2.582   1.906  2.4808 -2.1585  1.2367
   62MOL    H7545337   7.233   2.753   1.729 -0.1859 -0.4094  1.5638
   62MOL    C7645338   7.435   2.714   1.687  0.9134 -0.4688 -0.3541
   62MOL    O7745339   7.527   2.632   1.699 -0.2276 -0.7583 -0.0005
   62MOL    C7845340   7.464   2.838   1.609  0.5241  0.7941 -0.1979
   62MOL    C7945341   7.375   2.826   1.474  0.0511  0.7621  0.9563
   62MOL    C8045342   7.421   2.718   1.368  0.1316  0.3280  0.1096
   62MOL    C8145343   7.346   2.733   1.237 -0.3633  0.4347 -0.2944
   62MOL    C8245344   7.379   2.623   1.141  0.3318 -0.8166  0.2756
   62MOL    C8345345   7.349   2.676   1.003  0.5648 -0.1626  0.0983
   62MOL    C8445346   7.358   2.569   0.892 -0.5777  0.3898 -0.7080
   62MOL    C8545347   7.258   2.450   0.907  0.2612 -0.1363 -0.6981
   62MOL    C8645348   7.254   2.349   0.785  0.1687 -0.1335  0.5655
   62MOL    C8745349   7.165   2.227   0.813 -1.0283  0.2070  0.0194
   62MOL    C8845350   7.121   2.145   0.693  0.3223  0.4492  0.1973
   62MOL    N8945351   7.029   2.036   0.735  0.2492 -0.0160  0.6915
   62MOL    H9045352   7.571   2.851   1.594  0.8637 -1.8111 -0.3954
   62MOL    H9145353   7.421   2.921   1.664 -0.4816  0.6246 -0.6997
   62MOL    H9245354   7.273   2.808   1.508  0.2773 -1.4747  0.5586
   62MOL    H9345355   7.355   2.925   1.433 -3.2460 -0.4987 -0.7322
   62MOL    H9445356   7.410   2.617   1.406 -0.4704 -0.2385 -1.5072
   62MOL    H9545357   7.527   2.735   1.350  0.7144  0.1998  3.1526
   62MOL    H9645358   7.240   2.732   1.266 -1.2973  0.3834 -3.5572
   62MOL    H9745359   7.361   2.835   1.202 -2.0951  1.3593  1.5097
   62MOL    H9845360   7.314   2.539   1.162 -0.7780 -0.0534 -0.0481
   62MOL    H9945361   7.483   2.592   1.144  0.5039 -0.1415  3.2224
   62MOL   H10045362   7.415   2.757   0.973 -0.1797 -0.0587 -1.3141
   62MOL   H10145363   7.244   2.707   1.003  0.8067  0.8005  3.2476
   62MOL   H10245364   7.459   2.529   0.893 -0.9269 -0.5549 -1.8969
   62MOL   H10345365   7.344   2.614   0.794 -0.3245 -0.8191 -1.3056
   62MOL   H10445366   7.159   2.486   0.935  0.6019 -0.5765  1.1973
   62MOL   H10545367   7.289   2.394   0.996 -0.3932 -1.9472 -1.5956
   62MOL   H10645368   7.356   2.313   0.771  0.0582 -0.7593  1.3926
   62MOL   H10745369   7.210   2.410   0.706  1.4574  1.8768  1.3589
   62MOL   H10845370   7.070   2.260   0.855 -0.4405  0.6602  0.9970
   62MOL   H10945371   7.214   2.161   0.885 -2.7093  0.2494  1.2328
   62MOL   H11045372   7.213   2.097   0.659 -0.6058  0.2248 -2.0455
   62MOL   H11145373   7.074   2.195   0.608 -0.1989  1.3308  0.9846
   62MOL   H11245374   7.062   1.941   0.732 -3.0171 -1.1863 -0.3528
   62MOL   C11345375   6.899   2.048   0.756  0.3412 -0.7997 -0.7217
   62MOL   O11445376   6.840   2.155   0.778  0.1462  0.1415  0.0276
   62MOL   C11545377   6.827   1.915   0.774 -0.7566  0.4553  0.0120
   62MOL   C11645378   6.683   1.905   0.717  0.1182  0.0638  0.1267
   62MOL   C11745379   6.681   1.913   0.559 -0.0878  0.4495 -0.0814
   62MOL   C11845380   6.578   2.010   0.511 -0.0617  0.0166  0.4549
   62MOL   C11945381   6.595   2.044   0.359  0.1082 -0.5628  0.0697
   62MOL   C12045382   6.719   2.129   0.308  0.3231  0.3249 -0.2521
   62MOL   C12145383   6.716   2.152   0.162  0.5684  0.1250  0.8727
   62MOL   C12245384   6.730   2.027   0.065  0.8861 -0.3817  0.1272
   62MOL   C12345385   6.872   1.975   0.071 -0.1552  0.0770 -0.3234
   62MOL   C12445386   6.878   1.850   7.675  0.1917  0.1937  0.6450
   62MOL   C12545387   7.018   1.788   7.672  0.1521  0.4432  0.0251
   62MOL   N12645388   7.010   1.653   7.624 -0.2230 -0.7661 -0.4689
   62MOL   H12745389   6.830   1.877   0.876 -1.9423  1.1318  0.3061
   62MOL   H12845390   6.895   1.843   0.727 -0.4728  0.7743 -0.0656
   62MOL   H12945391   6.642   1.807   0.742 -1.1986  0.6012  0.1304
   62MOL   H13045392   6.619   1.979   0.765 -0.3083 -0.5281  0.4814
   62MOL   H13145393   6.659   1.810   0.530 -1.0828  0.9476 -1.1304
   62MOL   H13245394   6.782   1.942   0.531 -0.3581 -0.7179 -2.3363
   62MOL   H13345395   6.484   1.960   0.531  1.0557 -2.4628 -0.2644
   62MOL   H13445396   6.568   2.099   0.574 -4.0717  0.2310 -0.3949
   62MOL   H13545397   6.507   2.100   0.328  1.4544  1.0797 -0.9173
   62MOL   H13645398   6.591   1.948   0.308 -1.8525 -0.5034  0.0978
   62MOL   H13745399   6.815   2.081   0.327  1.6314  2.2505 -1.7822
   62MOL   H13845400   6.717   2.216   0.373  1.9687 -0.0185  0.2647
   62MOL   H13945401   6.793   2.225   0.138 -0.1515  0.6485  0.1367
   62MOL   H14045402   6.622   2.204   0.145 -0.6331 -2.3916 -0.3951
   62MOL   H14145403   6.712   2.057   7.655 -1.4306 -2.8822 -0.2701
   62MOL   H14245404   6.659   1.947   0.088 -1.1000  1.0125 -0.9421
   62MOL   H14345405   6.902   1.953   0.174 -1.9353  1.2666  0.4745
   62MOL   H14445406   6.945   2.050   0.038 -1.1852  0.8582 -0.8360
   62MOL   H14545407   6.852   1.875   7.572 -0.3426  0.0492  0.7441
   62MOL   H14645408   6.803   1.784   0.024  0.4097  0.8491  2.0823
   62MOL   H14745409   7.077   1.779   0.069 -0.1858 -0.5889  0.1514
   62MOL   H14845410   7.077   1.857   7.611  1.0417  0.6347  1.0875
   62MOL   H14945411   6.922   1.609   7.650 -1.0227  2.5358  2.7768
   62MOL   C15045412   7.101   1.604   7.539  0.2592  0.4495  0.9556
   62MOL   O15145413   7.195   1.671   7.499 -0.3565 -0.1020  0.4535
   62MOL   C15245414   7.078   1.458   7.496 -0.5528 -0.2812  0.1465
   62MOL   C15345415   7.121   1.424   7.357  0.3824 -0.9599  0.2079
   62MOL   C15445416   7.067   1.292   7.300 -0.1754 -1.0808  0.5563
   62MOL   C15545417   7.094   1.174   7.393 -0.1095  0.3568 -0.2378
   62MOL   C15645418   7.072   1.039   7.326 -0.1322 -0.4403 -0.4768
   62MOL   C15745419   7.108   0.914   7.412  0.1411 -0.1924  0.0613
   62MOL   C15845420   7.055   0.774   7.363 -0.1808 -0.7768  0.0657
   62MOL   C15945421   7.058   0.748   7.207  0.4921  0.4819 -0.2017
   62MOL   C16045422   7.203   0.744   7.159  0.1055  0.3940  0.2766
   62MOL   C16145423   7.211   0.691   7.015  0.3850  0.1526  0.5442
   62MOL   C16245424   7.343   0.640   6.960  0.4655 -0.2588 -0.0460
   62MOL   N16345425   7.329   0.564   6.837 -0.5848  0.2453 -0.2158
   62MOL   H16445426   6.971   1.437   7.497 -0.6988  0.4825  0.8410
   62MOL   H16545427   7.122   1.390   7.568 -0.4122  2.0286  2.2940
   62MOL   H16645428   7.075   1.498   7.291  0.4417  1.5437  2.8486
   62MOL   H16745429   7.230   1.432   7.349  0.2472  3.9540  1.5765
   62MOL   H16845430   7.114   1.274   7.203 -0.5463  1.3018 -0.0896
   62MOL   H16945431   6.959   1.302   7.292 -0.0233 -0.0714 -0.4855
   62MOL   H17045432   7.190   1.187   7.444 -1.9408  1.6203  3.0478
   62MOL   H17145433   7.026   1.185   7.477  0.0149 -2.1663  0.2368
   62MOL   H17245434   7.105   1.034   7.222 -2.8157  0.2020 -1.4052
   62MOL   H17345435   6.964   1.032   7.309 -0.3594  1.1376  0.2287
   62MOL   H17445436   7.087   0.944   7.515 -1.1048 -0.9289  0.0269
   62MOL   H17545437   7.217   0.915   7.400  0.1776  0.2105  0.4247
   62MOL   H17645438   6.954   0.756   7.397  0.2600 -1.8865  0.8180
   62MOL   H17745439   7.113   0.695   7.412  4.4020  2.0378 -0.4703
   62MOL   H17845440   7.008   0.823   7.146  0.2100  1.9333  1.7781
   62MOL   H17945441   7.009   0.652   7.190 -1.1337  1.1821  0.4299
   62MOL   H18045442   7.271   0.694   7.227  1.3247  0.6789 -0.6996
   62MOL   H18145443   7.244   0.845   7.153 -0.9623  0.8983  1.4182
   62MOL   H18245444   7.167   0.772   6.958 -1.6341 -1.5932 -0.4417
   62MOL   H18345445   7.133   0.615   7.007  0.1922  0.6891 -3.0558
   62MOL   H18445446   7.387   0.587   7.045  0.1836 -1.4627 -0.6420
   62MOL   H18545447   7.419   0.718   6.951 -1.3800  1.6791  0.6492
   62MOL   H18645448   7.288   0.603   6.754  2.2788  1.0804 -1.2655
   62MOL   C18745449   7.329   0.427   6.823 -0.4473 -0.2934 -0.3970
   62MOL   O18845450   7.344   0.346   6.915 -0.8002 -0.6993  0.0746
   62MOL   C18945451   7.297   0.376   6.683  0.1348  0.5331 -0.4257
   62MOL   C19045452   7.383   0.257   6.647  0.0521  0.2309  0.4504
   62MOL   C19145453   7.532   0.284   6.636  0.0264 -0.0077  0.0427
   62MOL   C19245454   7.606   0.163   6.581  0.0144  0.5521  0.0721
   62MOL   C19345455   0.065   0.166   6.567  0.2890  0.3745  0.3298
   62MOL   C19445456   0.126   0.039   6.499  0.1372  0.0630 -0.1946
   62MOL   C19545457   0.190   0.069   6.359 -0.2543  0.2339 -0.1699
   62MOL   C19645458   0.339   0.112   6.367  0.5418 -0.3329  0.3922
   62MOL   C19745459   0.377   0.190   6.239  1.0402 -1.1991 -0.8079
   62MOL   C19845460   0.432   0.113   6.120  0.6777  0.6288 -0.1191
   62MOL   C19945461   0.469   0.197   5.997  0.3761 -0.2195  0.0374
   62MOL   N20045462   0.570   0.285   6.024 -0.1002 -0.1267 -0.7194
   62MOL   H20145463   7.305   0.450   6.603 -0.2448  0.3691 -0.6189
   62MOL   H20245464   7.189   0.357   6.684  0.4107 -1.2586  3.4371
   62MOL   H20345465   7.365   0.180   6.722 -1.4485  1.3213  1.2450
   62MOL   H20445466   7.353   0.204   6.557 -1.3887 -2.1650  2.2811
   62MOL   H20545467   7.577   0.331   6.724 -0.1370  0.9810 -0.4015
   62MOL   H20645468   7.553   0.361   6.562 -0.4593 -1.8260 -2.0179
   62MOL   H20745469   7.578   0.087   6.654  1.4294 -1.4699 -1.4529
   62MOL   H20845470   7.576   0.122   6.485  0.2367 -0.8669  0.5949
   62MOL   H20945471   0.109   0.186   6.664 -0.3592 -0.7994  0.8806
   62MOL   H21045472   0.089   0.260   6.517  2.2313  0.7506  1.9142
   62MOL   H21145473   0.063   7.644   6.500  2.5681 -1.7110 -0.0399
   62MOL   H21245474   0.203   0.013   6.572 -0.9922 -2.0929  0.2947
   62MOL   H21345475   0.124   0.141   6.312 -0.0473 -0.3925 -1.4199
   62MOL   H21445476   0.182   7.668   6.306  1.7218 -0.6663  1.0883
   62MOL   H21545477   0.408   0.030   6.389  0.9378 -0.2239 -0.4267
   62MOL   H21645478   0.347   0.182   6.450  0.4238 -1.6312  1.5262
   62MOL   H21745479   0.443   0.270   6.273  0.2624 -0.5996 -0.6961
   62MOL   H21845480   0.285   0.244   6.216  0.3282 -2.8762 -1.9538
   62MOL   H21945481   0.356   0.041   6.093  1.3953  0.7214 -2.5173
   62MOL   H22045482   0.520   0.054   6.148  0.0968  0.2244  0.8903
   62MOL   H22145483   0.374   0.240   5.963  0.9631  1.0251 -0.0326
   62MOL   H22245484   0.496   0.135   5.912  1.6145  0.7993 -0.3215
   62MOL   H22345485   0.656   0.251   6.065 -1.1124 -1.4738  0.3673
   62MOL   C22445486   0.562   0.420   6.018 -0.5111 -0.7356  0.1490
   62MOL   O22545487   0.454   0.473   5.991  0.1491  0.7970  0.1518
   62MOL   C22645488   0.683   0.511   6.053  0.2703 -0.5258 -0.5835
   62MOL   C22745489   0.653   0.659   6.042 -0.3672 -0.7356 -0.0996
   62MOL   C22845490   0.636   0.726   5.906  0.0043  0.4733  0.8807
   62MOL   C22945491   0.612   0.877   5.908  0.0248 -0.8395  0.1339
   62MOL   C23045492   0.598   0.920   5.760 -0.4594  0.0918  0.0815
   62MOL   C23145493   0.635   1.067   5.748  0.8472 -0.7361  0.5469
   62MOL   C23245494   0.533   1.164   5.800  0.0531  0.5449  0.1249
   62MOL   C23345495   0.576   1.309   5.798 -0.3787 -0.3456 -0.0795
   62MOL   C23445496   0.673   1.352   5.915 -0.3322  0.5921  0.3539
   62MOL   C23545497   0.612   1.353   6.056 -0.1022  0.5061 -0.8655
   62MOL   C23645498   0.710   1.349   6.173 -0.0316 -0.7445  0.0988
   62MOL   N23745499   0.782   1.227   6.182 -0.4043  0.0921  0.3108
   62MOL   H23845500   0.770   0.480   5.994  0.8217  2.6004 -1.5308
   62MOL   H23945501   0.695   0.495   6.160 -0.9543  0.6235 -0.2561
   62MOL   H24045502   0.569   0.678   6.108 -1.1336 -0.8493 -1.0402
   62MOL   H24145503   0.730   0.716   6.094  0.2928 -1.4854 -0.2369
   62MOL   H24245504   0.536   0.699   5.872  0.6116 -0.6546 -0.0616
   62MOL   H24345505   0.712   0.691   5.836 -1.5300 -0.7950 -0.1828
   62MOL   H24445506   0.520   0.896   5.964 -0.1835 -2.2466  0.2894
   62MOL   H24545507   0.691   0.937   5.951 -2.5767  2.5781  0.3351
   62MOL   H24645508   0.497   0.903   5.725 -0.1149  1.2200 -1.5094
   62MOL   H24745509   0.677   0.877   5.698  1.1786  0.8141  1.6060
   62MOL   H24845510   0.667   1.093   5.647 -2.0964 -4.2600 -1.4225
   62MOL   H24945511   0.729   1.077   5.801  0.5248 -1.3831  1.2480
   62MOL   H25045512   0.490   1.143   5.898  0.3467  2.0670  0.5979
   62MOL   H25145513   0.443   1.155   5.739  0.5036  1.4758 -0.6888
   62MOL   H25245514   0.491   1.375   5.809  0.8058  0.9762  1.3603
   62MOL   H25345515   0.628   1.335   5.706 -0.2044 -1.0843 -0.1943
   62MOL   H25445516   0.717   1.450   5.896  2.0278 -0.8070 -1.6241
   62MOL   H25545517   0.761   1.288   5.914  1.2036  2.6327  0.2990
   62MOL   H25645518   0.541   1.274   6.074 -1.4603  1.5662 -1.5011
   62MOL   H25745519   0.552   1.444   6.058 -1.5278 -0.4422  0.5907
   62MOL   H25845520   0.656   1.349   6.267 -2.2619  3.7646 -1.0276
   62MOL   H25945521   0.775   1.437   6.180 -0.5717 -0.1804 -1.7213
   62MOL   H26045522   0.727   1.146   6.209  1.1438 -1.3350 -0.7147
   62MOL   C26145523   0.905   1.202   6.131 -0.4637 -0.3052 -0.1204
   62MOL   O26245524   0.981   1.289   6.081 -0.1191 -0.1948 -0.4484
   62MOL   C26345525   0.952   1.055   6.141  0.3272  0.5502 -0.1049
   62MOL   C26445526   0.998   1.007   6.005  0.6125 -0.0328 -0.5865
   62MOL   C26545527   1.002   0.856   6.010 -0.1126  0.2591 -0.3320
   62MOL   C26645528   1.041   0.791   5.867 -0.8297 -0.1490 -0.3678
   62MOL   C26745529   1.035   0.639   5.880 -0.7865 -0.9436  0.0342
   62MOL   C26845530   1.077   0.573   5.751 -0.9094  0.4576 -0.4751
   62MOL   C26945531   1.084   0.420   5.762  0.6297 -0.1091 -0.1109
   62MOL   C27045532   0.939   0.361   5.767  0.1132 -0.2746  0.1926
   62MOL   C27145533   0.934   0.217   5.715 -0.1010 -0.0357  0.4587
   62MOL   C27245534   0.790   0.161   5.742  0.7295  0.1791  0.2254
   62MOL   C27345535   0.785   0.026   5.683  0.0357  1.0697 -0.3354
   62MOL   N27445536   0.668   7.640   5.723  0.3485  0.6360 -0.2283
   62MOL   H27545537   0.871   0.995   6.181  0.3288  0.2623 -0.5237
   62MOL   H27645538   1.032   1.054   6.215  0.8668 -1.6141 -0.6967
   62MOL   H27745539   0.929   1.038   5.927 -0.2847  0.4953  0.4066
   62MOL   H27845540   1.086   1.063   5.974  0.9980  0.6540  1.6932
   62MOL   H27945541   0.905   0.819   6.041  1.9349 -2.2463  3.3982
   62MOL   H28045542   1.074   0.828   6.087  0.0559 -0.2797 -0.6830
   62MOL   H28145543   0.962   0.816   5.796 -0.1074  0.0276 -1.1171
   62MOL   H28245544   1.137   0.826   5.828 -0.4482  1.1026  1.6042
   62MOL   H28345545   0.936   0.605   5.911 -0.8751  1.6425  2.7714
   62MOL   H28445546   1.113   0.611   5.951  0.1339  5.7788  2.0390
   62MOL   H28545547   1.174   0.613   5.721 -0.8073 -0.8099 -1.8824
   62MOL   H28645548   0.999   0.604   5.682  1.0403  0.6434 -2.6601
   62MOL   H28745549   1.136   0.396   5.855  0.1029 -3.2968 -0.5819
   62MOL   H28845550   1.132   0.376   5.675  2.6388  1.2755  0.2738
   62MOL   H28945551   0.865   0.417   5.710 -0.0406  1.0065  1.6442
   62MOL   H29045552   0.913   0.372   5.872  0.2959  3.2029 -0.0667
   62MOL   H29145553   1.014   0.153   5.754 -0.5062  1.2566  3.5539
   62MOL   H29245554   0.961   0.214   5.609 -1.5799 -2.1896  0.1233
   62MOL   H29345555   0.712   0.221   5.694 -0.6913 -0.3044  1.8960
   62MOL   H29445556   0.763   0.155   5.847 -0.7247  0.2402 -0.1343
   62MOL   H29545557   0.875   7.662   5.704 -2.3095 -2.5461  0.2146
   62MOL   H29645558   0.797   0.030   5.575  0.8286  0.7860 -0.2625
   62MOL   H29745559   0.678   7.582   5.805 -1.1902 -1.6681 -1.6088
   62MOL   C29845560   0.548   7.636   5.665 -0.8464  0.1177 -0.0628
   62MOL   O29945561   0.503   0.023   5.577 -0.4551  0.0446 -0.9824
   62MOL   C30045562   0.459   7.513   5.703  0.1839  0.1999  0.0401
   62MOL   C30145563   0.389   7.515   5.840  0.1853 -0.0839  0.0564
   62MOL   C30245564   0.483   7.481   5.957  0.2965 -0.8379 -0.6250
   62MOL   C30345565   0.408   7.432   6.081 -0.1179 -0.0280  0.5716
   62MOL   C30445566   0.504   7.416   6.196 -0.1044 -0.2527 -0.3913
   62MOL   C30545567   0.435   7.382   6.327  0.5842 -0.0560  0.2703
   62MOL   C30645568   0.534   7.341   6.436  0.0579  0.4549  0.1193
   62MOL   C30745569   0.461   7.298   6.571  0.1284  0.2348  0.6796
   62MOL   C30845570   0.561   7.242   6.673 -0.4692  0.1803 -0.2549
   62MOL   C30945571   0.499   7.237   6.815  0.1682  0.4311 -0.0624
   62MOL   C31045572   0.599   7.221   6.934 -0.2597 -1.0152  0.5537
   62MOL   N31145573   0.529   7.245   7.058  0.0158  0.1067 -0.4828
   62MOL   H31245574   0.517   7.423   5.684  1.2310  0.5191  1.6227
   62MOL   H31345575   0.385   7.519   5.624 -1.3848  0.3450  1.5023
   62MOL   H31445576   0.336   7.607   5.864  1.6631  0.5318  1.0933
   62MOL   H31545577   0.307   7.444   5.833 -0.0027  0.0670  0.7570
   62MOL   H31645578   0.548   7.567   5.972  0.2897 -1.1622  1.4816
   62MOL   H31745579   0.543   7.398   5.919 -3.0000 -2.9386 -1.5129
   62MOL   H31845580   0.325   7.494   6.116 -1.0524  0.2979 -2.1340
   62MOL   H31945581   0.364   7.337   6.048  3.0497 -0.3567 -2.9169
   62MOL   H32045582   0.551   7.514   6.210 -0.2150 -0.1091 -1.0376
   62MOL   H32145583   0.589   7.351   6.174 -0.8007 -1.0522 -0.7292
   62MOL   H32245584   0.368   7.297   6.318 -0.8744  0.9366  1.5315
   62MOL   H32345585   0.373   7.464   6.362 -1.0298 -0.7280 -0.9537
   62MOL   H32445586   0.593   7.429   6.459  1.2825 -0.8319  2.0129
   62MOL   H32545587   0.607   7.267   6.405 -0.8297 -1.5754  2.7575
   62MOL   H32645588   0.392   7.220   6.538 -0.9173  1.2861  0.3526
   62MOL   H32745589   0.400   7.378   6.611  0.3996  2.1622 -2.5940
   62MOL   H32845590   0.641   7.314   6.685  0.7245 -0.9703 -1.2147
   62MOL   H32945591   0.600   7.142   6.651  1.3294  0.7764  0.2177
   62MOL   H33045592   0.416   7.167   6.820  0.7573 -0.2388  0.4922
   62MOL   H33145593   0.451   7.335   6.821 -1.2517 -0.2637  0.1192
   62MOL   H33245594   0.674   7.300   6.924 -0.2296 -1.1456 -0.2303
   62MOL   H33345595   0.646   7.123   6.934 -0.4183 -1.0882 -0.7241
   62MOL   H33445596   0.446   7.302   7.056 -0.4465 -0.5428 -0.0173
   62MOL   C33545597   0.571   7.190   7.175  0.4201 -0.4010 -0.4418
   62MOL   O33645598   0.677   7.124   7.171  0.3855  0.1575  0.1253
   62MOL   C33745599   0.494   7.219   7.304  0.0180  0.4607 -0.1908
   62MOL   C33845600   0.588   7.274   7.413  0.1829 -0.6221  0.3080
   62MOL   C33945601   0.653   7.413   7.382  0.5027  0.1890  0.5990
   62MOL   C34045602   0.722   7.492   7.497  0.0970  0.6222  0.0742
   62MOL   C34145603   0.758   7.629   7.442  0.1532 -0.4432  0.2504
   62MOL   C34245604   0.827   0.026   7.549 -1.0209 -0.7459 -0.3541
   62MOL   C34345605   0.727   0.122   7.623 -0.2490  0.7217  0.1614
   62MOL   C34445606   0.651   0.068   0.049  0.8674  0.3368  0.2921
   62MOL   C34545607   0.727   0.074   0.182 -0.5351  0.0707  0.2367
   62MOL   C34645608   0.635   0.057   0.302 -0.5675 -0.2196  0.3047
   62MOL   C34745609   0.550   7.624   0.312 -0.1500 -0.0645  0.1311
   62MOL   N34845610   0.619   7.492   0.320 -0.2271 -0.1715  0.1467
   62MOL   H34945611   0.464   7.123   7.347 -2.7908  0.0114 -2.9275
   62MOL   H35045612   0.405   7.280   7.286  0.2818  1.0738  0.5505
   62MOL   H35145613   0.535   7.302   7.505  0.2338  1.7288 -0.3503
   62MOL   H35245614   0.664   7.198   7.432  0.5410 -0.0873  1.0299
   62MOL   H35345615   0.588   7.469   7.315 -1.6753 -4.5646 -1.4936
   62MOL   H35445616   0.739   7.381   7.322 -1.1262 -0.6793 -1.3376
   62MOL   H35545617   0.653   7.498   7.582 -1.0714  1.9058 -0.9503
   62MOL   H35645618   0.805   7.440   7.545 -0.5822  0.3839  1.0251
   62MOL   H35745619   0.683   7.670   7.375  0.2910  0.0122  0.3685
   62MOL   H35845620   0.838   7.611   7.371 -0.0581  2.1861 -0.7101
   62MOL   H35945621   0.901   0.086   7.496 -0.1244 -0.7560  0.8709
   62MOL   H36045622   0.877   7.655   7.620 -2.2133 -2.0276 -0.6534
   62MOL   H36145623   0.651   0.158   7.554  0.3457 -0.8122 -1.3337
   62MOL   H36245624   0.779   0.213   7.655  0.6857 -0.4413  2.1046
   62MOL   H36345625   0.614   7.660   0.038 -1.9404  1.1981  1.4072
   62MOL   H36445626   0.564   0.132   0.062 -0.7369 -1.4131 -1.5410
   62MOL   H36545627   0.781   0.168   0.190  2.4222 -1.3186 -2.3530
   62MOL   H36645628   0.794   7.682   0.176  0.0819  0.6149 -0.7965
   62MOL   H36745629   0.565   0.141   0.306  2.1151  2.2030 -1.4226
   62MOL   H36845630   0.706   0.064   0.385 -0.8010 -0.4961  0.5256
   62MOL   H36945631   0.467   7.622   0.241 -0.6402 -4.0322  0.6538
   62MOL   H37045632   0.496   7.635   0.405 -0.5089 -0.6299 -0.0022
   62MOL   H37145633   0.683   7.482   0.397 -2.1683 -1.2811  1.6799
   62MOL   C37245634   0.631   7.411   0.213 -0.2721 -0.4022 -0.0062
   62MOL   O37345635   0.551   7.411   0.124 -0.6670  0.1021  0.5517
   62MOL   C37445636   0.760   7.325   0.209 -0.9782  0.1458 -0.5105
   62MOL   C37545637   0.741   7.195   0.122  0.0676 -0.2452  0.5003
   62MOL   C37645638   0.639   7.097   0.180  0.0875 -0.0063 -0.7819
   62MOL   C37745639   0.624   6.981   0.077  0.4688  0.0393  0.0640
   62MOL   C37845640   0.736   6.879   0.073  0.0142  0.7429  0.0110
   62MOL   C37945641   0.717   6.766   7.670 -0.5619 -0.3083  0.1183
   62MOL   C38045642   0.844   6.679   7.656 -0.0076  0.0485 -0.0503
   62MOL   C38145643   0.850   6.572   7.546 -0.1767 -0.3614  0.3349
   62MOL   C38245644   0.981   6.488   7.548 -0.2467 -0.0101 -0.1897
   62MOL   C38345645   0.957   6.358   7.469 -0.0768 -0.0437  0.1112
   62MOL   C38445646   1.088   6.278   7.432  0.9084  0.9252 -0.1706
   62MOL   N38545647   1.067   6.151   7.358  0.2038 -0.8183  0.4823
   62MOL   H38645648   0.777   7.293   0.311 -0.0769 -2.3709 -1.4187
   62MOL   H38745649   0.837   7.392   0.172 -0.5290 -0.9745 -1.6400
   62MOL   H38845650   0.717   7.222   0.019  0.2606  1.2028  0.8205
   62MOL   H38945651   0.839   7.148   0.125 -1.3302 -3.5095 -2.0316
   62MOL   H39045652   0.543   7.143   0.203 -0.4527  0.7027 -4.2479
   62MOL   H39145653   0.680   7.050   0.270 -2.1441 -2.9721 -1.2480
   62MOL   H39245654   0.528   6.933   0.098  0.1426  1.2248  1.3495
   62MOL   H39345655   0.610   7.027   7.673 -1.4477 -0.8776 -0.1296
   62MOL   H39445656   0.758   6.836   0.171  0.7030  1.4788  0.1870
   62MOL   H39545657   0.813   6.938   0.024 -1.4414  3.1453  0.5484
   62MOL   H39645658   0.699   6.807   7.570 -1.9479 -2.0128 -0.3689
   62MOL   H39745659   0.631   6.705   0.005 -2.5533  1.4124 -1.9714
   62MOL   H39845660   0.883   6.645   0.058  1.9531 -0.0073 -0.8428
   62MOL   H39945661   0.919   6.751   7.625  1.6032 -1.2267  0.8090
   62MOL   H40045662   0.837   6.625   7.452  1.8880 -1.4617 -0.5933
   62MOL   H40145663   0.754   6.520   7.552  0.2027 -1.0547  0.5035
   62MOL   H40245664   1.012   6.451   7.646 -0.4941 -0.9564 -0.4562
   62MOL   H40345665   1.063   6.543   7.504 -1.0859 -1.2496 -3.4753
   62MOL   H40445666   0.905   6.387   7.378 -2.0543  0.4337  1.3702
   62MOL   H40545667   0.884   6.301   7.525 -0.5272  0.8416  0.4294
   62MOL   H40645668   1.142   6.255   7.524 -1.2033  0.4770  0.9959
   62MOL   H40745669   1.160   6.338   7.376  1.5933 -1.4523 -1.8906
   62MOL   H40845670   1.058   6.061   7.403 -2.1327  0.6001  2.9680
   62MOL   C40945671   1.044   6.150   7.226 -0.3488  0.4394 -0.1071
   62MOL   O41045672   1.056   6.247   7.154  0.3946  0.4822 -0.3683
   62MOL   C41145673   0.999   6.018   7.161 -0.2914  0.0189 -0.3878
   62MOL   C41245674   0.906   6.036   7.037  0.2224 -0.5702 -0.0594
   62MOL   C41345675   0.761   6.084   7.065 -0.2915  0.4186 -0.5771
   62MOL   C41445676   0.694   6.116   6.930  0.2534  0.4113  0.3381
   62MOL   C41545677   0.568   6.205   6.957 -0.7555  0.0519 -0.4134
   62MOL   C41645678   0.497   6.231   6.830  0.2138 -0.1607  0.4840
   62MOL   C41745679   0.372   6.312   6.846 -0.1288  0.4607  0.0204
   62MOL   C41845680   0.285   6.317   6.715  0.8293 -0.2594  0.0636
   62MOL   C41945681   0.364   6.388   6.606  0.0416 -0.0127 -0.0719
   62MOL   C42045682   0.291   6.397   6.471 -0.3022  0.2210 -0.4076
   62MOL   C42145683   0.380   6.439   6.348 -0.0381  0.7342 -0.2370
   62MOL   N42245684   0.284   6.422   6.238  0.0051 -0.6502 -0.1186
   62MOL   H42345685   0.946   5.964   7.240 -0.7295 -0.8111 -1.2323
   62MOL   H42445686   1.086   5.965   7.125  2.4162  1.4092  3.7460
   62MOL   H42545687   0.959   6.094   6.962  1.8479  0.2292  1.6451
   62MOL   H42645688   0.894   5.942   6.983  1.0099  0.6181 -2.3353
   62MOL   H42745689   0.762   6.158   7.145  0.7131 -0.1940 -0.0147
   62MOL   H42845690   0.717   5.999   7.118  0.1907  2.0365  2.5397
   62MOL   H42945691   0.762   6.171   6.866 -1.7172  2.2537 -0.2697
   62MOL   H43045692   0.672   6.026   6.874  2.0387  0.6377 -0.7540
   62MOL   H43145693   0.599   6.303   6.993  1.9487 -1.3180  1.1799
   62MOL   H43245694   0.506   6.142   7.021 -1.9039  3.5743  2.0609
   62MOL   H43345695   0.464   6.145   6.771  0.4117  1.3733 -1.9308
   62MOL   H43445696   0.562   6.283   6.759 -0.2805  0.4880  0.4994
   62MOL   H43545697   0.391   6.415   6.877 -0.4221  0.4187  0.3489
   62MOL   H43645698   0.311   6.256   6.917 -0.8711  2.1118  0.7194
   62MOL   H43745699   0.194   6.374   6.735  0.7052 -0.4068 -0.0822
   62MOL   H43845700   0.246   6.219   6.689 -0.3012 -0.1393  1.2468
   62MOL   H43945701   0.460   6.339   6.588 -0.4556 -0.7489 -0.7243
   62MOL   H44045702   0.375   6.493   6.632 -0.4098  0.0357 -0.0847
   62MOL   H44145703   0.203   6.461   6.481  0.0145  0.4129  1.3145
   62MOL   H44245704   0.257   6.296   6.448 -0.0134 -0.0276  0.2552
   62MOL   H44345705   0.467   6.376   6.330 -0.2238  0.1002  1.0123
   62MOL   H44445706   0.424   6.538   6.344  3.6612 -0.8271 -0.5395
   62MOL   H44545707   0.193   6.380   6.249  0.7205 -2.6711 -1.6539
   62MOL   C44645708   0.315   6.455   6.116 -0.4880 -0.0283  0.1858
   62MOL   O44745709   0.419   6.509   6.089 -0.6004 -0.4380  0.7578
   62MOL   C44845710   0.213   6.436   6.001  0.1143 -0.1227 -0.0689
   62MOL   C44945711   0.270   6.345   5.894 -0.5483 -0.2639  0.2009
   62MOL   C45045712   0.282   6.193   5.933  0.0426 -0.3019  0.5164
   62MOL   C45145713   0.349   6.106   5.821  0.0265 -0.1137 -0.7488
   62MOL   C45245714   0.358   5.958   5.864  0.1566  0.7479  0.0103
   62MOL   C45345715   0.419   5.867   5.756 -0.2108  0.5829 -0.6626
   62MOL   C45445716   0.571   5.861   5.760  0.1183  0.3146 -0.1465
   62MOL   C45545717   0.638   5.794   5.641 -0.5073 -0.0331  0.4801
   62MOL   C45645718   0.774   5.849   5.603  0.2319  0.5691 -0.1227
   62MOL   C45745719   0.789   5.878   5.456 -0.4683 -0.8936 -0.3845
   62MOL   C45845720   0.928   5.939   5.430  0.1457  0.3221  0.5201
   62MOL   N45945721   0.944   6.018   5.306  0.1170  1.1614  0.4202
   62MOL   H46045722   0.192   6.535   5.962 -0.9803  0.5299  2.0842
   62MOL   H46145723   0.119   6.396   6.040 -0.2914  0.0293 -0.8926
   62MOL   H46245724   0.198   6.357   5.813  0.3095  0.6595 -0.4327
   62MOL   H46345725   0.364   6.385   5.858 -0.6619  1.6399  1.9195
   62MOL   H46445726   0.186   6.153   5.966 -0.3404 -0.1269 -0.3835
   62MOL   H46545727   0.358   6.201   6.011  1.3998 -4.2274 -0.2893
   62MOL   H46645728   0.289   6.122   5.731  0.7599  1.5491 -0.9479
   62MOL   H46745729   0.448   6.147   5.807  0.0233  0.1337 -0.0687
   62MOL   H46845730   0.260   5.924   5.899  0.6353 -1.2658 -0.5337
   62MOL   H46945731   0.417   5.938   5.953 -0.7649  1.5465  0.8155
   62MOL   H47045732   0.373   5.893   5.661 -0.4510 -0.8876 -0.9620
   62MOL   H47145733   0.381   5.766   5.773  0.4000  0.6086  1.0246
   62MOL   H47245734   0.620   5.830   5.852  1.2403  0.5061 -0.6691
   62MOL   H47345735   0.596   5.967   5.756  0.6066  0.2026 -0.0069
   62MOL   H47445736   0.574   5.825   5.558 -1.8860 -0.7559  1.2621
   62MOL   H47545737   0.631   5.685   5.646 -0.1837 -0.0387  0.8100
   62MOL   H47645738   0.854   5.785   5.641  0.1069  0.3897 -0.1592
   62MOL   H47745739   0.794   5.941   5.658 -0.1052  0.6850 -0.1970
   62MOL   H47845740   0.715   5.955   5.436  1.0079  0.9445  1.0364
   62MOL   H47945741   0.775   5.783   5.404 -1.6846 -1.4456  0.9553
   62MOL   H48045742   1.007   5.864   5.421  0.6312  0.9209 -0.2111
   62MOL   H48145743   0.944   5.999   5.520  1.0338 -0.9583  1.2383
   62MOL   H48245744   0.920   6.115   5.296  1.7361  1.4173 -1.3907
   62MOL   C48345745   0.980   5.961   5.192  0.1594 -0.0088  0.6737
   62MOL   O48445746   1.017   5.847   5.179 -0.6688  0.1639 -0.1060
   62MOL   C48545747   0.991   6.053   5.069  0.1392 -0.4087  0.2534
   62MOL   C48645748   1.097   6.016   4.957  0.5167  0.3850  0.4365
   62MOL   C48745749   1.249   6.015   4.993 -0.8453 -0.2298 -0.3924
   62MOL   C48845750   1.333   5.947   4.882  0.2069 -0.0791 -0.3425
   62MOL   C48945751   1.473   6.000   4.888 -0.2786  0.0884 -0.4278
   62MOL   C49045752   1.560   5.946   4.770  0.6258  0.2362  0.0124
   62MOL   C49145753   1.677   6.039   4.729  0.0604  0.1458  0.4812
   62MOL   C49245754   1.792   6.022   4.831  0.3228  0.7429 -0.2222
   62MOL   C49345755   1.889   6.135   4.811  0.7695  0.2175  0.7761
   62MOL   C49445756   2.016   6.122   4.895  0.2286  0.2862  0.0104
   62MOL   C49545757   2.102   6.247   4.911  0.2698  0.2267 -0.3594
   62MOL   N49645758   2.165   6.233   5.042  0.2761 -0.2963  0.1726
   62MOL   H49745759   1.030   6.153   5.091 -1.3728  0.2498 -0.0321
   62MOL   H49845760   0.896   6.068   5.017  1.0886 -0.0071 -1.4234
   62MOL   H49945761   1.071   5.913   4.931  2.6515 -0.2320  0.6087
   62MOL   H50045762   1.072   6.073   4.868 -1.4813 -3.4110 -1.5369
   62MOL   H50145763   1.261   5.964   5.088 -3.5383  0.1354  0.1883
   62MOL   H50245764   1.271   6.120   5.014 -0.8083 -0.3660  0.2674
   62MOL   H50345765   1.328   5.838   4.888 -2.1138  0.0686  0.8920
   62MOL   H50445766   1.288   5.979   4.789 -2.2749  0.0246  0.8517
   62MOL   H50545767   1.517   5.976   4.984 -0.9343 -1.8338 -0.5698
   62MOL   H50645768   1.476   6.109   4.890  2.0831  0.1097 -2.4826
   62MOL   H50745769   1.499   5.949   4.679  1.8004  0.0853 -0.7871
   62MOL   H50845770   1.595   5.845   4.793 -2.4570 -1.1136 -0.9038
   62MOL   H50945771   1.644   6.142   4.729  0.0919  0.1981 -1.9114
   62MOL   H51045772   1.723   6.025   4.631 -1.5964 -0.2894 -0.2551
   62MOL   H51145773   1.856   5.936   4.813  0.0291  0.5667 -0.4131
   62MOL   H51245774   1.748   6.027   4.931  1.4956  0.9036  0.2969
   62MOL   H51345775   1.849   6.231   4.843  2.5208  1.0444  0.5097
   62MOL   H51445776   1.911   6.158   4.707 -1.1711  0.6234  0.4266
   62MOL   H51545777   2.080   6.042   4.858 -0.6246  0.4008 -1.7492
   62MOL   H51645778   1.989   6.076   4.991  2.9543 -2.4197 -0.4559
   62MOL   H51745779   2.034   6.332   4.914 -0.1753 -0.1876  3.6987
   62MOL   H51845780   2.184   6.260   4.840  1.4213  2.2170  1.2811
   62MOL   H51945781   2.209   6.146   5.067 -0.0406 -0.5789 -0.2521
   62MOL   C52045782   2.189   6.333   5.128  0.1475 -0.1324 -0.1464
   62MOL   O52145783   2.166   6.450   5.100  0.1924 -0.4851  0.3515
   62MOL   C52245784   2.253   6.303   5.260 -0.9670  0.0691  0.0066
   62MOL   C52345785   2.165   6.335   5.384 -0.4029 -0.5172 -0.3872
   62MOL   C52445786   2.056   6.235   5.423 -0.1157  0.2136 -0.3399
   62MOL   C52545787   1.927   6.247   5.337  0.3901  0.0550  0.3810
   62MOL   C52645788   1.818   6.150   5.387  0.2071 -0.3168  0.7329
   62MOL   C52745789   1.717   6.102   5.277  0.4010  0.0261 -0.0138
   62MOL   C52845790   1.648   5.966   5.332  0.2420  0.0399  0.6221
   62MOL   C52945791   1.496   5.956   5.302 -0.0936 -0.2735 -0.3113
   62MOL   C53045792   1.437   5.837   5.375  0.1365  0.1710 -0.0159
   62MOL   C53145793   1.297   5.788   5.345 -0.6161  0.6905  0.0072
   62MOL   C53245794   1.239   5.686   5.444 -0.2099  0.7803  0.3409
   62MOL   N53345795   1.109   5.643   5.401  0.1771 -0.5149 -0.2226
   62MOL   H53445796   2.323   6.386   5.260  1.9887 -2.3218  0.8589
   62MOL   H53545797   2.306   6.208   5.271 -1.1527 -0.1799 -1.1371
   62MOL   H53645798   2.233   6.337   5.470 -0.4096 -0.8136 -0.3754
   62MOL   H53745799   2.119   6.434   5.380 -1.4639 -0.9592  0.7121
   62MOL   H53845800   2.033   6.269   5.524 -1.4188 -0.1295 -0.5168
   62MOL   H53945801   2.099   6.135   5.430  3.4177  1.7912  2.1129
   62MOL   H54045802   1.879   6.345   5.330  1.4095  0.5506  0.2253
   62MOL   H54145803   1.959   6.220   5.236 -0.7518 -1.7323  0.4742
   62MOL   H54245804   1.774   6.204   5.470 -0.9691 -0.2860  0.1031
   62MOL   H54345805   1.859   6.061   5.435 -0.2858 -0.8642  0.1448
   62MOL   H54445806   1.784   6.071   5.196  0.2023  0.0297 -0.1791
   62MOL   H54545807   1.660   6.186   5.237 -0.1456  0.0273  0.7501
   62MOL   H54645808   1.667   5.962   5.439 -0.0861  1.2953  0.7376
   62MOL   H54745809   1.707   5.887   5.285 -1.4250 -1.7052  1.4087
   62MOL   H54845810   1.485   5.954   5.194  1.2880  0.4633 -0.4753
   62MOL   H54945811   1.452   6.054   5.322  0.2199  0.4026 -2.7524
   62MOL   H55045812   1.427   5.859   5.481 -0.7697 -1.8619  0.3594
   62MOL   H55145813   1.504   5.752   5.361  0.3832  0.4533 -0.5479
   62MOL   H55245814   1.297   5.757   5.240  2.3214 -0.7719  0.3845
   62MOL   H55345815   1.234   5.877   5.343  0.2059  1.3059  0.8272
   62MOL   H55445816   1.224   5.727   5.544  2.3115 -0.5529  1.3172
   62MOL   H55545817   1.312   5.605   5.443 -2.6656 -1.4566 -0.3550
   62MOL   H55645818   1.059   5.706   5.340  0.0070 -1.0584 -0.6470
   62MOL   C55745819   1.070   5.515   5.399 -0.3798  0.1534  0.5485
   62MOL   O55845820   1.137   5.427   5.453  0.2210 -0.3142  0.4803
   62MOL   C55945821   0.944   5.481   5.315 -0.1643 -0.1807  0.3536
   62MOL   C56045822   0.849   5.387   5.397 -0.0075 -0.0388  0.0425
   62MOL   C56145823   0.771   5.472   5.502 -0.1972 -0.3346  0.2164
   62MOL   C56245824   0.638   5.411   5.549  0.6592  0.2044  0.2997
   62MOL   C56345825   0.628   5.300   5.656 -0.3416  0.6758 -0.1176
   62MOL   C56445826   0.679   5.162   5.629 -0.4190  1.2048  0.3412
   62MOL   C56545827   0.593   5.081   5.527 -0.3785 -0.2324 -0.1749
   62MOL   C56645828   0.650   4.935   5.507 -0.0383  0.3072  0.1685
   62MOL   C56745829   0.783   4.927   5.429  0.2758 -0.5985  0.3932
   62MOL   C56845830   0.845   4.785   5.425 -0.6772 -0.0480  0.2122
   62MOL   C56945831   0.761   4.691   5.336  0.6005  0.8354 -0.3395
   62MOL   N57045832   0.812   4.554   5.347 -0.2174  0.3482  0.3777
   62MOL   H57145833   0.966   5.433   5.220 -2.1189 -2.0633  0.8050
   62MOL   H57245834   0.893   5.575   5.295 -1.5038 -1.0532 -0.4217
   62MOL   H57345835   0.787   5.333   5.326  0.6776 -0.9433  0.1195
   62MOL   H57445836   0.911   5.315   5.451  1.9977  1.2020 -0.5898
   62MOL   H57545837   0.769   5.576   5.471  0.8183 -0.8152 -1.5503
   62MOL   H57645838   0.831   5.494   5.591  1.7565  0.6890 -1.3081
   62MOL   H57745839   0.575   5.494   5.583  2.1339  0.9996  1.1181
   62MOL   H57845840   0.585   5.375   5.460 -0.7945 -0.6989  1.5014
   62MOL   H57945841   0.520   5.298   5.668 -0.3117  1.6940  0.4343
   62MOL   H58045842   0.682   5.331   5.746 -0.5582 -1.1488  0.6539
   62MOL   H58145843   0.671   5.102   5.719 -3.0654 -0.3603 -0.8686
   62MOL   H58245844   0.785   5.170   5.606 -0.2126 -0.5689  0.5962
   62MOL   H58345845   0.592   5.138   5.434  1.8370  1.4575  0.7828
   62MOL   H58445846   0.487   5.074   5.554  0.0109  0.4796  1.6086
   62MOL   H58545847   0.573   4.881   5.453  0.7585  0.1157 -0.8008
   62MOL   H58645848   0.670   4.891   5.605  0.2531 -0.9673 -0.4478
   62MOL   H58745849   0.856   4.990   5.481 -1.8001  0.2848  2.3687
   62MOL   H58845850   0.767   4.959   5.326  1.3475  0.6137  0.5871
   62MOL   H58945851   0.857   4.744   5.525  0.1193 -1.8237 -0.5781
   62MOL   H59045852   0.947   4.793   5.387 -0.9105  1.6067 -0.0803
   62MOL   H59145853   0.773   4.715   5.231  3.6545 -2.2719 -0.7535
   62MOL   H59245854   0.655   4.690   5.361  1.0601 -0.5979  1.7014
   62MOL   H59345855   0.905   4.542   5.384  0.0683  0.2385 -0.3577
   62MOL   C59445856   0.784   4.448   5.267 -0.3517  0.1663  0.1778
   62MOL   O59545857   0.689   4.447   5.186 -0.1544 -0.0201  0.7900
   62MOL   C59645858   0.890   4.333   5.257 -0.1375 -0.0083 -0.5058
   62MOL   C59745859   0.924   4.292   5.109 -0.3750 -0.5398  0.5109
   62MOL   C59845860   1.034   4.188   5.103  0.0470 -0.6504  0.1656
   62MOL   C59945861   1.036   4.119   4.971  0.4366  0.2594  0.1250
   62MOL   C60045862   1.175   4.055   4.942  0.0297 -0.0492 -0.5581
   62MOL   C60145863   1.196   3.993   4.799  0.4407  0.9078  0.3542
   62MOL   C60245864   1.200   4.096   4.684  0.1378 -0.7690 -0.2500
   62MOL   C60345865   1.289   4.053   4.574  0.0020 -0.5125  0.5923
   62MOL   C60445866   1.230   3.938   4.490  0.3758 -0.5639 -0.2947
   62MOL   C60545867   1.338   3.876   4.400  0.8538 -0.0225  0.5052
   62MOL   C60645868   1.280   3.778   4.297 -0.3065  0.2811 -0.7004
   62MOL   N60745869   1.381   3.717   4.208  0.7964  0.6658  0.1973
   62MOL   H60845870   0.851   4.241   5.301  1.1016  0.1666  1.0118
   62MOL   H60945871   0.987   4.354   5.304 -0.1286 -3.5226  1.1656
   62MOL   H61045872   0.832   4.257   5.062 -0.2416 -0.6570  0.3383
   62MOL   H61145873   0.960   4.375   5.048 -1.5370 -0.5282 -0.1736
   62MOL   H61245874   1.022   4.119   5.186  0.5753  0.2955  1.0449
   62MOL   H61345875   1.134   4.223   5.132  0.1039  0.0247 -0.8269
   62MOL   H61445876   0.959   4.043   4.962  0.8185  0.0773 -1.9242
   62MOL   H61545877   1.019   4.189   4.889 -0.2491 -1.8943 -1.6336
   62MOL   H61645878   1.176   3.979   5.020 -0.2998  1.6365  1.1340
   62MOL   H61745879   1.248   4.133   4.964  1.6144 -1.7643  0.4621
   62MOL   H61845880   1.114   3.921   4.787  1.8714 -0.4612 -1.6509
   62MOL   H61945881   1.283   3.928   4.806  0.9494  1.5164 -0.2680
   62MOL   H62045882   1.222   4.191   4.731 -0.3839  0.5168 -2.5427
   62MOL   H62145883   1.104   4.122   4.639  0.3879  0.6394  0.0258
   62MOL   H62245884   1.387   4.034   4.617  0.2627 -1.6790 -0.4928
   62MOL   H62345885   1.305   4.132   4.500 -0.7826 -0.3565  0.5894
   62MOL   H62445886   1.148   3.980   4.430  0.0432  0.9734  1.2147
   62MOL   H62545887   1.188   3.864   4.557  2.3619  1.0200  2.7931
   62MOL   H62645888   1.410   3.832   4.468  1.0591 -0.4731 -0.0069
   62MOL   H62745889   1.388   3.951   4.339  0.6465  0.3579  0.7991
   62MOL   H62845890   1.203   3.828   4.238  0.1240  1.2719 -0.4389
   62MOL   H62945891   1.227   3.700   4.352 -0.1896  0.0687 -0.8872
   62MOL   H63045892   1.348   3.706   4.114  0.8141 -1.2420  0.3992
   62MOL   C63145893   1.495   3.659   4.239  0.7823  0.1561 -0.7172
   62MOL   O63245894   1.537   3.646   4.355 -0.5888  0.0986 -0.3200
   62MOL   C63345895   1.571   3.589   4.128  0.1171 -0.0988  0.3604
   62MOL   C63445896   1.724   3.587   4.139  0.2123 -0.1374  0.6550
   62MOL   C63545897   1.787   3.471   4.221 -0.7640  0.1945  0.2765
   62MOL   C63645898   1.792   3.332   4.149 -0.4441 -0.2675 -0.4018
   62MOL   C63745899   1.827   3.221   4.244  0.4167 -0.7427  0.4215
   62MOL   C63845900   1.885   3.093   4.182  0.9481 -0.9773  0.1621
   62MOL   C63945901   1.905   2.997   4.298  0.0677  0.3574 -0.0239
   62MOL   C64045902   1.925   2.853   4.238 -0.3083  0.7603  0.1342
   62MOL   C64145903   1.929   2.742   4.336 -0.2152 -0.1995 -0.5160
   62MOL   C64245904   2.061   2.743   4.415 -0.3148 -0.1474 -0.0639
   62MOL   C64345905   2.072   2.621   4.509 -0.1795  0.2405  0.0476
   62MOL   N64445906   1.970   2.641   4.615  0.1051 -0.1091 -0.0400
   62MOL   H64545907   1.533   3.631   4.035 -0.5656 -1.0093  0.2277
   62MOL   H64645908   1.542   3.484   4.119  1.0081 -0.6121  3.1414
   62MOL   H64745909   1.752   3.565   4.036 -0.9702 -1.3481  0.5857
   62MOL   H64845910   1.766   3.682   4.172 -1.7528  1.3002 -0.8550
   62MOL   H64945911   1.737   3.461   4.317 -0.2596  0.5439  0.5808
   62MOL   H65045912   1.891   3.494   4.247 -0.8118 -1.3210  1.8944
   62MOL   H65145913   1.701   3.307   4.095 -2.3465  1.9589  1.6565
   62MOL   H65245914   1.877   3.339   4.081  0.6272 -0.8463  0.8659
   62MOL   H65345915   1.733   3.206   4.297  0.1306  0.8518  0.4023
   62MOL   H65445916   1.902   3.251   4.317  1.1620 -0.5368 -0.4264
   62MOL   H65545917   1.983   3.107   4.136 -0.1247 -2.1589 -2.5544
   62MOL   H65645918   1.816   3.055   4.107  1.8876 -3.2863  0.4290
   62MOL   H65745919   1.809   2.986   4.348 -0.5376  0.0920 -1.2181
   62MOL   H65845920   1.978   3.043   4.364  0.5675  0.0474 -0.3630
   62MOL   H65945921   2.015   2.860   4.178 -0.6156  1.4437 -0.2500
   62MOL   H66045922   1.857   2.827   4.158  1.6212 -0.2382 -1.2226
   62MOL   H66145923   1.933   2.651   4.276 -2.1190 -1.6429  1.4559
   62MOL   H66245924   1.837   2.749   4.394  0.1252 -1.0127  0.1362
   62MOL   H66345925   2.060   2.837   4.469 -1.1459  0.4228 -1.0487
   62MOL   H66445926   2.149   2.747   4.350 -0.8589  0.4562 -0.7728
   62MOL   H66545927   2.176   2.624   4.541 -0.3400  0.6931  0.5331
   62MOL   H66645928   2.068   2.522   4.464  4.0550  1.0449 -2.4020
   62MOL   H66745929   1.872   2.620   4.602 -0.4319  3.1570 -1.6381
   62MOL   C66845930   1.994   2.711   4.726 -0.0868  0.2687  0.8841
   62MOL   O66945931   2.106   2.752   4.755  0.6924 -0.1469  0.2419
   62MOL   C67045932   1.872   2.749   4.807  0.3503  0.4646 -0.4068
   62MOL   C67145933   1.857   2.889   4.855  0.0087 -0.5557  0.3065
   62MOL   C67245934   1.835   3.001   4.745 -0.7690  0.3852 -0.4181
   62MOL   C67345935   1.692   3.004   4.692 -0.1355 -0.3988  0.2725
   62MOL   C67445936   1.662   3.126   4.604  0.3082 -0.0308 -0.7698
   62MOL   C67545937   1.643   3.248   4.691 -0.3438  0.2309  0.2987
   62MOL   C67645938   1.610   3.374   4.608  0.5110 -0.4249 -0.5029
   62MOL   C67745939   1.603   3.511   4.691 -0.2408 -0.1478  0.2223
   62MOL   C67845940   1.493   3.514   4.794  0.5261 -0.2241 -0.4512
   62MOL   C67945941   1.411   3.639   4.805 -0.4767  1.0389  0.2528
   62MOL   C68045942   1.274   3.618   4.874  0.0313  1.3696  0.1096
   62MOL   N68145943   1.182   3.518   4.820 -0.4662 -0.7580  0.6224
   62MOL   H68245944   1.870   2.686   4.896 -1.0960  1.3538  0.2078
   62MOL   H68345945   1.781   2.715   4.758 -0.2071 -0.0693  0.9795
   62MOL   H68445946   1.790   2.893   4.940 -0.6508 -0.6556 -0.2061
   62MOL   H68545947   1.956   2.918   4.890  0.7507 -1.0862 -1.2706
   62MOL   H68645948   1.902   2.979   4.661 -2.1903  0.6678 -1.6526
   62MOL   H68745949   1.859   3.100   4.785 -1.3886  0.0757  0.7125
   62MOL   H68845950   1.663   2.910   4.646 -0.0302  0.1007 -0.8150
   62MOL   H68945951   1.626   3.000   4.779 -2.4538  3.4302 -1.1911
   62MOL   H69045952   1.575   3.115   4.539 -0.2567 -1.0698  0.1369
   62MOL   H69145953   1.738   3.136   4.527 -0.0271 -0.3958 -1.1508
   62MOL   H69245954   1.724   3.266   4.762 -1.7121  0.0504  1.9574
   62MOL   H69345955   1.549   3.243   4.747 -0.4048  0.9788  0.2663
   62MOL   H69445956   1.509   3.370   4.569  0.2355 -2.0597  0.3497
   62MOL   H69545957   1.675   3.376   4.520 -1.5514  1.3308 -2.0450
   62MOL   H69645958   1.579   3.596   4.627 -0.2349 -0.8317 -0.6940
   62MOL   H69745959   1.702   3.533   4.732  0.2406 -0.4639 -0.7448
   62MOL   H69845960   1.524   3.502   4.898  1.9953  1.9070 -0.6004
   62MOL   H69945961   1.417   3.441   4.767 -1.8906  1.5752  1.2194
   62MOL   H70045962   1.398   3.688   4.709  0.2175  2.9857  1.1275
   62MOL   H70145963   1.462   3.720   4.858  1.1346 -0.1385  0.5385
   62MOL   H70245964   1.223   3.714   4.883 -4.0819 -0.7990  1.0139
   62MOL   H70345965   1.308   3.574   4.968  0.8990 -1.4327 -1.4588
   62MOL   H70445966   1.176   3.426   4.861 -0.6824  0.8188  4.2435
   62MOL   C70545967   1.090   3.553   4.730 -0.2931  0.5504  0.4199
   62MOL   O70645968   1.082   3.665   4.680 -0.0570 -0.6084  0.3267
   62MOL   C70745969   0.992   3.440   4.696  0.9601 -0.0982  0.4050
   62MOL   C70845970   0.970   3.415   4.547  0.0594  0.4059  0.2903
   62MOL   C70945971   1.098   3.418   4.460  0.0534  0.7780 -0.5451
   62MOL   C71045972   1.089   3.350   4.325 -0.5052  0.5166 -0.7248
   62MOL   C71145973   1.212   3.359   4.231 -0.0804  0.1668 -0.2678
   62MOL   C71245974   1.331   3.271   4.266  0.4849 -0.2852 -0.5486
   62MOL   C71345975   1.313   3.116   4.223  0.2161 -0.1000 -0.6846
   62MOL   C71445976   1.452   3.042   4.230 -0.2814 -0.4123 -0.1599
   62MOL   C71545977   1.441   2.908   4.155  0.4369  0.3993 -0.0093
   62MOL   C71645978   1.572   2.819   4.173  1.0466  0.0521 -0.1970
   62MOL   C71745979   1.539   2.671   4.148 -0.0115  0.0379  0.3300
   62MOL   N71845980   1.659   2.601   4.181 -0.1436 -0.3913  0.2288
   62MOL   H71945981   0.894   3.454   4.742  0.0058 -0.8659 -1.3521
   62MOL   H72045982   1.033   3.345   4.730  0.4016 -0.4682  0.0474
   62MOL   H72145983   0.912   3.322   4.542  0.4339  0.1594  0.5397
   62MOL   H72245984   0.910   3.494   4.501 -2.8704 -1.8244  0.1305
   62MOL   H72345985   1.174   3.371   4.521 -1.3394 -1.4477 -0.4479
   62MOL   H72445986   1.133   3.520   4.449  0.4148  0.4146 -3.3729
   62MOL   H72545987   1.049   3.248   4.333 -0.7496  0.5355 -1.6305
   62MOL   H72645988   1.011   3.415   4.285 -0.9838  1.1961  1.2584
   62MOL   H72745989   1.250   3.461   4.233 -0.8677  0.4584  0.3294
   62MOL   H72845990   1.175   3.342   4.130  0.2301 -0.8696 -0.2109
   62MOL   H72945991   1.355   3.278   4.372 -1.5083  1.0090 -0.1513
   62MOL   H73045992   1.418   3.307   4.210  0.3975 -0.4690 -0.8058
   62MOL   H73145993   1.270   3.101   4.124  1.5527  0.6479 -1.4072
   62MOL   H73245994   1.246   3.061   4.288  2.4199  0.9068  2.5516
   62MOL   H73345995   1.497   3.029   4.329  2.2910 -4.0083 -1.7041
   62MOL   H73445996   1.531   3.103   4.188  1.2199 -1.3661  1.2125
   62MOL   H73545997   1.416   2.923   4.050 -1.7724  0.2545  0.4695
   62MOL   H73645998   1.358   2.857   4.203  0.1794  0.8841  0.0702
   62MOL   H73745999   1.608   2.824   4.275  1.2467 -0.8865 -0.2149
   62MOL   H73846000   1.645   2.851   4.098  0.2803  1.7163 -0.2671
   62MOL   H73946001   1.494   2.669   4.049  0.9070 -0.1999 -0.0951
   62MOL   H74046002   1.458   2.641   4.215 -2.3835  0.3731 -2.3149
   62MOL   H74146003   1.692   2.622   4.274  1.5463 -2.8562  0.2554
   62MOL   H74246004   1.631   2.504   4.193 -1.4848 -0.3089 -2.0632
   63MOL     C146005   3.149   1.685   1.760 -0.1470  0.9911  0.1443
   63MOL     O246006   3.239   1.616   1.708  0.3508 -0.3210 -0.2158
   63MOL     C346007   3.073   1.791   1.680  0.1438  0.3753 -0.7248
   63MOL     C446008   3.095   1.790   1.530  0.3461  0.2867 -0.0552
   63MOL     C546009   2.962   1.839   1.463  0.0505 -0.4130  0.4581
   63MOL     C646010   2.990   1.896   1.315  0.4671 -0.3493 -0.0917
   63MOL     C746011   3.021   1.800   1.207 -0.2854 -0.1052 -0.7541
   63MOL     C846012   3.019   1.867   1.070 -0.5584 -0.2183  0.1136
   63MOL     C946013   2.882   1.926   1.018  0.2358  0.1971 -0.2248
   63MOL    C1046014   2.872   1.982   0.881  0.3601 -0.0507 -0.3818
   63MOL    C1146015   2.727   2.019   0.855 -0.0030 -0.7417 -0.4344
   63MOL    C1246016   2.698   2.058   0.710  0.9901 -0.3123 -0.2765
   63MOL    C1346017   2.549   2.027   0.683 -0.0625 -0.1526 -0.6776
   63MOL    N1446018   2.519   2.072   0.551 -0.8819  0.1661 -0.2851
   63MOL    H1546019   3.087   1.891   1.721  0.7054  1.1031 -2.6266
   63MOL    H1646020   2.968   1.768   1.699  0.4281 -1.1050 -0.9251
   63MOL    H1746021   3.181   1.856   1.523  1.2244 -0.2852  4.0436
   63MOL    H1846022   3.129   1.694   1.492  0.5406  0.6164 -0.7249
   63MOL    H1946023   2.919   1.921   1.521  0.9989  0.8251 -0.5732
   63MOL    H2046024   2.902   1.748   1.454  0.5519 -0.6643 -0.3684
   63MOL    H2146025   2.897   1.951   1.298  0.7140  0.5728  1.4735
   63MOL    H2246026   3.068   1.972   1.325  1.0163 -1.0634  1.0901
   63MOL    H2346027   2.967   1.705   1.205 -1.1007  0.3418 -0.0900
   63MOL    H2446028   3.122   1.767   1.231 -0.6566  0.5803  1.8835
   63MOL    H2546029   3.040   1.792   0.993 -1.0713  0.3878 -0.6201
   63MOL    H2646030   3.098   1.940   1.086  0.6330 -1.2984 -0.6751
   63MOL    H2746031   2.856   2.008   1.085  1.5256  0.6975 -0.3306
   63MOL    H2846032   2.811   1.843   1.022 -0.0593  0.3563 -2.0091
   63MOL    H2946033   2.910   1.914   0.805 -0.5163 -2.0925  0.9406
   63MOL    H3046034   2.927   2.075   0.876 -0.7171  0.6139 -0.0202
   63MOL    H3146035   2.690   2.097   0.922 -0.5355 -1.4502  0.1217
   63MOL    H3246036   2.676   1.926   0.883  0.4453 -0.6148  0.8103
   63MOL    H3346037   2.759   2.003   0.638  1.0162  0.8245 -1.1376
   63MOL    H3446038   2.718   2.164   0.694  0.1325 -0.1585 -0.3708
   63MOL    H3546039   2.475   2.059   0.756  0.5260 -0.7450  0.1905
   63MOL    H3646040   2.549   1.918   0.681 -0.4972 -0.1404 -1.5884
   63MOL    H3746041   2.581   2.136   0.503 -0.7673  0.5221  0.3243
   63MOL    H3846042   3.124   1.676   1.866 -2.8237 -1.7952 -0.6547
   63MOL    C3946043   2.420   2.016   0.474 -0.7006  0.5554  0.4863
   63MOL    O4046044   2.346   1.927   0.513 -0.0114 -0.2710 -0.3202
   63MOL    C4146045   2.400   2.082   0.333 -0.1262 -0.1199 -0.3720
   63MOL    C4246046   2.428   2.003   0.208 -0.3369 -0.2784  0.2738
   63MOL    C4346047   2.576   1.970   0.175 -0.3684 -0.6523  0.0773
   63MOL    C4446048   2.659   2.095   0.123 -0.1618 -0.2114 -0.0275
   63MOL    C4546049   2.802   2.072   0.093 -0.3687  0.5649 -0.0884
   63MOL    C4646050   2.835   1.980   7.668 -0.2131 -0.0545  0.3273
   63MOL    C4746051   2.976   1.918   7.670  0.2706 -0.1821 -0.5862
   63MOL    C4846052   3.021   1.840   7.547 -0.4927 -0.2430 -0.5465
   63MOL    C4946053   3.163   1.763   7.568  0.2939 -0.2316 -0.2094
   63MOL    C5046054   3.199   1.682   7.440 -0.0481 -0.4125 -0.2771
   63MOL    C5146055   3.298   1.571   7.478 -0.1568 -0.1243 -0.5747
   63MOL    N5246056   3.346   1.485   7.369  0.1304 -0.9796  0.5555
   63MOL    H5346057   2.457   2.175   0.321  1.1187 -0.7396  0.6586
   63MOL    H5446058   2.296   2.114   0.326 -0.1360 -0.4378 -2.0127
   63MOL    H5546059   2.368   1.912   0.218 -0.8077 -0.0322 -0.2697
   63MOL    H5646060   2.396   2.067   0.125  1.9213  0.0763 -0.3450
   63MOL    H5746061   2.561   1.905   0.088  0.6964 -0.4143 -0.2888
   63MOL    H5846062   2.622   1.915   0.256 -2.8096 -0.6694  1.5154
   63MOL    H5946063   2.614   2.134   0.032  1.3318 -0.2425 -0.7944
   63MOL    H6046064   2.653   2.178   0.194  0.5422  1.3730 -1.8006
   63MOL    H6146065   2.843   2.024   0.182  1.9320 -1.5281 -2.2129
   63MOL    H6246066   2.847   2.170   0.079 -0.5327  0.2544 -2.9647
   63MOL    H6346067   2.829   2.039   7.577  0.2405  1.8695  1.5103
   63MOL    H6446068   2.752   1.912   7.652 -2.3610  2.5491  0.1348
   63MOL    H6546069   2.990   1.851   0.062  0.8448 -0.5920 -0.9950
   63MOL    H6646070   3.044   1.995   0.012 -0.2213 -0.7216  1.5823
   63MOL    H6746071   3.030   1.906   7.460 -1.8815  0.7321  0.0284
   63MOL    H6846072   2.940   1.772   7.519  0.5717 -0.8580 -2.2508
   63MOL    H6946073   3.157   1.693   7.651 -1.8689  0.0029 -0.1264
   63MOL    H7046074   3.242   1.833   7.592 -1.5715  1.7908  0.2293
   63MOL    H7146075   3.235   1.759   7.371  0.9247 -1.2656 -0.7406
   63MOL    H7246076   3.116   1.639   7.385  0.2762 -0.3449 -0.8252
   63MOL    H7346077   3.254   1.504   7.552  0.5117  1.8330  1.6497
   63MOL    H7446078   3.385   1.596   7.538 -0.7728  2.9581 -0.9024
   63MOL    H7546079   3.291   1.401   7.360 -2.1919  0.6999 -1.5878
   63MOL    C7646080   3.440   1.517   7.281  0.1095  0.4969  0.3776
   63MOL    O7746081   3.509   1.623   7.274  0.2129  0.4092  0.1540
   63MOL    C7846082   3.482   1.401   7.188 -0.7388  0.0087 -0.0155
   63MOL    C7946083   3.484   1.436   7.045 -0.0118  0.1013 -0.1734
   63MOL    C8046084   3.360   1.398   6.959 -0.4788  0.1014 -0.6204
   63MOL    C8146085   3.248   1.499   6.987 -0.6010 -1.0140  0.4842
   63MOL    C8246086   3.122   1.492   6.900 -0.0427 -0.4159 -0.5060
   63MOL    C8346087   3.021   1.604   6.918 -0.9757  0.4988 -0.0402
   63MOL    C8446088   2.989   1.646   7.063 -0.4848  0.3935  0.7547
   63MOL    C8546089   2.876   1.761   7.057 -0.6350 -0.5671  0.2471
   63MOL    C8646090   2.837   1.813   7.201  0.3973  0.4791  0.3820
   63MOL    C8746091   2.715   1.900   7.211  1.0251 -0.0945  0.2746
   63MOL    C8846092   2.697   1.966   7.343 -0.3365 -0.5166 -0.1593
   63MOL    N8946093   2.575   2.041   7.353 -0.2860  0.3696  0.1934
   63MOL    H9046094   3.404   1.326   7.201  1.4144 -1.9591  1.9947
   63MOL    H9146095   3.574   1.358   7.227  0.9192  0.9975 -2.6589
   63MOL    H9246096   3.525   1.536   7.027  2.4645 -0.5550  1.5470
   63MOL    H9346097   3.563   1.372   7.007 -1.2558 -1.2038 -0.5748
   63MOL    H9446098   3.328   1.294   6.964  0.9330 -0.3227  0.0315
   63MOL    H9546099   3.396   1.411   6.857 -1.5714 -3.0608 -1.4579
   63MOL    H9646100   3.222   1.496   7.093 -1.4375 -0.0613  0.3219
   63MOL    H9746101   3.290   1.599   6.977  1.9369 -1.9674  1.3586
   63MOL    H9846102   3.062   1.404   6.922 -0.8018 -0.0332 -1.0158
   63MOL    H9946103   3.145   1.486   6.794 -0.9492  0.3675 -0.7524
   63MOL   H10046104   2.930   1.581   6.863 -1.2305  2.9110 -0.6504
   63MOL   H10146105   3.071   1.681   6.861  0.0492 -0.3191 -0.2568
   63MOL   H10246106   3.078   1.697   7.099 -0.7718  2.4636 -1.3227
   63MOL   H10346107   2.969   1.560   7.125  1.9022  0.0053  1.0538
   63MOL   H10446108   2.785   1.730   7.006 -2.6364  4.9625  0.1346
   63MOL   H10546109   2.912   1.846   6.998 -1.3267 -0.0315  0.5785
   63MOL   H10646110   2.929   1.850   7.246  1.3920 -1.9454  0.4144
   63MOL   H10746111   2.818   1.723   7.260 -1.3850 -0.1820 -1.1554
   63MOL   H10846112   2.634   1.832   7.185 -2.1497  3.4266  0.5462
   63MOL   H10946113   2.705   1.978   7.136 -0.9685  2.0534  2.6936
   63MOL   H11046114   2.785   2.027   7.366 -1.5674  1.3729 -0.2813
   63MOL   H11146115   2.681   1.882   7.410  2.0890  0.6786  2.0114
   63MOL   H11246116   2.495   1.989   7.387 -1.5026  0.0958 -2.9259
   63MOL   C11346117   2.567   2.172   7.354 -0.2813  0.2126 -0.3599
   63MOL   O11446118   2.661   2.243   7.307  0.3494  0.2185 -0.0345
   63MOL   C11546119   2.442   2.231   7.423 -0.1764 -0.3481  0.3549
   63MOL   C11646120   2.371   2.328   7.326 -0.5980 -0.3964 -0.2310
   63MOL   C11746121   2.250   2.392   7.390  0.2100  0.1665  0.7661
   63MOL   C11846122   2.230   2.543   7.379  0.2974 -0.7453 -0.0931
   63MOL   C11946123   2.103   2.584   7.447 -0.3832 -0.8502  0.3152
   63MOL   C12046124   2.058   2.722   7.408  0.1971 -0.7440 -0.7580
   63MOL   C12146125   1.997   2.739   7.269 -0.6280  0.9845  0.3345
   63MOL   C12246126   1.973   2.887   7.241  0.5965 -0.2051  0.8464
   63MOL   C12346127   1.926   2.905   7.095  0.9178  0.4777  0.4187
   63MOL   C12446128   1.897   3.053   7.066  0.5052  0.1650  0.0775
   63MOL   C12546129   1.837   3.076   6.921  0.4190 -0.3590  0.1070
   63MOL   N12646130   1.828   3.224   6.886  0.0645  0.8036  0.5036
   63MOL   H12746131   2.477   2.280   7.514  2.3372  0.2702 -0.9033
   63MOL   H12846132   2.380   2.143   7.440  2.6814 -2.6972 -0.8050
   63MOL   H12946133   2.427   2.414   7.288 -0.9486 -0.0245  0.0826
   63MOL   H13046134   2.342   2.277   7.234  1.4332 -0.8823 -0.6243
   63MOL   H13146135   2.249   2.375   7.498 -1.3863 -0.8203  0.6114
   63MOL   H13246136   2.165   2.328   7.365  1.2620 -1.2759  0.8179
   63MOL   H13346137   2.313   2.591   7.431  1.6804 -1.0067 -1.9890
   63MOL   H13446138   2.218   2.574   7.275  4.2193  0.5642 -0.2476
   63MOL   H13546139   2.111   2.591   7.556  0.5609 -0.8028  0.2443
   63MOL   H13646140   2.026   2.512   7.422  0.8014 -1.7456 -0.7798
   63MOL   H13746141   2.138   2.795   7.420 -0.8499  0.3915 -0.5069
   63MOL   H13846142   1.984   2.758   7.480  0.1822 -0.1649 -1.0587
   63MOL   H13946143   1.905   2.680   7.265  0.4052 -0.5795 -1.6947
   63MOL   H14046144   2.064   2.694   7.195 -3.0217  1.1704 -1.9920
   63MOL   H14146145   2.061   2.948   7.260 -0.3135  1.0952  0.9617
   63MOL   H14246146   1.901   2.930   7.310 -1.7441  2.1077 -2.8385
   63MOL   H14346147   1.829   2.855   7.094  1.2451 -0.1617 -2.7189
   63MOL   H14446148   1.993   2.863   7.021  1.4529  0.3770  0.9545
   63MOL   H14546149   1.988   3.113   7.070 -0.5396  1.6645  2.5708
   63MOL   H14646150   1.834   3.102   7.140  0.0558  1.0223 -0.8664
   63MOL   H14746151   1.741   3.028   6.902  1.0859 -2.1842  1.2172
   63MOL   H14846152   1.903   3.047   6.839  0.0148  2.8585 -1.4156
   63MOL   H14946153   1.741   3.263   6.852 -0.3904 -1.3018 -0.8051
   63MOL   C15046154   1.927   3.313   6.882  0.6639 -0.0988  0.0678
   63MOL   O15146155   2.044   3.276   6.896 -0.5438 -0.1411  0.0406
   63MOL   C15246156   1.904   3.461   6.881 -0.6863  0.4076 -0.2427
   63MOL   C15346157   1.993   3.538   6.976  0.1110  0.1064 -0.6328
   63MOL   C15446158   1.966   3.512   7.120 -0.4953 -0.1207 -0.6393
   63MOL   C15546159   2.058   3.603   7.200  0.5703 -0.3209  0.2390
   63MOL   C15646160   2.029   3.603   7.354 -0.0393 -0.2454 -0.1428
   63MOL   C15746161   2.067   3.469   7.422 -0.1766  0.0161 -0.4383
   63MOL   C15846162   1.959   3.383   7.481  0.2642 -0.0234  0.1831
   63MOL   C15946163   2.010   3.264   7.568 -0.2407 -0.3443  0.4750
   63MOL   C16046164   1.910   3.160   7.610  0.3253  0.0022 -0.1226
   63MOL   C16146165   1.966   3.025   7.642  0.0596 -0.4197  0.1932
   63MOL   C16246166   1.870   2.934   0.010  0.0090  0.7151 -0.3243
   63MOL   N16346167   1.735   2.942   7.652  0.2106  0.0643  0.2968
   63MOL   H16446168   1.797   3.480   6.893 -0.4361  1.0145  1.0982
   63MOL   H16546169   1.922   3.490   6.778  0.9275 -2.2390 -0.7543
   63MOL   H16646170   2.096   3.513   6.952 -0.3757 -3.6452  0.9256
   63MOL   H16746171   1.969   3.642   6.956 -1.5827  0.3150  2.2443
   63MOL   H16846172   1.990   3.409   7.145 -0.8313 -0.4477 -1.6544
   63MOL   H16946173   1.864   3.534   7.153 -0.1983  1.9838 -1.0334
   63MOL   H17046174   2.164   3.592   7.176  0.1868  0.1068 -1.8242
   63MOL   H17146175   2.025   3.701   7.166  0.1501 -0.6705 -0.3893
   63MOL   H17246176   1.924   3.617   7.377 -0.2484  0.4458 -1.4595
   63MOL   H17346177   2.074   3.692   7.397  0.8410 -0.0375 -1.4533
   63MOL   H17446178   2.142   3.493   7.497  0.4298  2.4384 -1.7805
   63MOL   H17546179   2.127   3.423   7.344  0.8302  1.5564 -0.5909
   63MOL   H17646180   1.882   3.360   7.407 -1.5187  0.3736  1.8521
   63MOL   H17746181   1.910   3.440   7.560  0.1568 -2.4795  1.9530
   63MOL   H17846182   2.063   3.288   7.660  2.8987 -1.9056 -0.8300
   63MOL   H17946183   2.075   3.213   7.496 -0.5483  2.6946 -2.0926
   63MOL   H18046184   1.842   3.151   7.525  0.2037  2.1312 -0.2950
   63MOL   H18146185   1.854   3.203   7.693 -2.4009  0.9577 -2.3538
   63MOL   H18246186   2.044   3.032   0.025  1.4128  0.0243 -1.1874
   63MOL   H18346187   2.007   2.987   7.548  0.9854 -0.4001  0.5795
   63MOL   H18446188   1.883   2.948   0.117 -0.9843 -0.4488 -0.0408
   63MOL   H18546189   1.907   2.833   7.683  1.0358  1.4963 -2.4260
   63MOL   H18646190   1.681   3.010   0.009  0.3330  1.2070 -1.0797
   63MOL   C18746191   1.678   2.891   7.543 -0.0256 -0.5264  0.0225
   63MOL   O18846192   1.733   2.803   7.482 -0.4853  0.1199 -0.2877
   63MOL   C18946193   1.537   2.937   7.508 -0.3146  0.2176 -0.6240
   63MOL   C19046194   1.492   2.937   7.362  0.2975  0.0334 -0.2724
   63MOL   C19146195   1.581   3.013   7.265 -0.2201  0.5822  0.6837
   63MOL   C19246196   1.516   3.069   7.135 -0.1774 -0.3304  0.0481
   63MOL   C19346197   1.448   2.967   7.038 -0.1440 -0.2704 -0.4743
   63MOL   C19446198   1.359   3.033   6.930  0.0801  0.5406  0.3212
   63MOL   C19546199   1.217   3.039   6.979  0.0307 -0.4551 -1.0385
   63MOL   C19646200   1.141   3.104   6.879  0.1207 -0.2587 -0.2216
   63MOL   C19746201   0.986   3.106   6.904 -0.1922  0.0489  0.8000
   63MOL   C19846202   0.940   3.179   7.029  0.6961  0.5786 -0.4792
   63MOL   C19946203   0.784   3.175   7.041  0.8225  0.2914  0.8309
   63MOL   N20046204   0.744   3.251   7.156  0.1353  0.0099  0.2059
   63MOL   H20146205   1.524   3.033   7.559  1.2124 -0.5542  1.2940
   63MOL   H20246206   1.469   2.866   7.555 -1.0340  0.4914 -1.2373
   63MOL   H20346207   1.477   2.833   7.332  0.1926 -0.1038  0.2554
   63MOL   H20446208   1.393   2.984   7.362  1.2078  2.0270  1.6140
   63MOL   H20546209   1.658   2.939   7.244 -2.1826 -1.4902  0.5789
   63MOL   H20646210   1.632   3.097   7.312  2.4596 -1.2155  1.0447
   63MOL   H20746211   1.438   3.138   7.168  0.3468  0.6397 -0.7225
   63MOL   H20846212   1.584   3.125   7.071 -0.8623 -2.0902 -2.2876
   63MOL   H20946213   1.385   2.900   7.097  2.6719 -1.3570  1.4572
   63MOL   H21046214   1.534   2.909   7.004  0.4988  1.4851 -1.8703
   63MOL   H21146215   1.372   2.968   6.844  1.8305 -0.0175  0.9754
   63MOL   H21246216   1.395   3.131   6.901  2.2844 -0.4132 -0.3304
   63MOL   H21346217   1.215   3.093   7.073 -1.1632  0.6871 -1.7067
   63MOL   H21446218   1.189   2.935   6.995  1.9105 -0.8201  0.0433
   63MOL   H21546219   1.164   3.065   6.780 -2.3832 -0.6650 -0.6910
   63MOL   H21646220   1.178   3.205   6.863 -0.3876 -0.6146 -4.2972
   63MOL   H21746221   0.944   3.006   6.895  1.7385 -0.6447 -0.8806
   63MOL   H21846222   0.955   3.153   6.811 -1.5042 -2.0174  0.1657
   63MOL   H21946223   0.975   3.282   7.038  1.4489  0.5411 -2.8147
   63MOL   H22046224   0.979   3.126   7.116  2.3595 -0.0956 -1.6055
   63MOL   H22146225   0.758   3.069   7.046  1.6998  0.0349  0.1557
   63MOL   H22246226   0.742   3.226   6.954 -0.6563 -0.8141  0.8721
   63MOL   H22346227   0.736   3.352   7.150  0.2624  0.1233  1.6319
   63MOL   C22446228   0.703   3.194   7.267 -0.3023 -0.2285  0.3122
   63MOL   O22546229   0.694   3.073   7.290 -0.1659 -0.1988 -0.4134
   63MOL   C22646230   0.662   3.296   7.378 -0.2148 -0.2658 -0.5275
   63MOL   C22746231   0.713   3.264   7.517  0.0363  0.3782  0.0209
   63MOL   C22846232   0.639   3.337   7.623 -0.1622 -0.0827 -0.3941
   63MOL   C22946233   0.686   3.318   0.076 -0.6182  0.4850 -0.1469
   63MOL   C23046234   0.694   3.167   0.107 -0.4782 -0.0561 -0.7610
   63MOL   C23146235   0.725   3.133   0.255  1.0524 -0.2523 -0.1421
   63MOL   C23246236   0.766   2.984   0.265  0.0910 -0.7934  0.2205
   63MOL   C23346237   0.826   2.954   0.405  1.3137 -0.1637  0.4438
   63MOL   C23446238   0.968   2.993   0.431  0.8307 -0.3076  0.3425
   63MOL   C23546239   1.027   2.977   0.572  0.1293 -0.2496 -0.0637
   63MOL   C23646240   1.024   2.829   0.620  0.1220  0.7086 -0.2906
   63MOL   N23746241   1.067   2.824   0.761 -0.1092 -0.2075 -0.1292
   63MOL   H23846242   0.554   3.291   7.385 -0.3419  1.1539 -1.1200
   63MOL   H23946243   0.689   3.400   7.355 -0.5976 -0.5250 -2.2259
   63MOL   H24046244   0.717   3.158   7.540  2.2745  0.1365 -1.3444
   63MOL   H24146245   0.816   3.299   7.527 -0.7326  1.8968  3.5535
   63MOL   H24246246   0.536   3.303   7.634  0.3963 -1.3495  0.9978
   63MOL   H24346247   0.627   3.443   7.600 -2.5589 -0.8019 -2.5946
   63MOL   H24446248   0.787   3.359   0.089 -0.6286  0.1838  0.8646
   63MOL   H24546249   0.619   3.355   0.153  1.4680  2.9766  0.5637
   63MOL   H24646250   0.782   3.124   0.059  2.0853  0.7023  2.9816
   63MOL   H24746251   0.615   3.109   0.060 -0.4739 -1.1214  0.5137
   63MOL   H24846252   0.637   3.155   0.315  0.5844 -0.3751 -0.7692
   63MOL   H24946253   0.801   3.201   0.294  0.8761  0.4821 -1.0466
   63MOL   H25046254   0.838   2.958   0.187  1.7586 -0.5607  1.6541
   63MOL   H25146255   0.677   2.924   0.250 -1.2254  0.8914  1.0682
   63MOL   H25246256   0.812   2.849   0.429  0.8084  0.1775  1.6885
   63MOL   H25346257   0.765   3.010   0.477 -1.0106 -0.7078 -1.0550
   63MOL   H25446258   0.994   3.089   0.387 -0.4849 -0.5700 -1.0374
   63MOL   H25546259   1.018   2.920   0.368  0.9636 -0.0594  0.1607
   63MOL   H25646260   0.963   3.037   0.637 -1.5730 -0.9456 -1.0519
   63MOL   H25746261   1.124   3.025   0.570 -0.2949  0.6234 -0.0381
   63MOL   H25846262   1.093   2.769   0.562  1.0661  0.8697  0.6494
   63MOL   H25946263   0.923   2.792   0.606 -0.0679  0.9866  0.2779
   63MOL   H26046264   1.049   2.910   0.811  2.0056 -0.2187  0.7244
   63MOL   C26146265   1.124   2.724   0.824  1.1461  0.8873 -0.5840
   63MOL   O26246266   1.141   2.617   0.771  0.1212  0.2090 -0.1687
   63MOL   C26346267   1.159   2.744   0.967 -0.3022  0.4987 -0.5514
   63MOL   C26446268   1.227   2.629   1.038 -0.1312 -0.1143 -0.9704
   63MOL   C26546269   1.276   2.676   1.170 -0.7682  0.3381 -0.2479
   63MOL   C26646270   1.358   2.571   1.253  0.7715  0.4422  1.0448
   63MOL   C26746271   1.415   2.621   1.382  0.4449  0.1849  0.0242
   63MOL   C26846272   1.513   2.515   1.434  0.2924  0.5414  0.3952
   63MOL   C26946273   1.568   2.567   1.566  0.0416 -0.6732 -0.0673
   63MOL   C27046274   1.683   2.483   1.619 -0.6501 -0.7606 -0.5174
   63MOL   C27146275   1.817   2.487   1.542  0.0359  0.3542 -0.0289
   63MOL   C27246276   1.919   2.393   1.608 -0.8340 -0.7095  0.2141
   63MOL   C27346277   2.047   2.383   1.523  0.1092  0.8182  0.1648
   63MOL   N27446278   2.145   2.290   1.592  0.5873  0.0588  0.5794
   63MOL   H27546279   1.061   2.756   1.014  1.9399  3.1184  3.7643
   63MOL   H27646280   1.200   2.842   0.990 -0.5336  0.1343  1.4697
   63MOL   H27746281   1.163   2.542   1.050 -1.9103  1.3115  0.0960
   63MOL   H27846282   1.310   2.590   0.979 -0.7073 -2.6245 -0.1788
   63MOL   H27946283   1.193   2.706   1.233 -1.4532 -2.0541  0.0413
   63MOL   H28046284   1.338   2.765   1.156 -1.8027  0.7620 -2.2175
   63MOL   H28146285   1.308   2.476   1.266 -2.6083  1.7148 -1.8051
   63MOL   H28246286   1.449   2.542   1.200 -0.3666 -1.1992 -0.0549
   63MOL   H28346287   1.327   2.629   1.447  0.2739 -1.6410  0.0282
   63MOL   H28446288   1.466   2.717   1.382  1.4431 -0.3396 -1.2593
   63MOL   H28546289   1.593   2.498   1.361  1.2325 -1.0293  1.7616
   63MOL   H28646290   1.477   2.416   1.459 -1.6444  0.1269 -3.6574
   63MOL   H28746291   1.493   2.564   1.645 -0.2925  0.6767 -0.3317
   63MOL   H28846292   1.591   2.673   1.559 -2.0238 -0.2475 -0.5631
   63MOL   H28946293   1.657   2.378   1.631  1.1785 -1.1049  0.6451
   63MOL   H29046294   1.700   2.524   1.719 -0.1968 -1.5648 -0.2602
   63MOL   H29146295   1.859   2.586   1.525  0.7768  0.0580  0.0726
   63MOL   H29246296   1.803   2.436   1.447  1.2709 -0.1364  0.0471
   63MOL   H29346297   1.871   2.295   1.618  0.8406 -1.5999 -0.3141
   63MOL   H29446298   1.943   2.439   1.704  1.4220  1.0461 -1.1495
   63MOL   H29546299   2.090   2.482   1.511  0.4471  1.0674  3.0038
   63MOL   H29646300   2.027   2.333   1.429 -0.6972 -1.4694  1.5010
   63MOL   H29746301   2.111   2.203   1.632  1.0304 -0.4099 -0.0447
   63MOL   C29846302   2.277   2.290   1.569 -0.6969  0.2812 -0.7585
   63MOL   O29946303   2.341   2.196   1.621  0.5558 -0.0873 -0.5043
   63MOL   C30046304   2.342   2.406   1.489  0.0123  0.6817 -0.3710
   63MOL   C30146305   2.486   2.370   1.454  0.6424  0.1604  0.0897
   63MOL   C30246306   2.557   2.476   1.377 -0.5441  0.2418 -0.6431
   63MOL   C30346307   2.709   2.458   1.359  0.5769 -0.2493 -0.0149
   63MOL   C30446308   2.736   2.342   1.267  0.5693  0.5393  0.9178
   63MOL   C30546309   2.885   2.327   1.253 -0.6260  0.8464  1.0866
   63MOL   C30646310   2.960   2.275   1.374  0.0030 -0.2448 -0.3905
   63MOL   C30746311   3.105   2.245   1.351  0.3785 -0.2084  0.6230
   63MOL   C30846312   3.186   2.197   1.473 -0.7825  0.3662  0.2102
   63MOL   C30946313   3.329   2.170   1.438 -0.1409  0.7647  0.2379
   63MOL   C31046314   3.359   2.042   1.353 -0.5500 -0.1400  0.3705
   63MOL   N31146315   3.501   2.048   1.312 -0.4446 -0.0370  0.2651
   63MOL   H31246316   2.335   2.493   1.555 -4.0783  0.2906 -0.1634
   63MOL   H31346317   2.286   2.415   1.396 -0.1642  0.6828 -0.2648
   63MOL   H31446318   2.546   2.359   1.545  1.8835 -0.4505 -0.8020
   63MOL   H31546319   2.488   2.278   1.397 -2.4635  0.9921 -1.4423
   63MOL   H31646320   2.552   2.572   1.430  1.2511  0.5635 -1.0092
   63MOL   H31746321   2.519   2.477   1.275  0.3142  0.7918 -0.9734
   63MOL   H31846322   2.743   2.548   1.308 -0.3227  0.1320  0.0586
   63MOL   H31946323   2.757   2.446   1.456  0.1839  0.0010  0.2124
   63MOL   H32046324   2.682   2.375   1.178  2.8106 -2.6265 -1.7614
   63MOL   H32146325   2.685   2.249   1.293  1.6042  0.2637  2.0044
   63MOL   H32246326   2.923   2.419   1.208  0.3418  0.0047  0.1391
   63MOL   H32346327   2.894   2.260   1.167  1.2198  0.0312  1.8853
   63MOL   H32446328   2.906   2.188   1.412 -1.0354  0.4964 -0.1520
   63MOL   H32546329   2.957   2.354   1.449 -0.7186  0.0527 -0.7330
   63MOL   H32646330   3.151   2.335   1.310 -2.2924  0.5518 -0.8197
   63MOL   H32746331   3.108   2.171   1.271 -0.1166 -0.5393  0.9054
   63MOL   H32846332   3.139   2.107   1.512 -0.6338  0.1849 -0.0258
   63MOL   H32946333   3.170   2.257   1.563 -1.4582  0.3350  0.1124
   63MOL   H33046334   3.382   2.152   1.531 -2.6555 -0.7230  1.4242
   63MOL   H33146335   3.376   2.264   1.408 -0.4766  0.3112 -1.7749
   63MOL   H33246336   3.289   2.040   1.269  0.0277 -1.0184 -0.0830
   63MOL   H33346337   3.361   1.952   1.414 -1.3143  1.2266  2.4714
   63MOL   H33446338   3.568   2.031   1.386 -1.3389 -0.9820  0.8648
   63MOL   C33546339   3.531   2.031   1.181  0.4120  0.1813  0.2173
   63MOL   O33646340   3.437   2.042   1.097  0.8042  0.1675  0.1701
   63MOL   C33746341   3.669   1.994   1.136  0.7122 -0.1984 -0.7824
   63MOL   C33846342   3.684   1.849   1.090  0.0260  0.0471  0.3981
   63MOL   C33946343   3.673   1.755   1.212  0.7195 -0.7001 -0.2583
   63MOL   C34046344   3.808   1.721   1.271  0.0519 -0.6786 -0.3041
   63MOL   C34146345   3.803   1.625   1.392  0.2471 -0.6011 -0.3570
   63MOL   C34246346   3.943   1.565   1.413 -0.1511  0.6556  0.0168
   63MOL   C34346347   3.977   1.456   1.312 -0.1046  0.1587 -0.2597
   63MOL   C34446348   4.111   1.396   1.338 -0.0387  0.2819  0.6633
   63MOL   C34546349   4.143   1.306   1.217  0.0249  0.3375  0.5607
   63MOL   C34646350   4.266   1.211   1.226  0.0590  0.5322  0.5006
   63MOL   C34746351   4.404   1.279   1.196  0.0620 -0.3440  0.0695
   63MOL   N34846352   4.394   1.375   1.092  0.0824  0.4756 -0.0967
   63MOL   H34946353   3.739   2.020   1.215  1.5886  0.0160 -1.6197
   63MOL   H35046354   3.704   2.049   1.049  2.4483 -0.7033 -0.4123
   63MOL   H35146355   3.608   1.821   1.018  0.7074 -0.4742 -0.1279
   63MOL   H35246356   3.779   1.827   1.041 -0.5681 -1.1649 -0.2274
   63MOL   H35346357   3.633   1.656   1.187 -0.4934 -0.5739  1.0857
   63MOL   H35446358   3.599   1.783   1.288  0.2342  1.4439 -1.4851
   63MOL   H35546359   3.855   1.673   1.185 -1.3085 -0.5730 -1.0989
   63MOL   H35646360   3.863   1.814   1.287  0.2092 -0.5130 -1.7841
   63MOL   H35746361   3.727   1.547   1.387 -2.5351  2.0039  0.1049
   63MOL   H35846362   3.765   1.674   1.481  0.0302 -0.0525 -0.7482
   63MOL   H35946363   3.926   1.519   1.510 -3.3891  0.7978 -0.4156
   63MOL   H36046364   4.013   1.648   1.406  1.7674 -0.9769 -0.5441
   63MOL   H36146365   3.970   1.499   1.213 -0.4067 -0.8116 -0.6690
   63MOL   H36246366   3.909   1.371   1.316  1.6129 -1.1959  1.2306
   63MOL   H36346367   4.115   1.344   1.433 -2.0821 -2.2906 -0.5958
   63MOL   H36446368   4.178   1.482   1.332 -0.0245  0.1247 -2.7974
   63MOL   H36546369   4.141   1.359   1.122  0.0367 -0.1951  0.2608
   63MOL   H36646370   4.053   1.244   1.211  0.4531 -0.0935 -1.8519
   63MOL   H36746371   4.235   1.134   1.155  0.7020  0.3442  0.4201
   63MOL   H36846372   4.271   1.161   1.322 -0.1701 -0.7252 -0.1295
   63MOL   H36946373   4.479   1.205   1.169  1.0736  0.3622  0.8752
   63MOL   H37046374   4.441   1.324   1.289  1.6787  1.2694 -1.3200
   63MOL   H37146375   4.377   1.346   0.997 -2.1716 -0.6639  0.6285
   63MOL   C37246376   4.415   1.507   1.109  0.2257  0.3842  0.7343
   63MOL   O37346377   4.439   1.559   1.219  0.3384  0.4898  0.3969
   63MOL   C37446378   4.421   1.601   0.983  0.6998 -0.0239  0.1734
   63MOL   C37546379   4.334   1.719   0.991  0.6971 -0.1366 -0.4442
   63MOL   C37646380   4.185   1.685   0.986  0.3721 -0.2003  0.3818
   63MOL   C37746381   4.134   1.617   0.855 -0.0423  0.2583 -0.0740
   63MOL   C37846382   3.989   1.659   0.828 -0.0521  0.1738 -0.4923
   63MOL   C37946383   3.978   1.809   0.796 -0.5163 -0.5550  0.2630
   63MOL   C38046384   3.837   1.837   0.739 -0.2305  0.2282  0.1891
   63MOL   C38146385   3.791   1.978   0.715  0.0403 -1.0783 -0.2120
   63MOL   C38246386   3.641   1.995   0.662 -0.7826  0.2158  0.5871
   63MOL   C38346387   3.591   2.137   0.618 -0.0955  0.2265 -0.6830
   63MOL   C38446388   3.452   2.139   0.563  0.0015  0.1350  0.3149
   63MOL   N38546389   3.351   2.146   0.662  0.0765 -0.0319 -0.3732
   63MOL   H38646390   4.394   1.544   0.895 -2.5825 -1.1797  1.8643
   63MOL   H38746391   4.523   1.638   0.972 -0.1253  1.8313 -1.3876
   63MOL   H38846392   4.342   1.775   1.084  0.0750 -1.6996  0.5601
   63MOL   H38946393   4.365   1.795   0.919 -1.1544  0.0070 -1.1127
   63MOL   H39046394   4.121   1.771   1.005  2.8891  1.9831 -0.7361
   63MOL   H39146395   4.162   1.624   1.073 -0.4238 -1.0849 -0.4419
   63MOL   H39246396   4.195   1.633   0.766  3.1525 -1.7840  1.6685
   63MOL   H39346397   4.144   1.509   0.865  0.2980  0.2900 -0.0666
   63MOL   H39446398   3.924   1.631   0.911 -0.1383 -1.2120 -1.0097
   63MOL   H39546399   3.957   1.596   0.745  1.6241 -0.5846 -0.5999
   63MOL   H39646400   4.052   1.840   0.721 -1.6778 -0.6147 -0.9317
   63MOL   H39746401   3.983   1.876   0.882 -0.2668 -0.6772  0.3431
   63MOL   H39846402   3.759   1.792   0.800  0.0484  1.3477  1.3983
   63MOL   H39946403   3.824   1.788   0.642  0.3358 -0.6695  0.5558
   63MOL   H40046404   3.863   2.022   0.645 -0.2438  1.4321  1.0276
   63MOL   H40146405   3.799   2.029   0.810 -5.2907 -0.9342  0.2747
   63MOL   H40246406   3.570   1.949   0.730 -1.8422 -0.4858 -0.9768
   63MOL   H40346407   3.631   1.925   0.579 -1.9007 -1.3091  1.9631
   63MOL   H40446408   3.669   2.172   0.549  2.1275 -0.9315  1.1640
   63MOL   H40546409   3.604   2.212   0.697 -0.7455  2.8621 -3.0094
   63MOL   H40646410   3.447   2.051   0.499  1.0142 -0.9703  1.7219
   63MOL   H40746411   3.437   2.224   0.496 -1.7887 -0.6465 -0.3136
   63MOL   H40846412   3.338   2.067   0.724 -1.3681  1.1702  0.8988
   63MOL   C40946413   3.292   2.255   0.706 -0.0036  0.4005  0.3055
   63MOL   O41046414   3.308   2.368   0.654  0.1736 -0.7424  0.3299
   63MOL   C41146415   3.188   2.243   0.822 -0.6039 -0.5133  0.7739
   63MOL   C41246416   3.191   2.354   0.929 -0.6742 -0.2760 -0.1177
   63MOL   C41346417   3.321   2.382   1.005  0.0617 -0.5884 -0.2457
   63MOL   C41446418   3.308   2.531   1.057 -0.3972 -0.4045 -0.4599
   63MOL   C41546419   3.440   2.593   1.121  0.6591 -0.0381  0.4508
   63MOL   C41646420   3.502   2.516   1.235  0.1724 -0.0855  0.5671
   63MOL   C41746421   3.627   2.586   1.302  0.2140 -0.0880 -0.1027
   63MOL   C41846422   3.674   2.542   1.442 -0.3781  0.1711  0.4441
   63MOL   C41946423   3.721   2.396   1.456  0.0143 -0.4004  0.3357
   63MOL   C42046424   3.863   2.384   1.388 -0.0805 -0.5992 -0.3353
   63MOL   C42146425   3.873   2.291   1.269 -0.3393 -0.0215  0.8274
   63MOL   N42246426   4.008   2.298   1.211  0.3460  0.0694 -0.3046
   63MOL   H42346427   3.196   2.143   0.863  0.6127 -2.4248 -3.7920
   63MOL   H42446428   3.092   2.230   0.773 -0.0976 -0.3053 -0.2839
   63MOL   H42546429   3.151   2.437   0.870 -0.4377 -1.5995 -2.2198
   63MOL   H42646430   3.112   2.334   1.001 -0.5000 -1.7562 -0.3141
   63MOL   H42746431   3.413   2.381   0.948  0.2127 -0.8193  0.0010
   63MOL   H42846432   3.337   2.310   1.086 -1.6529 -3.8574 -2.7009
   63MOL   H42946433   3.276   2.595   0.974  1.7181  1.4336  0.0765
   63MOL   H43046434   3.232   2.535   1.134 -0.6413 -1.0540 -0.6620
   63MOL   H43146435   3.430   2.698   1.148  3.4350  0.3845  0.0251
   63MOL   H43246436   3.516   2.574   1.045  0.8277  1.4664  0.2285
   63MOL   H43346437   3.536   2.416   1.209  1.6879  1.1371 -2.3324
   63MOL   H43446438   3.434   2.490   1.315  0.5483 -3.0620 -0.0313
   63MOL   H43546439   3.600   2.692   1.308 -1.7490 -0.4347 -2.0226
   63MOL   H43646440   3.708   2.579   1.230 -0.4798  0.6755 -0.9747
   63MOL   H43746441   3.597   2.565   1.515  0.3728 -1.7641  1.9137
   63MOL   H43846442   3.751   2.609   1.479 -1.8993  2.1463  0.0836
   63MOL   H43946443   3.646   2.339   1.402 -1.6362  1.3502  0.7393
   63MOL   H44046444   3.721   2.361   1.559 -0.6014 -1.7784 -0.1145
   63MOL   H44146445   3.925   2.345   1.469  1.0944 -0.3474 -1.0979
   63MOL   H44246446   3.898   2.480   1.350  0.9767 -0.2748  1.4135
   63MOL   H44346447   3.804   2.327   1.193  0.8637 -1.3326 -0.9232
   63MOL   H44446448   3.851   2.187   1.295 -1.8713 -0.6002 -2.6208
   63MOL   H44546449   4.083   2.347   1.258  2.3149 -1.7942 -1.3908
   63MOL   C44646450   4.048   2.221   1.111  0.3252  0.4494  0.6360
   63MOL   O44746451   3.971   2.138   1.064 -0.4039 -0.1885  1.0472
   63MOL   C44846452   4.198   2.227   1.073  0.1621 -0.2554 -0.3326
   63MOL   C44946453   4.245   2.162   0.940 -0.0164  0.6348 -0.4681
   63MOL   C45046454   4.171   2.208   0.811  0.0792 -0.0480  0.4094
   63MOL   C45146455   4.185   2.359   0.786 -0.8648 -0.3854 -0.7093
   63MOL   C45246456   4.164   2.396   0.642 -0.0959 -0.2116 -0.0991
   63MOL   C45346457   4.020   2.389   0.592  0.5427  0.3468 -0.4021
   63MOL   C45446458   3.936   2.487   0.666  0.2134 -0.1307 -0.1340
   63MOL   C45546459   3.795   2.510   0.605  1.0773 -0.3541  0.5830
   63MOL   C45646460   3.709   2.618   0.680  0.4220  0.2515 -0.4161
   63MOL   C45746461   3.561   2.597   0.639 -0.0449  0.2570 -0.1847
   63MOL   C45846462   3.447   2.681   0.708  0.2464 -0.3676  0.5349
   63MOL   N45946463   3.308   2.638   0.671  1.0755 -0.2042 -0.4213
   63MOL   H46046464   4.257   2.177   1.150  1.8287  1.5639 -0.3877
   63MOL   H46146465   4.227   2.331   1.063  0.5223 -0.3976 -0.8533
   63MOL   H46246466   4.352   2.172   0.925  0.0835  0.1014 -0.1242
   63MOL   H46346467   4.212   2.059   0.958  0.2030  0.1937 -2.4833
   63MOL   H46446468   4.064   2.190   0.819 -0.3298  0.3190 -3.1215
   63MOL   H46546469   4.211   2.154   0.725 -1.1010 -0.4543  0.0982
   63MOL   H46646470   4.119   2.428   0.839  0.4949 -0.1124  0.6849
   63MOL   H46746471   4.290   2.379   0.809 -0.9102  0.4422 -1.1987
   63MOL   H46846472   4.224   2.328   0.581  1.3899  1.7049 -0.8389
   63MOL   H46946473   4.197   2.500   0.633 -0.1400 -0.2588 -0.8520
   63MOL   H47046474   3.988   2.287   0.614  0.7514  0.6690  1.4221
   63MOL   H47146475   4.026   2.406   0.484 -1.6516 -1.4906 -0.8678
   63MOL   H47246476   3.993   2.579   0.668  0.3476 -0.1679 -1.5819
   63MOL   H47346477   3.911   2.452   0.766 -0.9032 -0.2941 -0.4589
   63MOL   H47446478   3.743   2.414   0.600 -1.6803  1.1526 -1.1334
   63MOL   H47546479   3.813   2.546   0.504  0.7105 -0.4539  0.4793
   63MOL   H47646480   3.740   2.721   0.665  0.1191  0.5361  0.8812
   63MOL   H47746481   3.709   2.597   0.787 -2.2771  3.4620  0.3150
   63MOL   H47846482   3.529   2.495   0.661 -1.1729  0.8842  1.1497
   63MOL   H47946483   3.560   2.606   0.530  4.4712 -0.7987 -0.4158
   63MOL   H48046484   3.472   2.785   0.685 -0.5065  0.2740  2.5048
   63MOL   H48146485   3.459   2.677   0.816 -1.5558 -1.3763  0.7069
   63MOL   H48246486   3.286   2.542   0.651  1.9077  0.0054 -2.5405
   63MOL   C48346487   3.192   2.705   0.683  0.5902  0.1621 -0.4857
   63MOL   O48446488   3.171   2.820   0.723 -0.3462 -0.0796 -0.1340
   63MOL   C48546489   3.059   2.629   0.656 -0.1915 -0.1944  0.2586
   63MOL   C48646490   2.964   2.646   0.771  0.7987 -0.1729  0.3052
   63MOL   C48746491   2.852   2.547   0.748 -0.8501 -0.0651 -0.4001
   63MOL   C48846492   2.729   2.565   0.840 -0.4838  0.4058  0.1684
   63MOL   C48946493   2.652   2.431   0.866 -0.1178 -0.6908 -0.0064
   63MOL   C49046494   2.522   2.442   0.947  0.4614 -0.0982 -0.5608
   63MOL   C49146495   2.464   2.301   0.975 -0.0406 -0.5042 -0.6880
   63MOL   C49246496   2.330   2.311   1.049 -0.3879 -0.6792 -0.0744
   63MOL   C49346497   2.272   2.177   1.092  0.1643 -0.7165  0.2507
   63MOL   C49446498   2.150   2.196   1.186  0.3766  0.4350 -0.1799
   63MOL   C49546499   2.038   2.086   1.189  0.8502  0.3613 -0.3419
   63MOL   N49646500   2.080   1.964   1.260  0.5698 -0.1061 -0.0553
   63MOL   H49746501   3.087   2.525   0.641 -1.1027 -0.5081  0.6862
   63MOL   H49846502   3.020   2.662   0.560  0.5014 -0.7066 -0.2021
   63MOL   H49946503   3.018   2.627   0.864  0.8995 -1.7340 -0.0712
   63MOL   H50046504   2.920   2.746   0.783  1.1736 -0.1909  1.9312
   63MOL   H50146505   2.897   2.450   0.767 -1.4900 -0.3516 -0.3427
   63MOL   H50246506   2.819   2.542   0.644 -0.3331  3.4065 -0.7864
   63MOL   H50346507   2.766   2.610   0.933 -0.6117 -2.0577  1.4469
   63MOL   H50446508   2.668   2.645   0.797  1.5658  2.3495  0.7373
   63MOL   H50546509   2.713   2.362   0.925  2.4557  1.5460  0.0692
   63MOL   H50646510   2.630   2.384   0.770 -0.4589  0.5541 -0.5469
   63MOL   H50746511   2.448   2.496   0.888  0.0675  1.7708  1.5340
   63MOL   H50846512   2.548   2.494   1.040  1.9885  0.6699 -1.4071
   63MOL   H50946513   2.531   2.247   1.041  1.4323 -0.4745 -2.1352
   63MOL   H51046514   2.468   2.243   0.883  2.4954 -0.3698 -0.6903
   63MOL   H51146515   2.255   2.375   1.004 -0.6522 -0.2328  0.9976
   63MOL   H51246516   2.349   2.375   1.135  1.7274  1.5295 -2.1012
   63MOL   H51346517   2.345   2.126   1.155 -0.9095 -0.4807  1.7308
   63MOL   H51446518   2.246   2.119   1.003 -1.1367  1.8118 -1.0739
   63MOL   H51546519   2.100   2.290   1.166  1.1735  0.9012 -0.0203
   63MOL   H51646520   2.189   2.201   1.287  1.8708  0.5568 -0.7459
   63MOL   H51746521   1.997   2.062   1.090  0.9574 -0.6990 -0.1426
   63MOL   H51846522   1.950   2.121   1.242 -0.3354 -2.6107 -0.2435
   63MOL   H51946523   2.138   1.894   1.217  0.4848  0.5315 -1.2385
   63MOL   C52046524   2.047   1.930   1.383 -0.0766 -0.3702 -0.7234
   63MOL   O52146525   1.963   1.994   1.453  0.0519  0.1976  0.3320
   63MOL   C52246526   2.110   1.808   1.449 -0.1602 -0.4281  0.5255
   63MOL   C52346527   2.112   1.805   1.607 -0.0688 -0.5511 -0.8143
   63MOL   C52446528   2.205   1.915   1.657  0.2902 -0.3221 -0.1386
   63MOL   C52546529   2.240   1.897   1.811  1.3504 -0.4042  0.3880
   63MOL   C52646530   2.125   1.933   1.914 -0.1496  0.1104 -0.6423
   63MOL   C52746531   2.177   1.905   2.056  0.1387  0.0696  0.1055
   63MOL   C52846532   2.171   1.758   2.100 -0.2711  0.3347  0.0822
   63MOL   C52946533   2.207   1.716   2.245 -0.0794 -0.3055 -0.4408
   63MOL   C53046534   2.185   1.563   2.271  0.4299  0.0561  0.4128
   63MOL   C53146535   2.240   1.503   2.402  0.2176 -0.1835  0.0630
   63MOL   C53246536   2.252   1.351   2.410 -1.1062  0.6637 -0.3531
   63MOL   N53346537   2.340   1.310   2.522  0.6853  0.0351 -0.2823
   63MOL   H53446538   2.212   1.791   1.416  0.3818  1.2754  1.2638
   63MOL   H53546539   2.050   1.725   1.411 -0.5666  0.6964 -1.3807
   63MOL   H53646540   2.014   1.829   1.648  0.3523  1.6745 -1.0327
   63MOL   H53746541   2.147   1.708   1.642 -1.2679 -0.2698  1.2636
   63MOL   H53846542   2.164   2.016   1.652 -1.5746 -1.1288 -1.8736
   63MOL   H53946543   2.298   1.921   1.599  0.5659  0.5471  0.3898
   63MOL   H54046544   2.270   1.794   1.828 -1.9394 -1.6016 -0.6953
   63MOL   H54146545   2.328   1.959   1.829  1.6093 -1.0368  1.3530
   63MOL   H54246546   2.030   1.882   1.900  1.0447 -2.0500 -1.0129
   63MOL   H54346547   2.115   2.042   1.905  1.1234  0.2317 -0.6115
   63MOL   H54446548   2.112   1.963   2.121  0.3027 -0.0647  0.3884
   63MOL   H54546549   2.272   1.957   2.065 -0.6795  1.4181  1.0474
   63MOL   H54646550   2.229   1.698   2.028 -0.6784 -0.4076  0.3630
   63MOL   H54746551   2.070   1.722   2.078  0.4625 -0.7648 -1.6292
   63MOL   H54846552   2.153   1.765   2.327 -0.4596 -0.1640 -0.7720
   63MOL   H54946553   2.314   1.731   2.257  0.0487 -0.6590 -1.1197
   63MOL   H55046554   2.236   1.505   2.194 -1.3562 -0.2650 -0.5659
   63MOL   H55146555   2.081   1.533   2.260  0.0966  1.6460 -0.8874
   63MOL   H55246556   2.181   1.537   2.487  1.6366  0.6306  0.7254
   63MOL   H55346557   2.338   1.539   2.432  1.0945 -2.3148 -0.1839
   63MOL   H55446558   2.295   1.303   2.322  0.0577 -0.4606  0.8131
   63MOL   H55546559   2.154   1.303   2.409 -1.0036  0.4557 -1.1723
   63MOL   H55646560   2.434   1.345   2.516  0.5181  0.3110 -1.3445
   63MOL   C55746561   2.301   1.266   2.638 -0.1922 -0.3145 -0.4421
   63MOL   O55846562   2.184   1.237   2.659 -0.1517 -0.1344 -0.1228
   63MOL   C55946563   2.409   1.243   2.741 -0.1310  0.3886 -0.2570
   63MOL   C56046564   2.406   1.353   2.864  0.3829  0.2099  0.6416
   63MOL   C56146565   2.437   1.495   2.823 -0.2882  0.1798  0.6566
   63MOL   C56246566   2.394   1.601   2.927  0.8737  0.3553 -0.1340
   63MOL   C56346567   2.419   1.743   2.884 -0.1005  0.0670  0.4829
   63MOL   C56446568   2.386   1.848   2.990 -0.2115  0.4099  0.4482
   63MOL   C56546569   2.395   1.993   2.941  0.3068  0.9150  0.4821
   63MOL   C56646570   2.347   2.098   3.040  0.4510  0.8249  0.6127
   63MOL   C56746571   2.337   2.238   2.972  0.2601 -0.5360 -0.0896
   63MOL   C56846572   2.477   2.307   2.971  0.4964 -0.0272  0.2460
   63MOL   C56946573   2.480   2.431   2.877  0.2869  0.0979 -0.1687
   63MOL   N57046574   2.488   2.391   2.741 -0.5796 -0.0397  0.0582
   63MOL   H57146575   2.506   1.237   2.691 -0.0977 -2.7824  0.0645
   63MOL   H57246576   2.408   1.142   2.782 -2.0639  0.2247 -0.6472
   63MOL   H57346577   2.310   1.346   2.915 -0.2735 -0.4034 -0.6341
   63MOL   H57446578   2.482   1.332   2.939  0.7352  1.4060  0.6274
   63MOL   H57546579   2.386   1.527   2.732  0.7174  0.8030  0.2949
   63MOL   H57646580   2.545   1.502   2.804 -0.9868  0.9684 -3.5839
   63MOL   H57746581   2.287   1.591   2.950  0.8252  1.5093  0.1309
   63MOL   H57846582   2.443   1.585   3.023  0.5807  0.1774 -0.0120
   63MOL   H57946583   2.350   1.757   2.800 -0.0331  2.1912  0.7510
   63MOL   H58046584   2.519   1.758   2.843 -0.3153  1.4265  0.4554
   63MOL   H58146585   2.449   1.841   3.079  1.1351  2.7196 -0.2910
   63MOL   H58246586   2.280   1.832   3.009 -0.3581 -1.8512 -2.0045
   63MOL   H58346587   2.332   2.007   2.852 -0.1744  0.7437  0.7941
   63MOL   H58446588   2.496   2.012   2.904  0.1036 -2.0205 -1.8465
   63MOL   H58546589   2.408   2.100   3.131 -0.2302  1.1637  1.0662
   63MOL   H58646590   2.246   2.068   3.069  0.5131 -0.8175 -0.7758
   63MOL   H58746591   2.285   2.316   3.026  2.2352  1.4348 -0.9735
   63MOL   H58846592   2.301   2.230   2.869  0.8960  1.2384 -0.4673
   63MOL   H58946593   2.553   2.232   2.953 -0.4518 -0.3057 -2.9209
   63MOL   H59046594   2.492   2.350   3.070  0.2682  1.9419 -0.5398
   63MOL   H59146595   2.565   2.493   2.904 -0.8874  1.5867  0.2032
   63MOL   H59246596   2.390   2.489   2.898 -0.0349 -0.0227 -1.1830
   63MOL   H59346597   2.497   2.291   2.730  2.8213  0.2361 -0.2480
   63MOL   C59446598   2.503   2.469   2.635  0.6604  0.4437  0.4265
   63MOL   O59546599   2.532   2.427   2.522 -0.0502  0.1462  0.4941
   63MOL   C59646600   2.482   2.628   2.654 -0.8544  0.1969  0.2619
   63MOL   C59746601   2.449   2.695   2.519  0.4398  0.1495 -0.0422
   63MOL   C59846602   2.430   2.851   2.539  0.2024 -0.2785 -0.1289
   63MOL   C59946603   2.419   2.928   2.409  0.3232 -0.5445  0.6414
   63MOL   C60046604   2.368   3.078   2.424 -0.1253  0.1126 -0.4639
   63MOL   C60146605   2.376   3.172   2.299 -0.0423  0.3567  0.0361
   63MOL   C60246606   2.303   3.118   2.171  0.5504 -0.4701  0.3104
   63MOL   C60346607   2.262   3.233   2.075 -0.1763  0.2053  0.2605
   63MOL   C60446608   2.190   3.177   1.948 -0.5323  0.3101 -0.4223
   63MOL   C60546609   2.140   3.284   1.847 -0.2690  0.0647 -0.0530
   63MOL   C60646610   2.091   3.219   1.717  0.2453 -0.2674  0.4704
   63MOL   N60746611   2.036   3.329   1.640 -0.2093  0.2088  0.2183
   63MOL   H60846612   2.575   2.670   2.691  0.8470 -3.4368  0.3192
   63MOL   H60946613   2.394   2.646   2.716  0.7942  2.6468  1.9789
   63MOL   H61046614   2.538   2.693   2.456  0.1693  0.1665 -0.4271
   63MOL   H61146615   2.365   2.653   2.463 -1.9715 -1.7717  4.7423
   63MOL   H61246616   2.514   2.884   2.600  1.6323 -0.8907 -1.7291
   63MOL   H61346617   2.342   2.847   2.604  0.3119 -0.9601 -0.0179
   63MOL   H61446618   2.514   2.917   2.356  0.4687 -0.6303  0.9214
   63MOL   H61546619   2.342   2.882   2.347  0.2706  1.7199 -1.0621
   63MOL   H61646620   2.418   3.128   2.507  1.1937 -3.4535  0.9935
   63MOL   H61746621   2.264   3.068   2.455 -1.2034 -2.2568 -4.4849
   63MOL   H61846622   2.481   3.190   2.279 -0.1217  0.6934 -0.0784
   63MOL   H61946623   2.330   3.267   2.324  0.1080  1.0558 -2.2535
   63MOL   H62046624   2.207   3.076   2.199  0.5594 -0.3952  0.4543
   63MOL   H62146625   2.364   3.048   2.113  0.0036 -0.0253 -0.8102
   63MOL   H62246626   2.348   3.297   2.055  0.4944 -1.3449 -2.0742
   63MOL   H62346627   2.190   3.298   2.125 -0.3737  2.4140 -2.7546
   63MOL   H62446628   2.105   3.115   1.977  0.0282  0.5051  1.6858
   63MOL   H62546629   2.261   3.116   1.894 -0.7413 -0.3405  0.0348
   63MOL   H62646630   2.231   3.340   1.827  0.7137 -0.6151  2.4274
   63MOL   H62746631   2.060   3.349   1.883 -0.6328  0.0215 -0.7678
   63MOL   H62846632   2.005   3.158   1.742 -0.6001  0.3029 -0.9602
   63MOL   H62946633   2.162   3.157   1.663  1.4468 -0.1955  1.9520
   63MOL   H63046634   2.024   3.416   1.688  0.2328  0.8267 -0.7657
   63MOL   C63146635   1.983   3.312   1.522  0.6437 -0.5147  1.4401
   63MOL   O63246636   1.965   3.205   1.470 -0.4275  0.1690  0.4137
   63MOL   C63346637   1.937   3.440   1.451  0.4609 -0.2995  0.1200
   63MOL   C63446638   1.924   3.436   1.295 -0.0103 -0.3904 -0.4371
   63MOL   C63546639   1.899   3.566   1.232  0.6763 -0.0587 -0.1917
   63MOL   C63646640   2.002   3.670   1.260 -0.2663  0.8169 -0.3866
   63MOL   C63746641   1.989   3.795   1.169 -0.5193 -0.8256 -0.2190
   63MOL   C63846642   1.876   3.884   1.212 -0.1305 -0.1245  0.1396
   63MOL   C63946643   1.854   4.018   1.135  0.1815 -0.2081 -0.3804
   63MOL   C64046644   1.765   4.113   1.215  0.3803  0.5455  0.3488
   63MOL   C64146645   1.763   4.247   1.132  0.6844 -0.1333  0.0262
   63MOL   C64246646   1.682   4.356   1.193  0.4005  0.7073 -0.2689
   63MOL   C64346647   1.701   4.490   1.116 -0.4953 -0.7676  0.2236
   63MOL   N64446648   1.810   4.571   1.173 -0.1810  0.9490  0.7701
   63MOL   H64546649   2.006   3.514   1.490  1.5798 -2.0169  1.4859
   63MOL   H64646650   1.833   3.461   1.478  0.5365 -1.1032  1.0792
   63MOL   H64746651   2.014   3.394   1.251  0.7093  0.5905  0.0850
   63MOL   H64846652   1.835   3.373   1.284  0.0283 -0.0990 -2.4817
   63MOL   H64946653   1.804   3.608   1.265  2.1888  1.4985  2.3291
   63MOL   H65046654   1.887   3.570   1.124 -2.6545 -0.4811  0.1022
   63MOL   H65146655   2.001   3.701   1.364  0.7244  4.3732 -1.3679
   63MOL   H65246656   2.104   3.644   1.233  0.7964  2.4849  1.8318
   63MOL   H65346657   1.972   3.777   1.063 -0.7282 -1.3510 -0.0949
   63MOL   H65446658   2.084   3.848   1.173 -1.3725  0.7646 -0.5197
   63MOL   H65546659   1.876   3.901   1.319 -0.7094  0.3054  0.0703
   63MOL   H65646660   1.785   3.823   1.209  0.1872 -0.6279  0.7402
   63MOL   H65746661   1.825   4.016   1.030  1.1891 -0.4459 -0.6612
   63MOL   H65846662   1.958   4.052   1.132  0.0020  0.4875  0.7705
   63MOL   H65946663   1.816   4.136   1.309  0.0760 -0.3336  0.7370
   63MOL   H66046664   1.665   4.074   1.232  0.4864  0.0711 -0.1171
   63MOL   H66146665   1.732   4.228   1.029  0.6894 -0.8165  0.1503
   63MOL   H66246666   1.863   4.289   1.122  0.4759  0.2546 -0.4693
   63MOL   H66346667   1.705   4.376   1.298  3.1516  3.1915 -1.2651
   63MOL   H66446668   1.577   4.326   1.195  1.0896 -2.1759 -3.0898
   63MOL   H66546669   1.606   4.544   1.109 -0.5340 -0.7048  1.2243
   63MOL   H66646670   1.714   4.486   1.007 -2.8041  1.5806 -0.1973
   63MOL   H66746671   1.897   4.521   1.162 -1.2222 -0.7556  0.1695
   63MOL   C66846672   1.788   4.684   1.249  0.0591 -0.8299  0.1478
   63MOL   O66946673   1.674   4.734   1.269 -0.1684 -0.6295  0.1323
   63MOL   C67046674   1.911   4.758   1.302  0.2552 -0.3902 -0.5299
   63MOL   C67146675   1.889   4.803   1.451  0.2890  0.1324 -0.4244
   63MOL   C67246676   2.014   4.875   1.517  0.4217  0.5795  0.2478
   63MOL   C67346677   2.004   4.916   1.665  0.4556 -0.1173  0.5334
   63MOL   C67446678   2.129   4.970   1.724  0.0964 -0.5917  0.7028
   63MOL   C67546679   2.132   5.019   1.874 -0.5606  0.1351  0.9419
   63MOL   C67646680   2.278   5.024   1.924  0.2109 -0.2310 -0.5101
   63MOL   C67746681   2.297   5.079   2.066 -0.4775 -0.1150  1.1383
   63MOL   C67846682   2.236   4.995   2.176 -1.0691  0.5227  0.1505
   63MOL   C67946683   2.231   5.058   2.312  0.2553 -0.7112  0.2513
   63MOL   C68046684   2.166   4.961   2.412  0.3514  0.3804  0.7693
   63MOL   N68146685   2.221   4.988   2.542 -0.6886 -0.6448 -0.2034
   63MOL   H68246686   1.930   4.848   1.243  1.4472 -0.9762 -1.0526
   63MOL   H68346687   2.001   4.697   1.293  1.3437  1.3075 -1.2761
   63MOL   H68446688   1.805   4.871   1.459 -0.5839 -1.1061  1.1642
   63MOL   H68546689   1.865   4.713   1.508 -0.3717  1.1600  0.9300
   63MOL   H68646690   2.026   4.965   1.456  0.1360  1.0799  0.9221
   63MOL   H68746691   2.105   4.815   1.512 -0.0305 -0.5438  4.0782
   63MOL   H68846692   1.922   4.985   1.685 -0.5400 -1.3644  0.8591
   63MOL   H68946693   1.984   4.826   1.724 -1.8256 -0.8931 -1.3445
   63MOL   H69046694   2.167   5.055   1.668  2.6087 -1.7565  0.5649
   63MOL   H69146695   2.211   4.899   1.715  0.2314 -0.5288  1.3829
   63MOL   H69246696   2.072   4.948   1.931 -1.6913  0.4256  0.1331
   63MOL   H69346697   2.077   5.113   1.878 -1.9421 -0.4015 -3.0183
   63MOL   H69446698   2.344   5.086   1.862 -0.3271  1.0707  0.2064
   63MOL   H69546699   2.321   4.924   1.918  1.7540  0.4562 -1.4122
   63MOL   H69646700   2.253   5.179   2.071 -0.5474  0.0434 -1.6212
   63MOL   H69746701   2.404   5.096   2.079 -0.5294  2.9867 -1.6791
   63MOL   H69846702   2.296   4.904   2.166 -0.8340  0.7941 -1.0335
   63MOL   H69946703   2.133   4.969   2.153 -2.1146  1.6210  3.4154
   63MOL   H70046704   2.164   5.143   2.298 -0.4458 -0.5450  4.2081
   63MOL   H70146705   2.325   5.103   2.343 -1.4420  1.3643  2.5711
   63MOL   H70246706   2.181   4.855   2.392 -1.5380  0.2386 -0.0435
   63MOL   H70346707   2.059   4.972   2.427  0.0207 -0.3733 -0.8513
   63MOL   H70446708   2.316   4.960   2.564 -1.5267 -2.4319  1.3531
   63MOL   C70546709   2.163   5.068   2.633  0.4322  0.3318 -0.6909
   63MOL   O70646710   2.054   5.109   2.621 -0.4722 -0.1464  0.1950
   63MOL   C70746711   2.252   5.103   2.751  0.5207 -0.1205  0.0429
   63MOL   C70846712   2.170   5.141   2.876  0.7200  0.3941  0.2229
   63MOL   C70946713   2.197   5.283   2.917 -0.1203 -0.8447 -0.5347
   63MOL   C71046714   2.087   5.344   3.004 -0.3876  0.4668 -0.6037
   63MOL   C71146715   2.105   5.492   3.037 -0.8497 -0.0871 -0.0337
   63MOL   C71246716   2.238   5.525   3.111 -0.4569  0.4476  0.0716
   63MOL   C71346717   2.278   5.668   3.133  1.0335 -0.1695 -0.2855
   63MOL   C71446718   2.199   5.728   3.251 -0.0794 -0.2711 -0.2538
   63MOL   C71546719   2.249   5.880   3.266  0.3605  0.1552  0.0580
   63MOL   C71646720   2.158   5.956   3.365 -0.2509 -0.2637  1.2910
   63MOL   C71746721   2.213   6.100   3.392 -0.0489 -0.1919  0.3440
   63MOL   N71846722   2.126   6.162   3.490 -0.1447  0.3247  0.2629
   63MOL   H71946723   2.325   5.176   2.715  1.1284  0.5126  2.5165
   63MOL   H72046724   2.323   5.025   2.778 -0.5998 -2.1432 -2.5874
   63MOL   H72146725   2.063   5.123   2.867  0.5787  0.6496  1.2440
   63MOL   H72246726   2.202   5.088   2.966  1.0455  1.7038  0.8977
   63MOL   H72346727   2.199   5.335   2.822 -3.5914 -0.6596 -0.5480
   63MOL   H72446728   2.294   5.287   2.967  0.4240  0.5410 -1.6724
   63MOL   H72546729   1.989   5.324   2.960 -0.0618 -1.0129 -0.6750
   63MOL   H72646730   2.093   5.293   3.101 -0.0953  2.0056  0.2018
   63MOL   H72746731   2.022   5.520   3.102  0.9639  2.9042  1.1521
   63MOL   H72846732   2.105   5.546   2.942  0.8272  1.7298  0.9687
   63MOL   H72946733   2.308   5.475   3.045 -0.5035 -1.2666  1.3107
   63MOL   H73046734   2.260   5.473   3.204  0.0504 -1.7204 -1.2339
   63MOL   H73146735   2.269   5.727   3.042 -3.2324  1.2222  0.8977
   63MOL   H73246736   2.382   5.668   3.165  1.6545 -0.3115 -2.2365
   63MOL   H73346737   2.202   5.674   3.345  2.2070  0.8938  0.3847
   63MOL   H73446738   2.093   5.728   3.227 -0.2188  0.0893  0.3613
   63MOL   H73546739   2.262   5.923   3.166  0.0556 -1.0058 -0.4887
   63MOL   H73646740   2.352   5.866   3.301  0.3898 -0.1101 -0.1332
   63MOL   H73746741   2.168   5.905   3.461 -0.3534 -1.8204  0.4886
   63MOL   H73846742   2.055   5.948   3.330 -0.3705 -0.9437  1.7960
   63MOL   H73946743   2.222   6.155   3.298 -0.8089  1.1890  1.0598
   63MOL   H74046744   2.317   6.092   3.424  0.3313 -2.6258 -1.3383
   63MOL   H74146745   2.156   6.256   3.510  2.3436  0.1146 -2.1758
   63MOL   H74246746   2.100   6.113   3.575 -1.5277  0.5624 -0.0176
   64MOL     C146747   3.947   3.353   5.700 -0.1636 -0.0240  0.2249
   64MOL     O246748   3.869   3.278   5.635 -1.0489  0.7865  0.4690
   64MOL     C346749   4.096   3.344   5.690 -0.2548  0.3424  0.0608
   64MOL     C446750   4.145   3.335   5.546 -0.3910 -0.5198 -0.2983
   64MOL     C546751   4.123   3.464   5.458  0.1450 -0.3906 -0.7569
   64MOL     C646752   4.187   3.596   5.501  0.1972 -0.1012 -0.0148
   64MOL     C746753   4.198   3.691   5.387 -0.6667 -0.1773 -0.4672
   64MOL     C846754   4.060   3.753   5.343  0.1467 -0.2999  0.4465
   64MOL     C946755   4.090   3.889   5.276  0.0890 -0.1068 -0.0449
   64MOL    C1046756   3.977   3.995   5.286  0.3378  0.8035  0.5414
   64MOL    C1146757   3.973   4.076   5.420  0.4301 -0.4761 -0.6481
   64MOL    C1246758   3.886   4.204   5.421 -0.1027 -0.2793  0.2357
   64MOL    C1346759   3.906   4.312   5.531  0.0137  0.5861 -0.8300
   64MOL    N1446760   4.035   4.375   5.499  0.0921  0.2855  0.0077
   64MOL    H1546761   4.139   3.264   5.751 -0.3968  0.3960  0.2296
   64MOL    H1646762   4.143   3.430   5.738 -0.6967  0.4232  0.3451
   64MOL    H1746763   4.248   3.306   5.563 -0.5224 -1.5534 -1.2073
   64MOL    H1846764   4.094   3.251   5.499 -4.0481  1.6615 -0.4606
   64MOL    H1946765   4.017   3.479   5.436  0.5391  0.7040 -1.9622
   64MOL    H2046766   4.158   3.427   5.362 -0.0186 -3.4712  0.3293
   64MOL    H2146767   4.141   3.630   5.594  1.1167  0.6132  0.1827
   64MOL    H2246768   4.286   3.565   5.536 -0.9425 -2.0199  1.6550
   64MOL    H2346769   4.255   3.652   5.303  1.1400  1.3666  0.0316
   64MOL    H2446770   4.247   3.776   5.433  0.2275 -2.1957  2.4290
   64MOL    H2546771   4.007   3.760   5.438 -1.0901 -3.5801  0.0524
   64MOL    H2646772   4.009   3.683   5.278  0.3214 -1.3803  1.4592
   64MOL    H2746773   4.113   3.882   5.169 -2.5612 -2.0508 -0.5681
   64MOL    H2846774   4.185   3.929   5.310  1.3722 -0.7389 -2.7124
   64MOL    H2946775   3.882   3.950   5.260  0.7200  1.0916 -1.4338
   64MOL    H3046776   3.993   4.072   5.211  0.1052 -0.6767 -1.0463
   64MOL    H3146777   4.076   4.098   5.450  0.9963 -1.1671 -2.0542
   64MOL    H3246778   3.928   4.004   5.488  1.3863 -0.6929 -0.2359
   64MOL    H3346779   3.784   4.168   5.434  0.0499 -0.3747  1.1674
   64MOL    H3446780   3.890   4.247   5.320 -2.1878  0.1495  0.2987
   64MOL    H3546781   3.907   4.260   5.626 -1.3097  1.8476 -0.0905
   64MOL    H3646782   3.828   4.387   5.513  1.1676  1.6541 -1.4687
   64MOL    H3746783   4.085   4.354   5.414 -0.3793  2.3034 -0.7936
   64MOL    H3846784   3.914   3.434   5.765  2.6276  2.9417 -1.8935
   64MOL    C3946785   4.110   4.454   5.575  0.3134 -0.2232 -0.2277
   64MOL    O4046786   4.067   4.510   5.678  0.3017  0.0863 -0.0127
   64MOL    C4146787   4.250   4.480   5.524 -0.1864  0.2459  0.2991
   64MOL    C4246788   4.284   4.629   5.559 -0.3746 -0.1776 -0.0750
   64MOL    C4346789   4.203   4.740   5.488 -0.2372  0.3142  0.7084
   64MOL    C4446790   4.275   4.808   5.371 -0.1700  0.0075  0.0381
   64MOL    C4546791   4.172   4.884   5.287 -0.2516  0.7005 -0.4993
   64MOL    C4646792   4.129   5.019   5.342 -0.3970 -0.5085  0.7064
   64MOL    C4746793   4.041   5.102   5.251  1.0349  0.0215  0.1993
   64MOL    C4846794   3.903   5.041   5.248 -0.5266 -0.3008  0.2406
   64MOL    C4946795   3.798   5.144   5.206 -0.1674 -0.1225  0.6213
   64MOL    C5046796   3.653   5.086   5.241  0.3328 -0.1415  0.6409
   64MOL    C5146797   3.530   5.158   5.182 -0.6116 -0.2672  0.0383
   64MOL    N5246798   3.537   5.294   5.235 -0.0996 -0.1229  0.5250
   64MOL    H5346799   4.271   4.458   5.419 -0.0675  2.6358 -0.2236
   64MOL    H5446800   4.310   4.415   5.588  0.2762 -0.0619 -0.4387
   64MOL    H5546801   4.271   4.649   5.665  0.7130  2.1027 -0.3465
   64MOL    H5646802   4.392   4.637   5.543 -0.7169 -0.1614 -2.6638
   64MOL    H5746803   4.168   4.812   5.561 -0.9179 -1.4605  2.1737
   64MOL    H5846804   4.110   4.698   5.448  1.2345 -2.3170 -0.1099
   64MOL    H5946805   4.362   4.864   5.406 -1.7354  1.7308  1.2866
   64MOL    H6046806   4.307   4.733   5.299  0.7194 -0.7779  1.2183
   64MOL    H6146807   4.090   4.817   5.260  0.4882 -0.2906 -0.2780
   64MOL    H6246808   4.225   4.887   5.191  0.4089  2.5379 -0.1025
   64MOL    H6346809   4.218   5.074   5.370  0.1423 -0.7091 -0.5790
   64MOL    H6446810   4.083   5.006   5.440 -0.1045  0.9089  1.0357
   64MOL    H6546811   4.085   5.096   5.152 -0.9039 -0.6114 -0.6656
   64MOL    H6646812   4.040   5.206   5.284  0.8360  0.8269 -2.2643
   64MOL    H6746813   3.870   4.991   5.339 -1.1938 -1.4958 -0.6559
   64MOL    H6846814   3.899   4.957   5.178  2.5700 -0.9626  0.7471
   64MOL    H6946815   3.793   5.161   5.098  2.0763  0.6284  0.5954
   64MOL    H7046816   3.807   5.236   5.263  0.1294  0.5321 -0.4675
   64MOL    H7146817   3.642   5.089   5.350  1.8059 -1.2968  0.8317
   64MOL    H7246818   3.650   4.981   5.212 -1.2613  0.1636 -0.3637
   64MOL    H7346819   3.435   5.114   5.214 -0.4385 -0.3124  0.5002
   64MOL    H7446820   3.538   5.152   5.074  0.9324  0.0492  0.1265
   64MOL    H7546821   3.590   5.362   5.183  1.3379 -0.7070  1.2147
   64MOL    C7646822   3.491   5.336   5.356  0.0310  0.4409  0.0156
   64MOL    O7746823   3.437   5.261   5.442  0.4981 -0.2392 -0.3557
   64MOL    C7846824   3.504   5.486   5.376 -0.5347 -0.1302 -0.0361
   64MOL    C7946825   3.482   5.542   5.523  0.4584  0.4212  0.4957
   64MOL    C8046826   3.482   5.703   5.510  0.0203  0.8663  0.6009
   64MOL    C8146827   3.483   5.776   5.645  0.2020  0.3086  0.4668
   64MOL    C8246828   3.455   5.928   5.636  0.2125  0.4255 -0.0189
   64MOL    C8346829   3.430   5.980   5.781 -0.6174  0.3936  0.2924
   64MOL    C8446830   3.395   6.130   5.779  0.3421  0.4627  0.6726
   64MOL    C8546831   3.376   6.196   5.921 -0.0759  0.4910  0.2865
   64MOL    C8646832   3.258   6.148   5.998  0.3411 -0.5438  0.2539
   64MOL    C8746833   3.240   6.233   6.131  0.3297 -0.3655  0.3278
   64MOL    C8846834   3.154   6.153   6.242  0.2387 -0.6808  0.3428
   64MOL    N8946835   3.208   6.029   6.286 -0.1867 -0.0887 -0.7543
   64MOL    H9046836   3.449   5.544   5.303 -0.9543  2.4026  2.2238
   64MOL    H9146837   3.605   5.515   5.344  0.1907 -0.9464  1.4673
   64MOL    H9246838   3.385   5.520   5.569  0.3570  1.3176  0.7072
   64MOL    H9346839   3.556   5.501   5.593  0.3141  1.8798  1.5186
   64MOL    H9446840   3.392   5.733   5.456 -0.7094 -1.2971  0.5410
   64MOL    H9546841   3.568   5.728   5.448 -0.3204  0.4792 -0.0360
   64MOL    H9646842   3.401   5.739   5.706 -0.6234 -0.3496 -1.0498
   64MOL    H9746843   3.582   5.759   5.688  0.2017 -0.5125  0.1313
   64MOL    H9846844   3.367   5.950   5.576 -1.0391  3.7696  2.8098
   64MOL    H9946845   3.544   5.986   5.612  0.9080  0.4578  2.5049
   64MOL   H10046846   3.512   5.966   5.851 -0.7521  0.9658  0.5672
   64MOL   H10146847   3.348   5.924   5.825  0.0169 -1.4014 -0.7482
   64MOL   H10246848   3.306   6.141   5.715  0.7951 -3.6102 -0.8054
   64MOL   H10346849   3.479   6.177   5.728  0.9078 -1.7139 -0.4851
   64MOL   H10446850   3.372   6.303   5.901  2.4118  0.9385  1.8990
   64MOL   H10546851   3.474   6.188   5.969 -0.0288 -0.2941  0.0706
   64MOL   H10646852   3.272   6.043   6.022  0.5004 -0.3937  0.8316
   64MOL   H10746853   3.183   6.157   5.920  0.8819 -1.9004 -0.4443
   64MOL   H10846854   3.196   6.331   6.114 -1.4495 -0.8351  2.0309
   64MOL   H10946855   3.335   6.251   6.180 -0.2569  0.7441  1.0734
   64MOL   H11046856   3.053   6.132   6.206  1.2317 -3.3590 -1.0505
   64MOL   H11146857   3.136   6.210   6.333 -1.7352 -0.3848 -0.2066
   64MOL   H11246858   3.298   6.000   6.252 -0.1132 -0.3364 -0.3584
   64MOL   C11346859   3.151   5.950   6.376  0.3692 -0.2893  0.5884
   64MOL   O11446860   3.046   5.976   6.431 -0.1624 -0.2314  0.0685
   64MOL   C11546861   3.220   5.823   6.411 -0.2438  0.1827  0.2024
   64MOL   C11646862   3.143   5.707   6.336  0.3235 -0.2183  0.6204
   64MOL   C11746863   3.193   5.564   6.373 -0.0409 -0.8549 -0.9122
   64MOL   C11846864   3.178   5.452   6.278 -0.5309  0.3212 -0.8262
   64MOL   C11946865   3.231   5.320   6.336  0.9355  0.3265 -0.0796
   64MOL   C12046866   3.131   5.257   6.439 -0.0426  0.5802  0.5708
   64MOL   C12146867   3.179   5.129   6.499  0.0596  0.6048 -0.0426
   64MOL   C12246868   3.079   5.069   6.584  0.1619 -0.8005 -0.0145
   64MOL   C12346869   3.119   4.932   6.632 -0.3530 -0.2781  0.4152
   64MOL   C12446870   3.006   4.845   6.684 -0.0449  0.1220 -0.0285
   64MOL   C12546871   3.048   4.704   6.733  0.2695 -0.3179  0.0170
   64MOL   N12646872   2.947   4.647   6.817 -0.3345 -0.1658  0.1675
   64MOL   H12746873   3.217   5.805   6.518 -1.4153  0.9666  0.3061
   64MOL   H12846874   3.325   5.815   6.380 -0.2751  0.8007 -0.0792
   64MOL   H12946875   3.040   5.715   6.370 -0.7970 -0.0520 -2.6336
   64MOL   H13046876   3.152   5.729   6.230  0.5658  1.9033  1.0747
   64MOL   H13146877   3.132   5.551   6.462 -0.6983 -1.4687 -1.4489
   64MOL   H13246878   3.299   5.575   6.395 -0.2386  0.6540 -0.6876
   64MOL   H13346879   3.079   5.441   6.235 -0.3179 -1.8910 -0.8156
   64MOL   H13446880   3.237   5.472   6.189  1.1785  1.9156  0.6016
   64MOL   H13546881   3.316   5.341   6.402  0.1926  1.1886  0.6100
   64MOL   H13646882   3.247   5.243   6.260  1.7627  0.1663  0.2438
   64MOL   H13746883   3.034   5.243   6.392 -0.1352  0.9426  0.6549
   64MOL   H13846884   3.115   5.321   6.526  0.8149  0.1821  1.0361
   64MOL   H13946885   3.271   5.141   6.557  1.3499  1.7107 -2.2406
   64MOL   H14046886   3.209   5.062   6.419 -0.4297  0.2970  0.0291
   64MOL   H14146887   2.984   5.058   6.532 -1.6498  0.2386  2.9508
   64MOL   H14246888   3.057   5.139   6.664 -0.3125 -1.3839  0.3765
   64MOL   H14346889   3.192   4.957   6.708 -0.5003  2.0456 -0.1614
   64MOL   H14446890   3.161   4.866   6.556  0.0907  0.2776  0.1806
   64MOL   H14546891   2.936   4.827   6.602 -1.1044  0.2792  0.8205
   64MOL   H14646892   2.942   4.898   6.755  0.7143 -0.8764  1.4139
   64MOL   H14746893   3.132   4.711   6.802  0.4961  1.6238 -0.4037
   64MOL   H14846894   3.075   4.644   6.646  1.5888  1.5851 -0.9552
   64MOL   H14946895   2.966   4.655   6.916  0.8568  2.9044 -0.2523
   64MOL   C15046896   2.839   4.578   6.778  0.0237 -0.5166  0.1315
   64MOL   O15146897   2.818   4.537   6.659 -0.3280  0.0639 -0.7439
   64MOL   C15246898   2.722   4.564   6.881  0.2430 -0.0042 -0.3161
   64MOL   C15346899   2.585   4.618   6.840 -0.7811  0.7692  0.0414
   64MOL   C15446900   2.579   4.754   6.770  0.1231  0.1787 -0.2498
   64MOL   C15546901   2.626   4.869   6.859  0.3626  0.4344 -0.6724
   64MOL   C15646902   2.598   5.005   6.801  0.4916 -0.0635 -0.0814
   64MOL   C15746903   2.656   5.031   6.664 -0.4869 -0.4199  0.5963
   64MOL   C15846904   2.628   5.178   6.626  0.3685 -0.2756 -0.3004
   64MOL   C15946905   2.692   5.211   6.490 -0.2195 -0.0241  0.1374
   64MOL   C16046906   2.709   5.355   6.463 -0.0895 -0.6330 -0.2578
   64MOL   C16146907   2.756   5.396   6.320  0.4433  0.3707  0.7377
   64MOL   C16246908   2.800   5.543   6.305  0.1382 -0.4710 -0.0744
   64MOL   N16346909   2.697   5.644   6.290  0.0984  0.5743 -0.0764
   64MOL   H16446910   2.758   4.624   6.964 -0.4517  0.0485 -0.0507
   64MOL   H16546911   2.715   4.459   6.912 -0.7204  0.3016  0.5357
   64MOL   H16646912   2.551   4.549   6.763  1.0151 -0.8367  0.6509
   64MOL   H16746913   2.509   4.614   6.918 -0.6017 -1.8904  0.1077
   64MOL   H16846914   2.479   4.771   6.730  0.4894  0.8392 -0.9176
   64MOL   H16946915   2.638   4.753   6.678  0.0947 -2.1176 -0.2798
   64MOL   H17046916   2.590   4.864   6.962  0.7424  1.6424 -0.4704
   64MOL   H17146917   2.734   4.869   6.868  0.2979  2.2658  0.4310
   64MOL   H17246918   2.643   5.074   6.873  3.9848 -0.9371 -1.3442
   64MOL   H17346919   2.491   5.026   6.806  0.4719 -0.3576  1.0194
   64MOL   H17446920   2.616   4.964   6.588 -2.4444  0.4622  0.8145
   64MOL   H17546921   2.763   5.016   6.674 -0.2247  1.3012  0.4666
   64MOL   H17646922   2.672   5.233   6.709 -2.4435 -1.0933  1.8294
   64MOL   H17746923   2.520   5.191   6.615  0.2361 -0.3388  0.8625
   64MOL   H17846924   2.628   5.179   6.407  0.5905 -1.2197 -0.0390
   64MOL   H17946925   2.783   5.152   6.476 -2.5062 -3.3781 -1.5973
   64MOL   H18046926   2.787   5.387   6.532 -0.2273  1.0886 -0.8746
   64MOL   H18146927   2.621   5.412   6.495 -1.4352 -2.1451 -1.2424
   64MOL   H18246928   2.680   5.360   6.251  0.6100  1.3698  0.0219
   64MOL   H18346929   2.846   5.339   6.298  0.7767  0.7665  1.0638
   64MOL   H18446930   2.863   5.540   6.216  2.5007  1.2566  1.4885
   64MOL   H18546931   2.861   5.572   6.390 -0.2366  0.2701 -0.0597
   64MOL   H18646932   2.602   5.614   6.309 -0.1862 -0.0734 -2.3931
   64MOL   C18746933   2.723   5.771   6.245 -0.5832 -0.0631  0.4483
   64MOL   O18846934   2.833   5.793   6.199 -0.4115 -0.0529 -0.6950
   64MOL   C18946935   2.609   5.873   6.241 -0.8211  0.1445  0.2204
   64MOL   C19046936   2.660   6.003   6.304 -0.3379  0.4021  0.2231
   64MOL   C19146937   2.728   6.100   6.209  0.4775  0.3590 -0.7399
   64MOL   C19246938   2.632   6.171   6.120 -0.1930  0.6465  0.0117
   64MOL   C19346939   2.698   6.306   6.068  0.0626 -0.3547  0.2695
   64MOL   C19446940   2.815   6.294   5.983 -0.5683 -0.3015  0.0512
   64MOL   C19546941   2.856   6.429   5.919 -0.0686  0.0635  0.4394
   64MOL   C19646942   2.967   6.440   5.814 -0.3614  0.2506 -0.2030
   64MOL   C19746943   3.014   6.575   5.785  0.7590 -0.4389 -1.3150
   64MOL   C19846944   3.128   6.594   5.675 -0.0887  0.2538  0.7265
   64MOL   C19946945   3.231   6.711   5.700  0.8846 -0.1001  0.5609
   64MOL   N20046946   3.180   6.850   5.703  0.3037 -0.1345 -0.5310
   64MOL   H20146947   2.525   5.831   6.295 -1.1536  0.4939 -0.0230
   64MOL   H20246948   2.583   5.891   6.136 -1.8322  1.3486  0.6683
   64MOL   H20346949   2.581   6.071   6.339  0.2215  0.3026  1.7140
   64MOL   H20446950   2.720   5.984   6.393 -2.6670 -0.4846  1.6595
   64MOL   H20546951   2.814   6.055   6.159  0.9767 -0.9221  1.2342
   64MOL   H20646952   2.769   6.177   6.274 -3.3045 -0.8080  3.2390
   64MOL   H20746953   2.604   6.109   6.035  0.8828 -1.0464  0.8835
   64MOL   H20846954   2.540   6.203   6.168  0.9706  2.4051  1.1498
   64MOL   H20946955   2.716   6.372   6.153 -0.1322  0.9991 -0.7046
   64MOL   H21046956   2.621   6.361   6.013 -0.1387 -1.4339 -0.5477
   64MOL   H21146957   2.785   6.221   5.909 -0.9015 -1.2972  1.1546
   64MOL   H21246958   2.903   6.260   6.038 -0.4543  0.7828  0.5524
   64MOL   H21346959   2.894   6.500   5.992 -2.4183  1.3502  0.4531
   64MOL   H21446960   2.772   6.459   5.856 -1.2789 -2.1877  0.9342
   64MOL   H21546961   2.936   6.399   5.718 -0.7106 -1.1080  0.4838
   64MOL   H21646962   3.052   6.384   5.855 -0.6725 -1.3179 -1.6638
   64MOL   H21746963   3.039   6.628   5.877 -0.5282 -0.3309 -1.0176
   64MOL   H21846964   2.931   6.630   5.740  0.5683  2.2378  2.0993
   64MOL   H21946965   3.077   6.612   5.580 -0.7224 -1.9525  0.6268
   64MOL   H22046966   3.177   6.499   5.659  1.8196  1.4423 -0.6389
   64MOL   H22146967   3.286   6.704   5.606  0.9392 -2.3717  0.7352
   64MOL   H22246968   3.280   6.688   5.795 -0.4183 -0.5225  1.1377
   64MOL   H22346969   3.106   6.878   5.640 -0.7672  1.9616  1.5892
   64MOL   C22446970   3.232   6.949   5.774  0.2650  0.3501 -0.4949
   64MOL   O22546971   3.335   6.941   5.842 -0.5447 -0.0438  0.3698
   64MOL   C22646972   3.162   7.085   5.761  0.3290  0.3277  0.0245
   64MOL   C22746973   3.263   7.202   5.752 -0.3822 -0.0570  0.1360
   64MOL   C22846974   3.185   7.331   5.742  0.3729  0.2049  0.2710
   64MOL   C22946975   3.269   7.461   5.710  0.2959  0.1083  0.3007
   64MOL   C23046976   3.341   7.444   5.572 -0.4525  0.4928  0.3727
   64MOL   C23146977   3.242   7.451   5.452 -0.1761  0.0099 -0.3336
   64MOL   C23246978   3.307   7.432   5.310 -0.4743 -0.2834  0.5731
   64MOL   C23346979   3.393   7.307   5.290  0.1153 -0.1572  0.2340
   64MOL   C23446980   3.320   7.174   5.315 -1.1150  0.5187  0.4318
   64MOL   C23546981   3.423   7.056   5.314  0.4454  0.4150 -0.0345
   64MOL   C23646982   3.356   6.926   5.364  0.1093  0.5709 -0.0626
   64MOL   N23746983   3.240   6.900   5.279  0.8435  0.1116 -0.1071
   64MOL   H23846984   3.094   7.088   5.847  0.5892 -0.4673  0.2668
   64MOL   H23946985   3.091   7.088   5.678 -0.9349  0.0627  1.0649
   64MOL   H24046986   3.336   7.199   5.832 -2.1162  1.0097  1.8077
   64MOL   H24146987   3.322   7.186   5.662  2.7041  0.8769  1.9219
   64MOL   H24246988   3.119   7.346   5.828 -2.4050  0.4217 -1.8128
   64MOL   H24346989   3.114   7.314   5.661  2.1786 -0.2472 -1.2382
   64MOL   H24446990   3.199   7.544   5.701 -0.1490 -0.2556  0.3608
   64MOL   H24546991   3.339   7.481   5.790 -1.1732 -2.0222  2.1998
   64MOL   H24646992   3.403   7.355   5.571  1.9315  2.0559  1.6736
   64MOL   H24746993   3.409   7.528   5.559 -0.4750  0.2199 -1.5651
   64MOL   H24846994   3.191   7.546   5.465 -1.3081 -0.3651 -1.9315
   64MOL   H24946995   3.170   7.371   5.468 -2.4904  1.8945 -1.1207
   64MOL   H25046996   3.368   7.519   5.286 -0.6396 -0.3157  0.0515
   64MOL   H25146997   3.222   7.443   5.243 -0.0184  1.5128  0.2620
   64MOL   H25246998   3.481   7.309   5.355  1.6642 -1.1941 -1.7704
   64MOL   H25346999   3.431   7.323   5.190 -0.2527  1.4932  0.3487
   64MOL   H25447000   3.242   7.158   5.240 -3.8798 -1.0595  3.5187
   64MOL   H25547001   3.262   7.179   5.407 -0.5353  0.1373  0.8189
   64MOL   H25647002   3.506   7.075   5.382  0.0414  0.0937  0.5555
   64MOL   H25747003   3.466   7.036   5.216 -0.8868  2.2733 -1.0280
   64MOL   H25847004   3.334   6.941   5.470  1.2879  0.1299  0.2506
   64MOL   H25947005   3.430   6.846   5.360 -0.0629  0.4244 -0.3480
   64MOL   H26047006   3.253   6.881   5.181  0.0264 -1.7003  0.1187
   64MOL   C26147007   3.117   6.881   5.332  0.3862 -0.5082  0.3637
   64MOL   O26247008   3.092   6.910   5.450  0.4752 -0.0300  0.2293
   64MOL   C26347009   3.005   6.828   5.240  0.3348 -0.1860  0.4570
   64MOL   C26447010   2.946   6.701   5.306  0.7646  0.7582  0.2168
   64MOL   C26547011   3.016   6.568   5.276  0.8155  0.3687 -0.7705
   64MOL   C26647012   2.968   6.442   5.353 -0.3142  0.4048  0.1577
   64MOL   C26747013   3.012   6.305   5.299 -0.5970  1.0136  0.0846
   64MOL   C26847014   2.979   6.182   5.377 -0.1307  0.2460 -0.5027
   64MOL   C26947015   3.068   6.166   5.504  0.0411 -1.2095 -0.6111
   64MOL   C27047016   3.026   6.045   5.578  0.4514 -0.7097  0.2205
   64MOL   C27147017   2.893   6.045   5.649  0.4015 -0.0257  1.0785
   64MOL   C27247018   2.877   5.924   5.733  0.4062  0.2108 -0.3913
   64MOL   C27347019   2.923   5.935   5.880 -0.5503 -0.0071  0.0972
   64MOL   N27447020   2.973   5.805   5.935 -0.3454 -0.1315 -0.2522
   64MOL   H27547021   3.042   6.796   5.142  0.3751  0.2557  0.3310
   64MOL   H27647022   2.935   6.911   5.231  2.4960  1.9180  2.3594
   64MOL   H27747023   2.932   6.720   5.413  0.0520  0.1480  0.2349
   64MOL   H27847024   2.843   6.706   5.271  0.7519 -1.0464 -0.0305
   64MOL   H27947025   3.119   6.587   5.306  0.2768 -0.6049  1.8520
   64MOL   H28047026   3.029   6.550   5.170 -2.8296 -2.1298 -0.8765
   64MOL   H28147027   3.004   6.452   5.455 -0.3137  1.1747  0.0865
   64MOL   H28247028   2.859   6.456   5.352 -0.5308 -1.3449 -1.5816
   64MOL   H28347029   3.120   6.313   5.286 -0.6201 -0.1660 -0.9694
   64MOL   H28447030   2.979   6.285   5.197  1.7183 -0.3830 -0.4361
   64MOL   H28547031   3.009   6.097   5.316 -0.6765  1.4393 -2.4854
   64MOL   H28647032   2.871   6.169   5.386 -0.0176  1.7605  4.5116
   64MOL   H28747033   3.053   6.255   5.565 -4.1692 -1.2916 -1.3490
   64MOL   H28847034   3.174   6.156   5.485 -0.1460  0.7404 -2.8262
   64MOL   H28947035   3.100   6.039   5.659 -0.7779 -0.7892  1.3511
   64MOL   H29047036   3.025   5.960   5.510 -1.0008 -0.0429 -0.6137
   64MOL   H29147037   2.822   6.037   5.567  1.0983  1.3030  0.3232
   64MOL   H29247038   2.872   6.140   5.699 -0.3160  1.0978 -1.2860
   64MOL   H29347039   2.919   5.835   5.687  1.0697  1.1297 -1.5950
   64MOL   H29447040   2.771   5.902   5.745  0.5369  0.4321  1.3111
   64MOL   H29547041   2.853   5.982   5.949 -0.3164 -0.8895  0.9443
   64MOL   H29647042   3.011   5.999   5.881 -1.0018  0.6802 -1.5345
   64MOL   H29747043   2.930   5.771   6.019 -1.0834 -2.7687 -1.6240
   64MOL   C29847044   3.074   5.729   5.880  0.5999  0.9211  0.0229
   64MOL   O29947045   3.129   5.764   5.773 -0.1617  0.6779 -0.2188
   64MOL   C30047046   3.126   5.601   5.953 -0.1936 -0.1618  0.0161
   64MOL   C30147047   3.165   5.484   5.865  0.3578 -0.9410  0.5884
   64MOL   C30247048   3.237   5.362   5.925  0.0508  0.0476 -0.0996
   64MOL   C30347049   3.215   5.237   5.839  0.2820  0.0702  0.6332
   64MOL   C30447050   3.283   5.107   5.889  0.1320 -0.5912  0.2003
   64MOL   C30547051   3.220   4.970   5.856  0.2086  0.1252 -0.1848
   64MOL   C30647052   3.297   4.851   5.924  0.7063 -0.9923 -0.1145
   64MOL   C30747053   3.259   4.709   5.870  0.1467 -0.3036 -0.1227
   64MOL   C30847054   3.340   4.595   5.927 -0.6568  0.3222 -0.2261
   64MOL   C30947055   3.345   4.451   5.867  0.1294  0.1833 -0.0091
   64MOL   C31047056   3.376   4.456   5.720  0.7130  0.2716 -0.1293
   64MOL   N31147057   3.492   4.541   5.688  0.2159 -0.8297  0.2593
   64MOL   H31247058   3.050   5.579   6.028 -0.8975  0.6160 -0.4552
   64MOL   H31347059   3.211   5.641   6.008  0.3698 -0.2307 -0.7892
   64MOL   H31447060   3.083   5.452   5.801  1.3273 -1.5520 -0.3497
   64MOL   H31547061   3.223   5.524   5.783 -0.6483  1.6593  1.0841
   64MOL   H31647062   3.191   5.346   6.022  0.3465 -0.0680  0.0211
   64MOL   H31747063   3.345   5.372   5.938 -0.0396  0.5854  0.2288
   64MOL   H31847064   3.108   5.217   5.825  0.6441 -1.7098  0.2602
   64MOL   H31947065   3.260   5.261   5.743 -1.3563  0.8387  0.0462
   64MOL   H32047066   3.307   5.114   5.995  0.4532  0.9336  0.0359
   64MOL   H32147067   3.379   5.123   5.840 -0.4290  0.1607 -0.6748
   64MOL   H32247068   3.213   4.955   5.748 -0.1196 -0.6717 -0.0563
   64MOL   H32347069   3.115   4.976   5.885 -0.1468  0.5221 -1.5186
   64MOL   H32447070   3.272   4.850   6.030  0.5726 -0.3674 -0.1362
   64MOL   H32547071   3.400   4.879   5.904  0.1717  0.0389 -1.6001
   64MOL   H32647072   3.295   4.709   5.767  1.7901 -1.3835  0.4430
   64MOL   H32747073   3.153   4.683   5.859 -0.1432  0.1798  1.4325
   64MOL   H32847074   3.311   4.579   6.030  1.8290  1.2403  0.6535
   64MOL   H32947075   3.440   4.639   5.924  0.6684 -2.5986 -1.1427
   64MOL   H33047076   3.248   4.402   5.875 -0.6388  1.3456 -1.9303
   64MOL   H33147077   3.422   4.397   5.922 -0.0403 -1.1271 -1.0078
   64MOL   H33247078   3.289   4.495   5.667 -0.5255 -0.8266  1.0331
   64MOL   H33347079   3.395   4.355   5.683  0.3867 -0.1612  0.8514
   64MOL   H33447080   3.462   4.634   5.662 -2.0975 -1.5603  0.2049
   64MOL   C33547081   3.616   4.519   5.724  0.3115 -0.2855  0.0329
   64MOL   O33647082   3.653   4.412   5.770  0.7013  0.4634 -0.1741
   64MOL   C33747083   3.714   4.633   5.713 -0.3890 -0.2434 -0.0618
   64MOL   C33847084   3.819   4.628   5.824 -0.0248 -0.2103 -0.0794
   64MOL   C33947085   3.762   4.660   5.966  0.4861  0.7521 -0.4092
   64MOL   C34047086   3.686   4.785   5.998  0.8062 -0.1497  0.1617
   64MOL   C34147087   3.635   4.780   6.146  0.1901  0.0002 -0.6813
   64MOL   C34247088   3.555   4.904   6.190 -0.4460 -0.0034 -0.9785
   64MOL   C34347089   3.464   4.866   6.305  0.1290  0.3548  0.3258
   64MOL   C34447090   3.542   4.816   6.436  0.5111 -0.3297  0.3404
   64MOL   C34547091   3.457   4.778   6.560 -0.6140 -0.4634 -0.3104
   64MOL   C34647092   3.543   4.700   6.662  0.3139  0.0099 -0.7023
   64MOL   C34747093   3.475   4.703   6.805 -0.1396 -0.3498  0.0628
   64MOL   N34847094   3.567   4.656   6.905 -0.4474 -0.2455 -0.9789
   64MOL   H34947095   3.656   4.721   5.740 -2.4084 -1.5159 -0.1869
   64MOL   H35047096   3.769   4.643   5.619  0.9784 -0.3171  0.7237
   64MOL   H35147097   3.873   4.534   5.840  0.1112 -0.0871  0.1850
   64MOL   H35247098   3.898   4.700   5.804 -0.4327  0.5298  0.9567
   64MOL   H35347099   3.845   4.648   6.036  0.8334  0.7110 -0.8284
   64MOL   H35447100   3.700   4.575   5.994  2.4006 -1.0904 -1.6073
   64MOL   H35547101   3.755   4.868   5.982 -0.8165  1.1858  0.0066
   64MOL   H35647102   3.604   4.811   5.932  0.1782 -1.8333  0.2634
   64MOL   H35747103   3.721   4.772   6.213 -1.0171  0.4957  0.9498
   64MOL   H35847104   3.576   4.688   6.150 -2.1494  1.4685 -0.3735
   64MOL   H35947105   3.491   4.939   6.108  0.7127  1.9906 -1.0751
   64MOL   H36047106   3.617   4.992   6.204 -1.5416  0.4653  1.1082
   64MOL   H36147107   3.404   4.785   6.265  2.2174 -0.4980 -1.1838
   64MOL   H36247108   3.402   4.953   6.325 -1.8533 -1.2110  1.1476
   64MOL   H36347109   3.606   4.901   6.461 -1.6645  1.5714 -0.3767
   64MOL   H36447110   3.611   4.739   6.402  2.9658  1.0237  2.0598
   64MOL   H36547111   3.373   4.718   6.525 -0.1177 -0.7607 -1.0017
   64MOL   H36647112   3.413   4.873   6.591 -2.0198 -0.8330 -1.1172
   64MOL   H36747113   3.635   4.758   6.667 -0.1556  0.6850  0.4752
   64MOL   H36847114   3.551   4.599   6.622 -0.3664 -0.0635 -0.6728
   64MOL   H36947115   3.379   4.652   6.801  0.3456 -1.3958  1.4843
   64MOL   H37047116   3.440   4.805   6.824 -0.2567 -0.0935 -1.4654
   64MOL   H37147117   3.654   4.611   6.878 -0.4151  0.1007 -1.4560
   64MOL   C37247118   3.536   4.658   7.038  0.0130  0.2160  0.6910
   64MOL   O37347119   3.435   4.716   7.082 -0.4995  0.4635  0.1071
   64MOL   C37447120   3.632   4.585   7.137  0.4061 -0.8440  0.5498
   64MOL   C37547121   3.556   4.473   7.211  0.6731  0.4729 -0.5307
   64MOL   C37647122   3.537   4.351   7.118  0.4067 -0.2985 -0.2045
   64MOL   C37747123   3.527   4.213   7.186  0.0547  0.1052 -0.8267
   64MOL   C37847124   3.474   4.106   7.094 -0.8160  0.9477  0.3702
   64MOL   C37947125   3.556   4.083   6.963 -0.4748 -1.0668 -0.1531
   64MOL   C38047126   3.693   4.018   6.993 -0.2505 -0.0465  0.3442
   64MOL   C38147127   3.776   3.994   6.857  0.8218  0.0718  0.3931
   64MOL   C38247128   3.926   3.979   6.874  0.3631 -0.3327 -0.9341
   64MOL   C38347129   3.965   3.843   6.937 -0.3415 -0.1591 -0.1738
   64MOL   C38447130   4.120   3.819   6.952 -0.2771 -0.0214 -0.0718
   64MOL   N38547131   4.139   3.679   6.978 -0.2780  0.1286  0.3466
   64MOL   H38647132   3.666   4.667   7.200  1.2985 -0.4306 -0.4639
   64MOL   H38747133   3.725   4.544   7.098  1.1167 -0.3106  1.6827
   64MOL   H38847134   3.615   4.457   7.302 -0.2771 -0.3669 -0.0491
   64MOL   H38947135   3.464   4.509   7.257 -0.4927  1.1816 -3.3664
   64MOL   H39047136   3.626   4.331   7.058  0.7382  0.4186  0.0376
   64MOL   H39147137   3.458   4.365   7.045  0.2688  0.8674  0.1646
   64MOL   H39247138   3.616   4.190   7.244  1.1635  3.2108 -1.1993
   64MOL   H39347139   3.456   4.235   7.266  0.5799  0.4822 -0.4626
   64MOL   H39447140   3.374   4.126   7.055 -0.2828  0.8985 -1.0800
   64MOL   H39547141   3.476   4.004   7.129 -0.4599  0.7510 -0.2120
   64MOL   H39647142   3.572   4.175   6.906  1.7577 -0.4026  1.4716
   64MOL   H39747143   3.501   4.022   6.891 -0.4136 -0.5548 -0.6345
   64MOL   H39847144   3.670   3.920   7.036 -0.5653 -0.4627 -0.7668
   64MOL   H39947145   3.751   4.067   7.072  1.0423 -0.3265 -0.4227
   64MOL   H40047146   3.766   4.077   6.786 -0.7312 -1.2300 -0.9390
   64MOL   H40147147   3.721   3.920   6.800 -0.2129  0.8135  0.4145
   64MOL   H40247148   3.974   4.048   6.944 -1.3553 -0.2057  0.1430
   64MOL   H40347149   3.988   3.988   6.785  2.7837 -0.8773  0.6517
   64MOL   H40447150   3.911   3.763   6.887 -0.5237 -1.0457  1.4088
   64MOL   H40547151   3.931   3.850   7.040  2.7027  3.2045  0.7192
   64MOL   H40647152   4.167   3.888   7.023 -0.8497 -0.7760  1.0597
   64MOL   H40747153   4.158   3.839   6.852  0.5942  0.1070  0.2777
   64MOL   H40847154   4.113   3.613   6.907  0.0910  0.6284 -0.2640
   64MOL   C40947155   4.198   3.620   7.078 -0.6353 -0.0372  0.6915
   64MOL   O41047156   4.260   3.673   7.166  0.0655 -0.0332  0.5404
   64MOL   C41147157   4.178   3.472   7.086 -0.6753  0.1228 -0.8223
   64MOL   C41247158   4.311   3.400   7.055  0.0694 -0.9680 -0.4533
   64MOL   C41347159   4.295   3.251   7.074 -0.4043 -0.1194 -0.2877
   64MOL   C41447160   4.413   3.156   7.046  0.5132 -0.3116  0.2704
   64MOL   C41547161   4.487   3.170   6.914 -0.0231  0.3143  0.5544
   64MOL   C41647162   4.398   3.135   6.797 -0.0679 -0.0358 -0.0455
   64MOL   C41747163   4.466   3.136   6.660 -0.3646 -0.5888 -0.1090
   64MOL   C41847164   4.483   3.276   6.594 -0.0234 -0.2254  0.0965
   64MOL   C41947165   4.540   3.266   6.451 -0.1821  0.0531  0.1715
   64MOL   C42047166   4.634   3.382   6.400  1.3396 -0.1019 -0.2944
   64MOL   C42147167   4.779   3.326   6.392 -0.5804  0.4403 -0.6092
   64MOL   N42247168   4.887   3.422   6.369  1.2559  0.3002  0.3892
   64MOL   H42347169   4.110   3.435   7.009 -2.3666  1.1088  0.1425
   64MOL   H42447170   4.144   3.452   7.188  2.2700 -2.5057 -0.3019
   64MOL   H42547171   4.335   3.422   6.951  0.3121 -0.2469 -0.2485
   64MOL   H42647172   4.392   3.434   7.120  1.4208 -1.0156 -2.0788
   64MOL   H42747173   4.209   3.209   7.021 -0.5731  1.7452 -1.5112
   64MOL   H42847174   4.276   3.250   7.181 -2.0782  1.4597 -0.5478
   64MOL   H42947175   4.486   3.172   7.126 -0.1351 -0.9765  1.0028
   64MOL   H43047176   4.372   3.056   7.060 -0.9925  0.4105  1.1914
   64MOL   H43147177   4.573   3.103   6.912 -1.2442 -1.3672  2.0489
   64MOL   H43247178   4.532   3.269   6.908  0.5455  0.0158 -0.2401
   64MOL   H43347179   4.313   3.203   6.789 -0.0447  0.0813  0.7365
   64MOL   H43447180   4.346   3.044   6.826 -1.8368  0.8229 -0.4358
   64MOL   H43547181   4.409   3.077   6.588 -0.8018  0.7671 -0.9038
   64MOL   H43647182   4.559   3.082   6.679  0.0068  0.6036  1.6018
   64MOL   H43747183   4.554   3.322   6.663  1.3461  1.0423 -2.1046
   64MOL   H43847184   4.380   3.311   6.601  0.0709  0.1267 -0.2362
   64MOL   H43947185   4.453   3.249   6.386 -0.4659 -2.4274  1.1295
   64MOL   H44047186   4.577   3.165   6.430 -0.4190 -0.0966  0.4734
   64MOL   H44147187   4.633   3.460   6.477 -2.5726 -0.0353 -0.3149
   64MOL   H44247188   4.595   3.413   6.303  0.2458 -0.6686 -0.0352
   64MOL   H44347189   4.783   3.252   6.312 -0.3317 -0.4722  0.2381
   64MOL   H44447190   4.797   3.276   6.487  0.2313 -0.5926 -1.2826
   64MOL   H44547191   4.903   3.452   6.274  0.4154 -0.2012  0.0919
   64MOL   C44647192   4.977   3.451   6.466 -0.1155 -0.4597  0.1387
   64MOL   O44747193   4.963   3.429   6.587 -0.7694 -0.4386 -0.1254
   64MOL   C44847194   5.086   3.556   6.428  0.6469 -0.2585 -0.6347
   64MOL   C44947195   5.208   3.565   6.514  0.1403 -0.1986  0.2783
   64MOL   C45047196   5.301   3.438   6.499  0.9009 -0.6430 -0.1120
   64MOL   C45147197   5.381   3.409   6.630  0.4335  1.0777 -0.0090
   64MOL   C45247198   5.306   3.328   6.742  0.6718 -0.0009 -0.7951
   64MOL   C45347199   5.386   3.307   6.871 -0.0388  0.7588  0.2895
   64MOL   C45447200   5.308   3.228   6.973  0.2585 -0.2956  0.4448
   64MOL   C45547201   5.201   3.306   7.043 -0.0566  0.1583  0.2706
   64MOL   C45647202   5.247   3.408   7.147  0.6064  0.1059  1.0853
   64MOL   C45747203   5.138   3.470   7.236  0.1698  0.1083 -0.0364
   64MOL   C45847204   5.184   3.546   7.362  0.0388  0.1646  0.1331
   64MOL   N45947205   5.068   3.587   7.444 -0.5044  0.2768  0.0327
   64MOL   H46047206   5.037   3.653   6.425  1.1492 -0.0172 -0.9878
   64MOL   H46147207   5.109   3.535   6.323  1.7617  3.0845 -1.0882
   64MOL   H46247208   5.263   3.655   6.488 -1.7933  0.3762 -2.0749
   64MOL   H46347209   5.172   3.572   6.616  0.0617 -2.7538  0.4616
   64MOL   H46447210   5.372   3.450   6.417  1.7226 -0.0128  0.6737
   64MOL   H46547211   5.246   3.346   6.477 -0.6226 -0.0211  1.0164
   64MOL   H46647212   5.469   3.348   6.610 -0.9237 -1.1982  0.6837
   64MOL   H46747213   5.411   3.511   6.654  1.6084  1.4261 -2.7445
   64MOL   H46847214   5.289   3.228   6.702 -1.3791  0.1788 -0.4348
   64MOL   H46947215   5.210   3.380   6.748  0.4959 -0.0725 -2.5342
   64MOL   H47047216   5.391   3.411   6.903  1.9461  0.9993 -0.7604
   64MOL   H47147217   5.483   3.259   6.862 -0.2679  0.4818 -0.7493
   64MOL   H47247218   5.370   3.180   7.049  2.2869  1.8903  0.2391
   64MOL   H47347219   5.265   3.140   6.926  1.3321 -0.5920 -0.0037
   64MOL   H47447220   5.133   3.230   7.080  1.6621 -1.7060 -0.2701
   64MOL   H47547221   5.138   3.353   6.968  2.4300 -0.2898 -2.2063
   64MOL   H47647222   5.295   3.492   7.096 -0.0294 -0.7566 -0.9863
   64MOL   H47747223   5.318   3.370   7.220 -1.6123 -6.1944  0.2357
   64MOL   H47847224   5.080   3.387   7.278  0.7581 -0.1350  0.2993
   64MOL   H47947225   5.071   3.535   7.179 -1.0737 -1.5227 -0.4804
   64MOL   H48047226   5.241   3.637   7.340  0.8205 -0.1710  0.7364
   64MOL   H48147227   5.255   3.481   7.413 -1.2701 -1.3375  0.0596
   64MOL   H48247228   4.978   3.543   7.426  1.1125 -3.1046 -0.3092
   64MOL   C48347229   5.080   3.672   7.547 -0.9756  0.4988 -0.0496
   64MOL   O48447230   5.186   3.732   7.565 -0.1546  0.2929 -0.4840
   64MOL   C48547231   4.961   3.723   7.625  0.2230  0.2497  0.4159
   64MOL   C48647232   4.939   3.641   0.054  0.2355  0.0727  0.2388
   64MOL   C48747233   4.883   3.498   0.016 -0.1188  0.0682  0.2269
   64MOL   C48847234   4.811   3.429   0.136 -0.4357 -0.2345 -0.4241
   64MOL   C48947235   4.732   3.306   0.097 -0.9775 -0.6984  0.0044
   64MOL   C49047236   4.646   3.249   0.214  0.0452 -0.1827 -0.0779
   64MOL   C49147237   4.557   3.128   0.168 -0.4490 -0.0692 -0.4465
   64MOL   C49247238   4.420   3.170   0.105 -0.1768  0.5268 -1.0415
   64MOL   C49347239   4.349   3.061   0.036 -0.0623 -0.1586 -0.4685
   64MOL   C49447240   4.215   3.100   7.688 -0.2070  0.1865  0.2359
   64MOL   C49547241   4.131   3.007   7.594 -0.7825  0.7138 -0.5691
   64MOL   N49647242   4.217   2.939   7.499 -0.1370  0.3173 -0.1762
   64MOL   H49747243   4.869   3.720   7.566  2.4651 -1.1524 -3.1342
   64MOL   H49847244   4.986   3.828   7.644 -2.2648  0.7417  1.1733
   64MOL   H49947245   5.036   3.627   0.100  0.5568 -0.6112 -0.6353
   64MOL   H50047246   4.875   3.691   0.126  0.7181  1.9770 -0.6370
   64MOL   H50147247   4.962   3.436   7.668 -0.1146 -0.7710  1.4609
   64MOL   H50247248   4.805   3.513   7.635  0.6983 -0.6032 -0.7659
   64MOL   H50347249   4.890   3.404   0.208 -1.0521  0.3763  0.4746
   64MOL   H50447250   4.747   3.503   0.184 -1.1789 -0.4742 -1.0555
   64MOL   H50547251   4.800   3.229   0.064 -1.6861 -1.2151 -0.2569
   64MOL   H50647252   4.660   3.322   0.017  1.9424  1.4260 -2.3152
   64MOL   H50747253   4.578   3.327   0.246  1.1568  1.2120 -1.0745
   64MOL   H50847254   4.724   3.232   0.289  0.4088 -0.5429 -0.5342
   64MOL   H50947255   4.540   3.071   0.259  1.7344  1.3254  0.8898
   64MOL   H51047256   4.632   3.077   0.108 -0.3717 -0.9418  0.3871
   64MOL   H51147257   4.431   3.255   0.038  0.9824 -0.4369 -2.0979
   64MOL   H51247258   4.355   3.204   0.186  1.5088 -1.1626  1.0451
   64MOL   H51347259   4.331   2.976   0.103  0.2720  0.1521  0.0238
   64MOL   H51447260   4.417   3.011   7.661 -0.5306 -0.6001 -0.6097
   64MOL   H51547261   4.230   3.183   7.619  0.3789 -0.8782 -0.9351
   64MOL   H51647262   4.156   3.146   0.073  3.2812  1.0150  2.4452
   64MOL   H51747263   4.054   3.070   7.550 -1.8887 -0.4094 -0.2935
   64MOL   H51847264   4.071   2.930   7.643 -0.0350 -0.6146 -1.6982
   64MOL   H51947265   4.316   2.951   7.512 -0.1792 -1.4192  1.9965
   64MOL   C52047266   4.181   2.873   7.393 -0.5572  0.9676  0.0343
   64MOL   O52147267   4.062   2.852   7.372  0.0094 -0.2819 -0.4813
   64MOL   C52247268   4.291   2.817   7.300 -0.3001  0.1739  0.6701
   64MOL   C52347269   4.246   2.686   7.243 -0.5568 -0.0403  0.4985
   64MOL   C52447270   4.332   2.634   7.124  0.1480 -0.1726  0.8389
   64MOL   C52547271   4.283   2.501   7.058  0.1162  0.2790 -0.3698
   64MOL   C52647272   4.323   2.378   7.133 -0.4152  0.3573 -0.0806
   64MOL   C52747273   4.285   2.249   7.062 -0.4053 -0.1177 -0.5011
   64MOL   C52847274   4.362   2.123   7.109  0.0795 -0.1852 -0.0346
   64MOL   C52947275   4.306   1.999   7.040  0.9680  0.4356 -0.3036
   64MOL   C53047276   4.389   1.873   7.073 -0.5210 -0.2625 -0.3707
   64MOL   C53147277   4.321   1.745   7.043  0.2439  0.0650  0.3406
   64MOL   C53247278   4.421   1.632   6.999 -0.1940 -0.2929 -0.3520
   64MOL   N53347279   4.351   1.510   6.973 -0.2375  0.0839 -0.1617
   64MOL   H53447280   4.392   2.801   7.339  0.0798  2.7592  0.8094
   64MOL   H53547281   4.307   2.881   7.213  1.4261  0.3638  1.0984
   64MOL   H53647282   4.248   2.621   7.330 -1.3097 -2.2434 -1.0878
   64MOL   H53747283   4.141   2.700   7.218 -0.0814  1.2311 -0.9011
   64MOL   H53847284   4.435   2.632   7.160  0.3877 -0.8485  0.1308
   64MOL   H53947285   4.334   2.698   7.036 -1.0309  2.0845  2.3909
   64MOL   H54047286   4.174   2.491   7.053  0.0086  1.4956 -0.4628
   64MOL   H54147287   4.331   2.507   6.961  2.7552  2.3032  0.9896
   64MOL   H54247288   4.290   2.383   7.236  1.5797  1.5261  0.5314
   64MOL   H54347289   4.432   2.381   7.143 -0.4606 -0.8533  0.7389
   64MOL   H54447290   4.308   2.264   6.957 -2.2465 -1.7759 -1.1759
   64MOL   H54547291   4.176   2.237   7.064 -0.5649  1.0478  3.6827
   64MOL   H54647292   4.344   2.109   7.215  1.3821 -1.4472  0.0449
   64MOL   H54747293   4.470   2.128   7.094 -0.0878  0.5421 -1.0644
   64MOL   H54847294   4.309   2.013   6.932 -0.8768  0.6864 -0.3443
   64MOL   H54947295   4.200   2.003   7.066  1.1592 -0.3624  0.6144
   64MOL   H55047296   4.408   1.862   7.180 -0.5621 -1.0124 -0.4390
   64MOL   H55147297   4.488   1.874   7.029 -1.3325 -0.1439 -2.2569
   64MOL   H55247298   4.262   1.758   6.952 -0.2835  0.6533  0.7575
   64MOL   H55347299   4.247   1.723   7.120  2.0000  1.4453  2.4969
   64MOL   H55447300   4.494   1.614   7.077 -0.2192  0.3069 -0.1914
   64MOL   H55547301   4.480   1.668   6.915 -1.8493 -0.9223 -1.8273
   64MOL   H55647302   4.251   1.519   6.981 -0.1584  0.2382  0.6546
   64MOL   C55747303   4.408   1.395   6.941  0.4788  0.1116  0.2158
   64MOL   O55847304   4.532   1.387   6.940  0.7766  0.0542  0.6371
   64MOL   C55947305   4.318   1.274   6.908  0.3466 -0.1704 -0.1705
   64MOL   C56047306   4.342   1.138   6.981  0.3549 -1.2410 -0.3996
   64MOL   C56147307   4.363   1.146   7.138  0.3765 -0.4243  0.2860
   64MOL   C56247308   4.235   1.151   7.223  0.1983  0.7471 -0.4629
   64MOL   C56347309   4.153   1.284   7.201 -0.2478  0.2274  0.3802
   64MOL   C56447310   4.028   1.289   7.300  0.8413  0.2022  0.0637
   64MOL   C56547311   3.918   1.387   7.254 -0.3891 -0.8254  0.3174
   64MOL   C56647312   3.968   1.534   7.257  0.0501 -0.2404 -0.1558
   64MOL   C56747313   3.851   1.634   7.214 -0.4362  0.4808  0.4604
   64MOL   C56847314   3.908   1.775   7.183 -0.0052 -0.4099  0.1114
   64MOL   C56947315   3.813   1.895   7.151 -0.1362  0.0138  0.1510
   64MOL   N57047316   3.696   1.890   7.238 -0.4470  0.2623  0.2188
   64MOL   H57147317   4.341   1.261   6.802 -0.4393 -1.5747 -0.1832
   64MOL   H57247318   4.213   1.303   6.906  0.8797  1.9080  1.1899
   64MOL   H57347319   4.248   1.085   6.962 -1.2535  1.4505 -0.2521
   64MOL   H57447320   4.430   1.085   6.945  0.0660 -0.6106 -2.1188
   64MOL   H57547321   4.424   1.232   7.167 -1.8530  1.5404 -0.5798
   64MOL   H57647322   4.424   1.063   7.171 -0.3801 -1.1680 -0.1763
   64MOL   H57747323   4.170   1.064   7.210  0.8467 -0.0519  1.4487
   64MOL   H57847324   4.262   1.155   7.329  2.0902 -1.9811 -0.7839
   64MOL   H57947325   4.119   1.289   7.098  2.7806  1.3754 -0.6116
   64MOL   H58047326   4.214   1.373   7.217  1.3479 -0.4717 -1.6162
   64MOL   H58147327   4.058   1.305   7.404 -0.2755  3.0907 -0.0234
   64MOL   H58247328   3.995   1.185   7.308  0.3221  0.4465  1.3248
   64MOL   H58347329   3.822   1.376   7.304  0.0930 -1.0050  1.2034
   64MOL   H58447330   3.902   1.356   7.151  0.4810 -1.0839  0.2617
   64MOL   H58547331   4.048   1.556   7.187 -0.9833  0.0238 -1.2652
   64MOL   H58647332   4.015   1.564   7.351  0.0243 -0.6024 -0.0280
   64MOL   H58747333   3.779   1.641   7.296 -1.7065  0.9619 -0.6753
   64MOL   H58847334   3.793   1.588   7.134 -0.7217 -0.6102  1.2724
   64MOL   H58947335   3.967   1.773   7.091 -0.4796  3.1907 -0.3356
   64MOL   H59047336   3.976   1.809   7.261  0.3457  1.9543 -1.1500
   64MOL   H59147337   3.777   1.886   7.048  1.3843 -0.1496 -0.3811
   64MOL   H59247338   3.878   1.982   7.153 -1.8105  1.2810  0.4164
   64MOL   H59347339   3.644   1.805   7.227  0.6236 -0.1345 -2.2427
   64MOL   C59447340   3.660   1.990   7.317  0.1157 -0.0448 -0.6117
   64MOL   O59547341   3.712   2.099   7.320 -0.8578  0.1967 -0.0774
   64MOL   C59647342   3.552   1.960   7.424  0.2496  0.4900 -0.2605
   64MOL   C59747343   3.579   2.020   7.564  0.2838  0.0582  0.2933
   64MOL   C59847344   3.714   1.987   7.623 -0.2866  0.9031 -0.3909
   64MOL   C59947345   3.726   1.850   7.692  0.4730 -0.4015  0.0376
   64MOL   C60047346   3.871   1.826   0.041 -0.8484  0.3344  0.1900
   64MOL   C60147347   3.876   1.714   0.147 -0.2112  0.1612  0.5369
   64MOL   C60247348   4.019   1.691   0.199 -0.2874  0.4807 -0.3067
   64MOL   C60347349   4.040   1.597   0.323 -0.9253  0.2613 -0.1338
   64MOL   C60447350   4.183   1.580   0.372 -0.1013  0.6483  0.4298
   64MOL   C60547351   4.228   1.697   0.456  0.0652 -0.1817 -0.6166
   64MOL   C60647352   4.373   1.694   0.502  0.7409  0.4684  0.8546
   64MOL   N60747353   4.404   1.827   0.548 -0.1405  0.0918 -0.2153
   64MOL   H60847354   3.544   1.851   7.431 -1.6182  0.6127 -0.4551
   64MOL   H60947355   3.462   2.003   7.381 -0.0197 -2.0239 -2.3811
   64MOL   H61047356   3.574   2.128   7.552 -1.9973  0.0320  0.6081
   64MOL   H61147357   3.500   1.993   7.635  1.2367 -0.6504  1.0940
   64MOL   H61247358   3.726   2.060   0.009 -1.5187 -1.0873  1.6992
   64MOL   H61347359   3.793   2.008   7.552  0.7131 -1.5846 -0.0840
   64MOL   H61447360   3.657   1.852   0.082 -2.5213  0.4810 -2.3232
   64MOL   H61547361   3.686   1.773   7.626 -0.5095  0.5904 -0.5502
   64MOL   H61647362   3.913   1.917   0.084 -0.3445  1.0468 -1.7719
   64MOL   H61747363   3.932   1.808   7.646  1.2900  1.0236  1.4582
   64MOL   H61847364   3.826   1.625   0.111  0.4361 -0.3010  0.7788
   64MOL   H61947365   3.812   1.743   0.230  0.7141  1.4812  0.8172
   64MOL   H62047366   4.050   1.794   0.217 -0.1570  0.8166 -2.3769
   64MOL   H62147367   4.082   1.659   0.116 -2.4932 -1.9027 -1.1216
   64MOL   H62247368   4.017   1.493   0.299 -1.3396 -0.1621  2.0129
   64MOL   H62347369   3.971   1.620   0.404  1.3165 -0.6353  2.1101
   64MOL   H62447370   4.249   1.579   0.285  0.6014 -0.1605  0.9725
   64MOL   H62547371   4.206   1.489   0.427 -0.1303  0.0245 -0.5730
   64MOL   H62647372   4.166   1.711   0.545  2.6706  1.7196  0.9694
   64MOL   H62747373   4.203   1.789   0.403  0.0314  0.9843  1.3461
   64MOL   H62847374   4.448   1.670   0.427 -1.4885  0.8850 -1.5837
   64MOL   H62947375   4.394   1.619   0.579 -0.0843 -0.1477  0.4849
   64MOL   H63047376   4.343   1.905   0.531 -0.9217 -0.3753  0.4018
   64MOL   C63147377   4.501   1.856   0.642  0.4295 -0.3477 -0.2186
   64MOL   O63247378   4.583   1.777   0.689  0.6509  0.0118  0.3218
   64MOL   C63347379   4.499   1.997   0.701  0.0400 -0.2453 -0.2674
   64MOL   C63447380   4.613   2.093   0.654 -0.3615  0.5103  0.2943
   64MOL   C63547381   4.632   2.105   0.506  0.3994 -0.1473  0.2618
   64MOL   C63647382   4.724   2.217   0.463  0.3712 -0.1720  0.3480
   64MOL   C63747383   4.731   2.235   0.312 -0.7860 -0.3673  0.9289
   64MOL   C63847384   4.847   2.331   0.273 -0.1373  0.3601  0.5827
   64MOL   C63947385   4.905   2.297   0.132  0.1194  0.1844  0.1912
   64MOL   C64047386   5.033   2.370   0.090 -0.2309  0.2981 -0.5450
   64MOL   C64147387   5.016   2.505   0.013  0.4771  0.4062 -0.3778
   64MOL   C64247388   4.963   2.477   7.562  0.4249 -0.1428 -0.5165
   64MOL   C64347389   4.916   2.590   7.469  0.0239 -0.4556 -0.3876
   64MOL   N64447390   4.833   2.689   7.541 -0.5339  0.1530  0.4103
   64MOL   H64547391   4.522   1.986   0.807 -3.3414  1.7402  0.7261
   64MOL   H64647392   4.404   2.049   0.692  1.4588  2.3498 -0.5394
   64MOL   H64747393   4.589   2.187   0.703  1.1911  1.8800 -1.4770
   64MOL   H64847394   4.712   2.061   0.687  0.5495  2.0583 -0.8630
   64MOL   H64947395   4.535   2.124   0.460  0.7218 -1.2633 -0.9030
   64MOL   H65047396   4.669   2.014   0.459 -0.2243  1.0866 -2.7338
   64MOL   H65147397   4.688   2.313   0.500 -0.8235 -0.5410  0.1515
   64MOL   H65247398   4.818   2.192   0.513  0.0230 -1.7105  0.2492
   64MOL   H65347399   4.633   2.270   0.277 -0.3516 -2.8142 -3.0813
   64MOL   H65447400   4.731   2.137   0.264  3.0401 -0.3012  0.6654
   64MOL   H65547401   4.932   2.319   0.340 -0.3260  3.1256  1.3528
   64MOL   H65647402   4.810   2.432   0.287  1.3349  0.9219  0.4790
   64MOL   H65747403   4.825   2.311   0.059 -0.1795  3.9750  1.1437
   64MOL   H65847404   4.928   2.191   0.129 -2.3911 -0.3628 -1.4026
   64MOL   H65947405   5.090   2.298   0.032 -0.8380 -0.1010 -0.6462
   64MOL   H66047406   5.096   2.399   0.174 -1.4073 -0.7659  0.7435
   64MOL   H66147407   5.110   2.558   7.691  0.1538  0.7256 -1.2528
   64MOL   H66247408   4.945   2.574   0.059 -1.5166 -1.2818 -0.8401
   64MOL   H66347409   4.881   2.406   7.569  0.7958 -0.4323  1.2694
   64MOL   H66447410   5.033   2.421   7.501  0.3056  1.6001 -2.2915
   64MOL   H66547411   4.847   2.553   7.393  1.0368  0.4378 -1.7552
   64MOL   H66647412   5.011   2.638   7.446 -0.8878  0.8159 -1.6192
   64MOL   H66747413   4.884   2.766   7.582 -0.9096  0.8836 -0.4798
   64MOL   C66847414   4.703   2.679   7.551  0.1924 -0.1821 -0.3835
   64MOL   O66947415   4.636   2.606   7.480 -0.4337  0.1446 -1.2088
   64MOL   C67047416   4.639   2.758   7.664  0.6346 -0.1519 -0.7789
   64MOL   C67147417   4.672   2.693   0.101 -0.2605 -0.0387 -0.1134
   64MOL   C67247418   4.586   2.740   0.214  0.5224  0.6381 -0.1913
   64MOL   C67347419   4.588   2.639   0.331 -0.4641 -0.1109 -0.3094
   64MOL   C67447420   4.523   2.693   0.463  0.5746 -0.3148  0.0171
   64MOL   C67547421   4.560   2.613   0.588  0.2819 -0.2651  0.2066
   64MOL   C67647422   4.487   2.672   0.710  0.3602  0.2770  0.5855
   64MOL   C67747423   4.527   2.601   0.839 -0.2329  0.4564  0.3068
   64MOL   C67847424   4.428   2.634   0.952 -0.1762  0.0100  0.7930
   64MOL   C67947425   4.476   2.555   1.078 -0.3162  0.1472  0.8405
   64MOL   C68047426   4.405   2.603   1.209  0.2896 -0.1390  0.3813
   64MOL   N68147427   4.416   2.497   1.310 -0.4695  0.6417 -0.0975
   64MOL   H68247428   4.532   2.764   7.642  0.5306  0.0591 -0.2186
   64MOL   H68347429   4.678   2.859   7.654  0.0527 -0.0782 -2.6340
   64MOL   H68447430   4.664   2.585   0.104 -0.2243  0.0017  2.7368
   64MOL   H68547431   4.776   2.698   0.133 -0.6307  0.8503  0.9846
   64MOL   H68647432   4.480   2.738   0.186  0.1409 -0.7507  1.3216
   64MOL   H68747433   4.609   2.841   0.248 -0.2996  0.4830  0.8465
   64MOL   H68847434   4.541   2.545   0.301 -2.4871  0.9299 -0.4712
   64MOL   H68947435   4.693   2.613   0.343 -0.6085 -0.9354 -0.7834
   64MOL   H69047436   4.416   2.711   0.450  0.9336  0.8811 -1.3958
   64MOL   H69147437   4.567   2.792   0.472  1.1749 -0.5951  0.1756
   64MOL   H69247438   4.666   2.611   0.610  0.5590 -1.1514 -1.1548
   64MOL   H69347439   4.519   2.513   0.574 -0.2701 -0.0336  0.1295
   64MOL   H69447440   4.382   2.648   0.695  0.3500  0.8559 -0.3276
   64MOL   H69547441   4.494   2.781   0.699  1.1321  0.1511 -0.2222
   64MOL   H69647442   4.633   2.620   0.855 -0.5544  3.6276 -1.0802
   64MOL   H69747443   4.526   2.492   0.833  0.8641  0.4628 -0.1224
   64MOL   H69847444   4.324   2.608   0.934  0.7197 -3.7213  0.6130
   64MOL   H69947445   4.437   2.739   0.981  0.8309  0.4287 -0.9703
   64MOL   H70047446   4.583   2.548   1.096 -0.0495  1.2046 -0.2656
   64MOL   H70147447   4.439   2.454   1.060  0.2013 -0.2685  2.0623
   64MOL   H70247448   4.300   2.612   1.181  0.2846  1.9306  1.0146
   64MOL   H70347449   4.433   2.699   1.252 -1.1170 -0.5756  2.3204
   64MOL   H70447450   4.513   2.474   1.322 -1.2313 -3.0532 -0.4067
   64MOL   C70547451   4.319   2.443   1.386 -0.2144  0.3131 -0.2639
   64MOL   O70647452   4.203   2.460   1.356  0.3433 -0.0118  0.0213
   64MOL   C70747453   4.360   2.360   1.506  0.0650  0.3821  0.2116
   64MOL   C70847454   4.300   2.415   1.642 -0.2286  0.2398  0.5471
   64MOL   C70947455   4.332   2.319   1.766 -0.2131 -0.1546  0.3111
   64MOL   C71047456   4.267   2.179   1.760 -0.8317 -0.1725 -0.2834
   64MOL   C71147457   4.294   2.108   1.897  0.3789 -0.1708  0.0713
   64MOL   C71247458   4.277   1.953   1.886 -0.3793  0.4114 -0.8943
   64MOL   C71347459   4.312   1.871   2.022  0.1274 -0.0352  0.1134
   64MOL   C71447460   4.460   1.858   2.063  0.4387 -0.0841  0.7095
   64MOL   C71547461   4.487   1.766   2.182  0.8108 -0.7883 -0.4449
   64MOL   C71647462   4.426   1.813   2.315  0.6136 -0.3894 -0.2791
   64MOL   C71747463   4.505   1.759   2.431 -0.2988  0.1019 -0.0026
   64MOL   N71847464   4.424   1.748   2.547 -0.1822  0.5160 -0.1468
   64MOL   H71947465   4.467   2.347   1.515 -0.2151 -2.8832 -0.6783
   64MOL   H72047466   4.331   2.255   1.500  2.8503 -0.3451 -0.9436
   64MOL   H72147467   4.342   2.514   1.656 -2.6466  1.6083 -1.5795
   64MOL   H72247468   4.195   2.432   1.620  0.2754  1.2711 -1.1010
   64MOL   H72347469   4.315   2.369   1.861  1.1537 -0.8892  0.9655
   64MOL   H72447470   4.439   2.298   1.769 -0.0242  0.7216 -0.3517
   64MOL   H72547471   4.162   2.174   1.730 -1.3861  2.1878  1.1049
   64MOL   H72647472   4.321   2.112   1.693  0.2884  0.7061 -0.2665
   64MOL   H72747473   4.203   2.142   1.948 -0.2343  1.0806 -1.7698
   64MOL   H72847474   4.381   2.135   1.956  1.7798 -0.2559 -1.9057
   64MOL   H72947475   4.317   1.914   1.792  1.5014 -2.0060  0.8429
   64MOL   H73047476   4.170   1.950   1.869 -0.5066 -0.8720  0.0853
   64MOL   H73147477   4.257   1.778   2.006 -0.5452  0.2296  0.8511
   64MOL   H73247478   4.254   1.916   2.103 -1.7534  1.4146 -1.9724
   64MOL   H73347479   4.517   1.950   2.075  0.0202  0.4048 -0.9187
   64MOL   H73447480   4.516   1.806   1.985  0.0199 -1.4498  1.3098
   64MOL   H73547481   4.595   1.763   2.198  0.9996 -0.8408 -1.6455
   64MOL   H73647482   4.444   1.670   2.154 -0.0888 -1.1438  2.0031
   64MOL   H73747483   4.318   1.796   2.307  0.7815 -1.7245  0.0930
   64MOL   H73847484   4.442   1.920   2.320  1.0370 -0.3908 -1.5546
   64MOL   H73947485   4.596   1.818   2.440  0.9380 -1.7250 -0.1765
   64MOL   H74047486   4.536   1.658   2.405 -0.8933  0.0314 -0.4244
   64MOL   H74147487   4.457   1.699   2.628 -1.5183  1.7456  1.1717
   64MOL   H74247488   4.385   1.835   2.581  0.2547  0.7205 -0.1695
   65MOL     C147489   2.075   3.154   6.320 -0.4629  0.0571 -0.1650
   65MOL     O247490   2.028   3.261   6.289  0.0982 -0.3820 -0.4550
   65MOL     C347491   2.082   3.111   6.466 -0.5198  0.7785 -0.4963
   65MOL     C447492   2.099   3.228   6.561  0.4474  0.2320 -0.4714
   65MOL     C547493   2.229   3.298   6.542  0.2682 -0.0442 -0.2129
   65MOL     C647494   2.257   3.406   6.646 -0.6405 -0.0054  0.2325
   65MOL     C747495   2.394   3.475   6.619  0.1997 -0.4667  0.1980
   65MOL     C847496   2.389   3.558   6.494  0.2914  0.7544  0.4597
   65MOL     C947497   2.507   3.650   6.469  0.1086 -0.0957  0.6730
   65MOL    C1047498   2.483   3.732   6.334 -0.0425 -0.4564  0.3262
   65MOL    C1147499   2.562   3.861   6.337  0.4621  0.2569  0.4930
   65MOL    C1247500   2.719   3.829   6.308 -0.0531 -0.0367 -0.4908
   65MOL    C1347501   2.807   3.953   6.319  0.0424  0.3253 -0.2609
   65MOL    N1447502   2.949   3.921   6.287 -0.0571  0.3051 -0.7423
   65MOL    H1547503   2.156   3.031   6.473  0.0468  1.4423  1.4446
   65MOL    H1647504   1.999   3.044   6.487  2.1402 -2.4193  0.3518
   65MOL    H1747505   2.014   3.292   6.539 -0.2094  0.2162  1.9049
   65MOL    H1847506   2.097   3.204   6.667  1.4577 -0.2936 -0.5649
   65MOL    H1947507   2.223   3.336   6.440  1.9830 -1.5568 -0.8923
   65MOL    H2047508   2.309   3.224   6.538 -3.2579 -3.9208 -3.0122
   65MOL    H2147509   2.175   3.474   6.670 -1.4711 -0.7609 -0.4090
   65MOL    H2247510   2.272   3.350   6.738 -0.5267  2.2410  1.6022
   65MOL    H2347511   2.475   3.403   6.601  1.0556  0.1572  1.4463
   65MOL    H2447512   2.425   3.531   6.707 -2.0410  0.0851  0.6648
   65MOL    H2547513   2.301   3.622   6.494  1.3907  2.3319 -1.8333
   65MOL    H2647514   2.355   3.499   6.410 -3.4460 -1.0389  3.0780
   65MOL    H2747515   2.594   3.584   6.469 -0.5293 -0.9473 -0.4175
   65MOL    H2847516   2.520   3.726   6.546 -0.2247 -0.7722  1.4039
   65MOL    H2947517   2.376   3.747   6.317 -0.5771 -3.9217  0.1554
   65MOL    H3047518   2.509   3.671   6.248  0.5630  1.5134 -0.9010
   65MOL    H3147519   2.556   3.915   6.431  1.6295 -0.7182  1.1435
   65MOL    H3247520   2.520   3.922   6.257 -0.0381 -0.6615  0.0496
   65MOL    H3347521   2.713   3.792   6.206 -1.8746  0.2808 -0.5219
   65MOL    H3447522   2.748   3.748   6.374  1.8825 -1.9575 -3.5494
   65MOL    H3547523   2.803   4.014   6.409 -2.8437 -0.1072 -0.0618
   65MOL    H3647524   2.786   4.026   6.240  1.2992  2.0752  0.9823
   65MOL    H3747525   2.992   3.924   6.195  0.8724 -1.5879 -0.4135
   65MOL    H3847526   2.103   3.078   6.247 -1.7237  0.8773 -1.5591
   65MOL    C3947527   3.044   3.887   6.375  0.8283 -0.5078  0.6497
   65MOL    O4047528   3.159   3.861   6.335 -0.2839 -0.5800 -0.3336
   65MOL    C4147529   3.016   3.892   6.528  0.2397 -0.2210 -0.0708
   65MOL    C4247530   3.135   3.829   6.606  0.2484  0.2233 -0.0117
   65MOL    C4347531   3.107   3.818   6.754 -0.1516 -0.0308 -0.8343
   65MOL    C4447532   3.234   3.772   6.831 -0.9888  0.5947 -0.2749
   65MOL    C4547533   3.208   3.779   6.988 -0.1017 -0.0402 -0.5980
   65MOL    C4647534   3.273   3.684   7.091  0.0163  0.1877 -0.1041
   65MOL    C4747535   3.431   3.685   7.086 -0.2935 -0.2762 -0.3187
   65MOL    C4847536   3.498   3.598   7.195  0.3377 -0.2674  0.3099
   65MOL    C4947537   3.650   3.591   7.178 -0.1312 -0.3227  0.3957
   65MOL    C5047538   3.692   3.490   7.066 -0.3395  0.1975 -0.1295
   65MOL    C5147539   3.838   3.461   7.050  0.8195 -0.0255  0.8821
   65MOL    N5247540   3.868   3.353   6.951 -0.5282  0.2622 -0.2004
   65MOL    H5347541   2.927   3.830   6.535  1.7421 -2.2909  1.2160
   65MOL    H5447542   2.995   3.998   6.546  0.9862  0.0674 -0.8446
   65MOL    H5547543   3.133   3.727   6.567 -3.1605 -0.0207  0.6543
   65MOL    H5647544   3.229   3.879   6.584  0.2237  0.4287  0.3553
   65MOL    H5747545   3.024   3.750   6.776  1.3191 -0.9643  2.1571
   65MOL    H5847546   3.086   3.919   6.789 -0.9409 -0.0886 -1.1399
   65MOL    H5947547   3.260   3.670   6.804  0.4280  1.2382 -1.4061
   65MOL    H6047548   3.318   3.825   6.785 -2.3248 -0.2936 -3.8851
   65MOL    H6147549   3.100   3.767   6.994 -0.0647  0.1307  0.4174
   65MOL    H6247550   3.217   3.882   7.021  3.5740 -1.1184  2.0314
   65MOL    H6347551   3.231   3.585   7.076 -0.7335  0.7648 -1.9619
   65MOL    H6447552   3.238   3.700   7.193  0.1604  1.6896 -0.2767
   65MOL    H6547553   3.453   3.791   7.101 -0.0032 -0.4022  0.1459
   65MOL    H6647554   3.471   3.653   6.990  1.1992  3.8055 -1.1625
   65MOL    H6747555   3.455   3.497   7.201  1.0494 -0.4465  3.6679
   65MOL    H6847556   3.470   3.645   7.290 -0.1361 -0.1259  0.1046
   65MOL    H6947557   3.687   3.558   7.275  1.2085  1.5420  0.5485
   65MOL    H7047558   3.693   3.690   7.162  0.5590 -0.5251  0.9783
   65MOL    H7147559   3.651   3.530   6.973  1.2611 -2.4210 -2.0413
   65MOL    H7247560   3.642   3.393   7.077  3.4614 -1.5962  2.1294
   65MOL    H7347561   3.865   3.424   7.149 -0.7430 -1.2808  0.8508
   65MOL    H7447562   3.897   3.548   7.021  0.1160 -0.3032 -1.4941
   65MOL    H7547563   3.827   3.262   6.965  0.9729 -0.5230 -0.7978
   65MOL    C7647564   3.939   3.363   6.835 -0.4011 -0.2541  0.2262
   65MOL    O7747565   4.001   3.467   6.809 -0.4058  0.3336  0.2139
   65MOL    C7847566   3.958   3.228   6.751  0.7171  0.3609  0.0715
   65MOL    C7947567   4.037   3.241   6.623 -0.5929  0.5532  0.0535
   65MOL    C8047568   4.005   3.341   6.512  0.0389  0.6290  0.1541
   65MOL    C8147569   4.129   3.393   6.440 -0.0482  0.1713 -0.1823
   65MOL    C8247570   4.105   3.502   6.333 -0.2196  0.2241 -0.4413
   65MOL    C8347571   4.221   3.559   6.250  0.1004  0.3219  0.0313
   65MOL    C8447572   4.315   3.648   6.334  1.1055 -0.0351 -0.1460
   65MOL    C8547573   4.434   3.680   6.242  0.3060 -0.2808 -0.1483
   65MOL    C8647574   4.554   3.734   6.322  0.1163 -0.2314 -0.2605
   65MOL    C8747575   4.677   3.753   6.237 -0.3400 -0.3873  0.9587
   65MOL    C8847576   4.787   3.844   6.305 -0.4504  0.4805  0.2916
   65MOL    N8947577   4.916   3.843   6.236 -0.0502  0.3154  0.3476
   65MOL    H9047578   3.853   3.208   6.730  1.2225 -1.2566 -0.9956
   65MOL    H9147579   3.983   3.142   6.813 -1.0379 -0.9757 -1.0396
   65MOL    H9247580   4.141   3.248   6.655 -0.7224 -3.9993  1.7660
   65MOL    H9347581   4.036   3.145   6.572 -2.5646  1.6194 -2.0252
   65MOL    H9447582   3.949   3.419   6.564  0.7360  0.5672  1.0052
   65MOL    H9547583   3.948   3.303   6.428 -2.4168  0.0816  2.0146
   65MOL    H9647584   4.189   3.437   6.520  0.1242  0.5700 -0.5350
   65MOL    H9747585   4.188   3.315   6.391  0.3813 -0.0661  0.6952
   65MOL    H9847586   4.056   3.585   6.384  0.1153  0.1887 -0.0586
   65MOL    H9947587   4.028   3.466   6.264 -2.6810  0.9498  1.8084
   65MOL   H10047588   4.183   3.618   6.166 -2.8255 -0.4292  0.7546
   65MOL   H10147589   4.277   3.476   6.207 -1.8734 -0.9812 -0.0983
   65MOL   H10247590   4.353   3.583   6.412 -0.1558 -1.5991 -0.8159
   65MOL   H10347591   4.266   3.735   6.377 -1.1778 -1.3857  0.0445
   65MOL   H10447592   4.417   3.762   6.173  2.1650 -1.6784 -2.3254
   65MOL   H10547593   4.470   3.593   6.187 -1.3077 -0.8624 -0.3139
   65MOL   H10647594   4.579   3.670   6.406 -0.1247 -0.9475 -0.7296
   65MOL   H10747595   4.526   3.828   6.370 -1.5129 -1.6248  1.6012
   65MOL   H10847596   4.651   3.795   6.140  2.7883  0.1195  0.2739
   65MOL   H10947597   4.712   3.651   6.218 -0.8869 -0.4081  0.0781
   65MOL   H11047598   4.797   3.807   6.407 -0.0109 -0.9444 -0.2530
   65MOL   H11147599   4.755   3.947   6.316 -1.2994  0.3765 -1.0661
   65MOL   H11247600   4.952   3.754   6.207 -2.5759 -0.6927  0.2270
   65MOL   C11347601   4.993   3.947   6.213 -0.4524  0.9881 -0.6124
   65MOL   O11447602   4.957   4.067   6.226 -0.6921 -0.0012  0.6134
   65MOL   C11547603   5.143   3.911   6.180 -0.3007 -0.0133  0.5551
   65MOL   C11647604   5.244   3.989   6.267 -0.3333  0.3096  0.3395
   65MOL   C11747605   5.259   3.923   6.403 -0.6717 -0.1254  0.1641
   65MOL   C11847606   5.332   4.006   6.511 -0.2660  0.2285  0.1367
   65MOL   C11947607   5.244   4.115   6.568  0.7213 -0.8244 -0.4110
   65MOL   C12047608   5.301   4.203   6.681  0.5045 -0.1808  0.3054
   65MOL   C12147609   5.359   4.139   6.807  0.3867  0.4820  0.4470
   65MOL   C12247610   5.397   4.238   6.920 -0.0979 -0.2419 -0.7773
   65MOL   C12347611   5.465   4.373   6.876 -0.4862  0.4692 -0.4835
   65MOL   C12447612   5.495   4.460   6.997 -0.2868  0.0924  0.3630
   65MOL   C12547613   5.581   4.582   6.976 -0.1966 -0.0506  0.3325
   65MOL   N12647614   5.526   4.672   6.871  0.0863 -0.4485  0.0460
   65MOL   H12747615   5.155   3.942   6.076  0.9132 -0.3516  0.5856
   65MOL   H12847616   5.159   3.803   6.179 -2.0442 -0.2949  1.2833
   65MOL   H12947617   5.337   3.989   6.210 -1.5669  0.5362 -1.7239
   65MOL   H13047618   5.205   4.091   6.265  0.8347  0.7481 -1.6078
   65MOL   H13147619   5.316   3.831   6.387 -1.3336 -0.9272  2.2597
   65MOL   H13247620   5.166   3.882   6.443 -0.4749 -1.6866 -0.9139
   65MOL   H13347621   5.365   3.931   6.583 -2.8070  0.1678  1.3009
   65MOL   H13447622   5.423   4.049   6.470  1.6156 -1.5734  2.2464
   65MOL   H13547623   5.157   4.057   6.599  1.1242 -2.2571 -1.8573
   65MOL   H13647624   5.202   4.167   6.481  0.3343  0.5842  0.6108
   65MOL   H13747625   5.234   4.281   6.717 -1.1077 -2.2168  1.8574
   65MOL   H13847626   5.384   4.250   6.627 -0.1513 -2.4016 -2.7835
   65MOL   H13947627   5.448   4.080   6.784 -0.5297 -1.0910  0.8767
   65MOL   H14047628   5.286   4.069   6.848  0.9838  0.2616  1.1685
   65MOL   H14147629   5.460   4.181   6.989 -1.6418  2.3927  2.9721
   65MOL   H14247630   5.308   4.274   6.971  0.4230 -0.6044  0.4130
   65MOL   H14347631   5.400   4.429   6.810  0.9624  2.7187 -0.0693
   65MOL   H14447632   5.563   4.363   6.829  0.0052 -0.9544  0.7913
   65MOL   H14547633   5.543   4.399   7.073  3.3158  0.0288 -1.8593
   65MOL   H14647634   5.405   4.506   7.039  0.8222  1.1436  1.5973
   65MOL   H14747635   5.681   4.549   6.949 -0.4702  1.5773 -2.9424
   65MOL   H14847636   5.591   4.633   7.072  1.7538  1.0402 -0.4430
   65MOL   H14947637   5.435   4.653   6.831 -0.0014 -0.5533  0.2917
   65MOL   C15047638   5.585   4.777   6.819 -0.2189 -1.0162  0.0686
   65MOL   O15147639   5.701   4.809   6.841  0.1511 -0.9561  0.5275
   65MOL   C15247640   5.515   4.858   6.708 -0.6532 -0.3619  0.0034
   65MOL   C15347641   5.551   5.008   6.687  0.2378 -0.1614 -0.0992
   65MOL   C15447642   5.478   5.103   6.788  0.1219  0.2550 -0.5059
   65MOL   C15547643   5.534   5.237   6.818 -0.6624  0.0953  1.2190
   65MOL   C15647644   5.552   5.338   6.708 -0.5269 -0.1044 -1.0762
   65MOL   C15747645   5.634   5.460   6.755  0.5443 -0.0112 -0.4095
   65MOL   C15847646   5.790   5.448   6.753  0.3956 -0.0284  0.0176
   65MOL   C15947647   5.870   5.576   6.783  0.1884 -0.1470  1.0624
   65MOL   C16047648   6.013   5.541   6.818 -0.8705 -0.9952 -0.2595
   65MOL   C16147649   6.102   5.655   6.879 -0.7527  0.0830 -0.1854
   65MOL   C16247650   6.249   5.613   6.903  0.0337  0.6590 -0.1170
   65MOL   N16347651   6.329   5.713   6.969  0.3324 -0.6612  0.6807
   65MOL   H16447652   5.408   4.873   6.720 -0.7573 -0.9151 -0.2057
   65MOL   H16547653   5.523   4.805   6.613 -0.6185  2.4193 -1.5860
   65MOL   H16647654   5.660   5.019   6.683  0.1138  0.7276 -1.7081
   65MOL   H16747655   5.529   5.021   6.581  1.2856 -2.1289 -0.5662
   65MOL   H16847656   5.462   5.050   6.882 -0.6727  0.9479 -0.2382
   65MOL   H16947657   5.377   5.114   6.749 -0.4574 -0.0432  0.8645
   65MOL   H17047658   5.470   5.290   6.889 -1.0010 -0.2964  1.2049
   65MOL   H17147659   5.632   5.223   6.865 -0.7576  0.4627  1.5302
   65MOL   H17247660   5.459   5.380   6.670 -1.1379 -0.4763 -0.0107
   65MOL   H17347661   5.603   5.283   6.629  1.4851 -1.5560  1.1771
   65MOL   H17447662   5.604   5.495   6.854  0.3836  0.4084 -0.6064
   65MOL   H17547663   5.608   5.534   6.679 -0.1088 -2.3978 -2.5873
   65MOL   H17647664   5.828   5.404   6.661  2.7272  3.3882 -0.7406
   65MOL   H17747665   5.808   5.372   6.830  0.1631 -1.0086 -0.8850
   65MOL   H17847666   5.816   5.627   6.863  0.2126  1.5689  0.0123
   65MOL   H17947667   5.864   5.642   6.697  1.7818 -2.2060 -0.6814
   65MOL   H18047668   6.047   5.521   6.717 -0.7684 -0.0522 -0.4225
   65MOL   H18147669   6.018   5.459   6.890  2.2309  2.2297  3.4717
   65MOL   H18247670   6.056   5.698   6.968 -1.7347 -0.3968 -0.4542
   65MOL   H18347671   6.105   5.738   6.809  1.5506  1.4234  1.4509
   65MOL   H18447672   6.284   5.589   6.803  0.4171  0.6884  0.0092
   65MOL   H18547673   6.262   5.515   6.950 -0.8305 -0.7650 -2.7060
   65MOL   H18647674   6.344   5.695   7.067 -0.3029  0.1297  0.9233
   65MOL   C18747675   6.350   5.834   6.924 -0.2168  0.3457  0.8638
   65MOL   O18847676   6.330   5.870   6.807  0.3037  0.5642 -0.4953
   65MOL   C18947677   6.406   5.937   7.017  0.0050 -0.2184  0.0283
   65MOL   C19047678   6.312   6.062   7.027  0.1662  0.3118 -0.0067
   65MOL   C19147679   6.163   6.034   7.051 -0.8489 -0.7973  0.3374
   65MOL   C19247680   6.149   5.964   7.196  0.0813 -0.1371 -0.1320
   65MOL   C19347681   6.009   5.910   7.211 -0.7062 -0.4238 -0.1847
   65MOL   C19447682   5.908   6.024   7.236  0.8131  0.1038  0.6532
   65MOL   C19547683   5.785   5.977   7.308 -0.4651 -0.1222 -0.7515
   65MOL   C19647684   5.696   6.098   7.350 -0.5885  0.3340  0.3283
   65MOL   C19747685   5.566   6.047   7.393  0.3614 -0.7134 -0.1592
   65MOL   C19847686   5.478   6.171   7.438  0.8385  0.3105 -0.6532
   65MOL   C19947687   5.344   6.151   7.503 -0.4735  0.0322  0.1564
   65MOL   N20047688   5.300   6.278   7.572 -0.2506  0.1011 -0.0577
   65MOL   H20147689   6.502   5.979   6.987  0.6478 -2.2272 -0.8186
   65MOL   H20247690   6.445   5.907   7.114 -2.4374 -0.5078  0.9729
   65MOL   H20347691   6.358   6.134   7.095  1.1801 -1.8061  1.6136
   65MOL   H20447692   6.317   6.116   6.932  2.1920  0.9338  0.4301
   65MOL   H20547693   6.115   5.972   6.975  0.9993 -0.4281 -1.1794
   65MOL   H20647694   6.103   6.125   7.045  0.7798  0.3425  1.0257
   65MOL   H20747695   6.221   5.884   7.215 -0.7918 -0.5580  1.4863
   65MOL   H20847696   6.170   6.034   7.276  1.0973 -0.4144 -0.1391
   65MOL   H20947697   6.002   5.847   7.299  1.0720 -1.5423 -0.8197
   65MOL   H21047698   5.980   5.849   7.125  2.5198  0.2153 -1.7989
   65MOL   H21147699   5.877   6.075   7.145  0.2585 -1.3439  0.0089
   65MOL   H21247700   5.964   6.104   7.285  1.2476  0.1487  0.0774
   65MOL   H21347701   5.805   5.925   7.402 -1.0274  2.8148  1.0372
   65MOL   H21447702   5.738   5.897   7.250 -0.1836 -0.3525 -0.6649
   65MOL   H21547703   5.682   6.165   7.265 -1.1912 -0.0375  0.1350
   65MOL   H21647704   5.748   6.162   7.421 -2.1189  0.0332  1.7485
   65MOL   H21747705   5.590   5.982   7.478  1.0684 -0.2502 -0.0019
   65MOL   H21847706   5.530   5.981   7.314  1.6713 -2.1159  0.3783
   65MOL   H21947707   5.474   6.220   7.341  0.2692  0.6968 -0.4346
   65MOL   H22047708   5.538   6.222   7.513  2.1457 -0.3100 -1.2429
   65MOL   H22147709   5.351   6.069   7.574  0.5219  2.6417  3.1850
   65MOL   H22247710   5.289   6.127   7.412 -2.4315  0.6805  1.1455
   65MOL   H22347711   5.303   6.274   7.673  0.2998 -2.2228 -0.1351
   65MOL   C22447712   5.243   6.382   7.515 -0.6967 -0.8153 -0.1218
   65MOL   O22547713   5.207   6.386   7.402 -0.2591  0.6262 -0.1370
   65MOL   C22647714   5.201   6.500   7.602 -0.0657  0.5857  0.3885
   65MOL   C22747715   5.051   6.532   7.584  0.1503  0.1809 -0.2374
   65MOL   C22847716   5.003   6.639   7.687  0.5138  0.1009  0.0146
   65MOL   C22947717   5.022   6.787   7.643 -0.6189  0.2474  0.6731
   65MOL   C23047718   4.983   6.894   0.058 -0.0247  0.0845 -0.1418
   65MOL   C23147719   4.993   7.033   7.686 -0.0573  0.0542  1.1319
   65MOL   C23247720   4.978   7.146   0.094  0.7445 -0.3237 -0.0155
   65MOL   C23347721   4.999   7.286   0.026  0.5389  0.3909  0.1916
   65MOL   C23447722   4.976   7.409   0.121  0.4235 -0.5352 -0.3984
   65MOL   C23547723   5.055   7.532   0.095  0.5885 -0.0938  0.3648
   65MOL   C23647724   5.007   7.605   7.667  0.2986 -0.1560 -0.2745
   65MOL   N23747725   5.088   0.028   7.651  0.6603 -0.1923 -0.8363
   65MOL   H23847726   5.257   6.587   7.567 -2.1394  1.9831  0.4083
   65MOL   H23947727   5.237   6.506   0.011 -3.3524 -0.5573  1.6765
   65MOL   H24047728   5.040   6.571   7.483 -1.1200  0.9083  0.1698
   65MOL   H24147729   4.998   6.437   7.585 -0.4927  0.5414  1.9589
   65MOL   H24247730   5.038   6.613   0.093  1.6596  0.9383 -0.1600
   65MOL   H24347731   4.895   6.632   0.003  0.3490  0.9901 -1.1195
   65MOL   H24447732   5.124   6.816   7.620  0.2755 -2.3556  1.2697
   65MOL   H24547733   4.961   6.799   7.553 -1.7447  1.6076  1.5831
   65MOL   H24647734   5.052   6.884   0.142 -1.9485  1.0203  1.5849
   65MOL   H24747735   4.885   6.883   0.104  0.2057 -2.6547 -0.2342
   65MOL   H24847736   4.909   7.046   7.619  2.0767 -0.2525 -1.7194
   65MOL   H24947737   5.088   7.054   7.637 -0.1886 -0.5565  0.6160
   65MOL   H25047738   5.052   7.134   0.174 -0.3447 -0.7186  0.9601
   65MOL   H25147739   4.879   7.142   0.141  1.3313  1.5267  1.4376
   65MOL   H25247740   4.932   7.300   7.635  0.3226 -0.1051  0.2800
   65MOL   H25347741   5.100   7.280   7.679  1.1474  0.1953  1.6682
   65MOL   H25447742   4.990   7.371   0.223 -1.7130 -1.1694 -0.3113
   65MOL   H25547743   4.871   7.438   0.123  0.0285 -1.9364  0.8565
   65MOL   H25647744   5.162   7.521   0.081  0.7213  1.9780 -0.2931
   65MOL   H25747745   5.048   7.595   0.183 -2.7105  2.6786 -1.7590
   65MOL   H25847746   4.906   7.643   7.682  2.0188  4.6464  0.0616
   65MOL   H25947747   5.008   7.537   7.582 -2.2630 -1.3000  0.5577
   65MOL   H26047748   5.115   0.075   0.042 -0.6598 -0.3137 -0.3254
   65MOL   C26147749   5.098   0.095   7.541  0.1033  0.6013  0.3304
   65MOL   O26247750   5.071   0.051   7.432  0.0609 -0.0641 -0.5855
   65MOL   C26347751   5.141   0.242   7.550  0.3976 -0.1030 -0.0719
   65MOL   C26447752   5.283   0.260   7.518 -0.4122 -0.2157 -0.1599
   65MOL   C26547753   5.318   0.409   7.529 -0.6922  0.0903  0.1226
   65MOL   C26647754   5.468   0.438   7.494  0.1838 -0.1836 -0.5265
   65MOL   C26747755   5.499   0.583   7.510 -0.7766 -0.4058 -0.3469
   65MOL   C26847756   5.654   0.613   7.498 -0.6341 -0.0634 -0.8689
   65MOL   C26947757   5.696   0.763   7.475  0.6518  0.4336 -0.5524
   65MOL   C27047758   5.846   0.771   7.442  1.3176  0.0225 -0.6564
   65MOL   C27147759   5.888   0.907   7.391 -0.1209  0.5162  0.4602
   65MOL   C27247760   6.034   0.915   7.341  0.4749 -0.3381  0.2163
   65MOL   C27347761   6.086   1.043   7.280 -0.4553 -0.3512  0.5001
   65MOL   N27447762   6.220   1.031   7.226 -0.7150  0.1312 -0.6941
   65MOL   H27547763   5.118   0.288   7.646 -1.6262  0.9431 -1.0219
   65MOL   H27647764   5.082   0.314   7.492  0.6984  0.1497 -0.0667
   65MOL   H27747765   5.349   0.197   7.579 -0.3067  0.7778  0.7598
   65MOL   H27847766   5.289   0.232   7.413 -1.8295 -0.5449 -0.1613
   65MOL   H27947767   5.301   0.435   7.633  3.1153 -0.7917  1.0201
   65MOL   H28047768   5.256   0.472   7.464  1.3504  1.8668 -0.1624
   65MOL   H28147769   5.529   0.380   7.563 -2.0131 -1.1171  0.6737
   65MOL   H28247770   5.487   0.392   7.398  0.2719 -0.9650 -0.1352
   65MOL   H28347771   5.449   0.632   7.593 -1.5282  0.2187 -1.1661
   65MOL   H28447772   5.450   0.619   7.419  0.3216  1.3957 -0.2433
   65MOL   H28547773   5.693   0.553   7.416 -0.2455  0.4258 -1.0394
   65MOL   H28647774   5.696   0.580   7.593  1.7096 -1.9899 -2.5318
   65MOL   H28747775   5.668   0.830   7.556  1.3886  0.3731 -0.2358
   65MOL   H28847776   5.639   0.800   7.391 -3.0195 -1.4124  1.0108
   65MOL   H28947777   5.884   0.689   7.382  0.1495 -0.2633 -1.0220
   65MOL   H29047778   5.894   0.765   7.540 -0.6054  1.1425  0.4086
   65MOL   H29147779   5.873   0.978   7.472 -0.6074  0.9666 -0.0149
   65MOL   H29247780   5.817   0.935   7.312  0.1394  0.9545  0.3820
   65MOL   H29347781   6.048   0.838   7.264  0.5238  0.0665 -0.1808
   65MOL   H29447782   6.091   0.881   7.427 -0.9327 -1.0121  0.8969
   65MOL   H29547783   6.088   1.108   7.368  0.1480  0.0398  0.2043
   65MOL   H29647784   6.019   1.086   7.206  0.2393  2.1413  1.2551
   65MOL   H29747785   6.276   0.948   7.243 -1.0715  0.0914  0.2908
   65MOL   C29847786   6.280   1.120   7.151 -0.1562  0.6804  0.0052
   65MOL   O29947787   6.237   1.240   7.151  0.3990  0.5774 -0.3829
   65MOL   C30047788   6.406   1.087   7.076 -0.2247  0.7090  0.1750
   65MOL   C30147789   6.520   1.192   7.078 -0.2471  0.0852  0.2498
   65MOL   C30247790   6.650   1.150   7.010  0.3233  0.5223 -0.1178
   65MOL   C30347791   6.750   1.257   6.991 -0.0352  0.7172  0.0620
   65MOL   C30447792   6.892   1.211   6.966 -0.4731 -0.1520  0.1571
   65MOL   C30547793   6.993   1.316   6.936  0.2777 -0.2443  0.3351
   65MOL   C30647794   6.985   1.364   6.792  0.5026  0.1547 -0.1987
   65MOL   C30747795   7.108   1.449   6.749  0.2368 -0.7290  0.5335
   65MOL   C30847796   7.065   1.525   6.623 -0.7094  0.0471 -0.6524
   65MOL   C30947797   7.002   1.435   6.502 -0.0760 -0.4364 -0.2806
   65MOL   C31047798   7.084   1.323   6.454  0.7172  0.0087  0.9895
   65MOL   N31147799   7.014   1.259   6.345 -0.2651  0.3002 -0.4719
   65MOL   H31247800   6.385   1.056   6.973  2.6660 -0.1099 -0.2321
   65MOL   H31347801   6.442   1.002   7.134 -1.2025 -0.1537 -0.4664
   65MOL   H31447802   6.484   1.272   7.014  1.6515 -0.6905 -1.8425
   65MOL   H31547803   6.526   1.234   7.178 -2.1923  0.0328  0.4141
   65MOL   H31647804   6.628   1.109   6.912 -3.8564 -2.9346  2.0698
   65MOL   H31747805   6.696   1.072   7.071  1.1587  2.0471  1.2230
   65MOL   H31847806   6.708   1.308   6.904  1.2538  0.4155 -0.7456
   65MOL   H31947807   6.749   1.329   7.073 -0.4844 -1.5121  2.0835
   65MOL   H32047808   6.895   1.135   6.887 -0.3399 -0.6031  0.5900
   65MOL   H32147809   6.914   1.143   7.048 -0.7838 -1.6580 -0.9855
   65MOL   H32247810   7.091   1.268   6.943 -0.3084 -1.4595  0.2853
   65MOL   H32347811   6.985   1.402   7.003 -0.1690  0.6312 -0.8449
   65MOL   H32447812   6.885   1.407   6.783 -0.2437 -1.1603  1.4878
   65MOL   H32547813   6.973   1.276   6.729  1.2586  0.4490 -0.7583
   65MOL   H32647814   7.194   1.385   6.726  1.4798  1.5110 -1.1668
   65MOL   H32747815   7.127   1.518   6.831 -2.0260  1.2922 -0.5966
   65MOL   H32847816   7.143   1.579   6.569 -0.0656 -0.8554 -0.6373
   65MOL   H32947817   6.992   1.603   6.644 -1.0850 -0.5380  0.2235
   65MOL   H33047818   6.985   1.507   6.422 -0.3942 -0.9077 -0.6373
   65MOL   H33147819   6.904   1.399   6.533  0.9562 -1.3444  2.0607
   65MOL   H33247820   7.099   1.256   6.539  2.3950 -1.0417 -0.0851
   65MOL   H33347821   7.181   1.367   6.427 -0.7230  1.9991 -1.1288
   65MOL   H33447822   6.930   1.293   6.300 -0.2510 -0.2895 -0.9494
   65MOL   C33547823   7.056   1.134   6.304 -0.2596 -0.3636 -0.3004
   65MOL   O33647824   7.142   1.067   6.362 -0.0908 -0.1135  0.7527
   65MOL   C33747825   6.986   1.079   6.177 -0.5415 -1.0695 -0.1908
   65MOL   C33847826   6.932   0.937   6.199  1.0639  0.4846 -0.2029
   65MOL   C33947827   6.870   0.874   6.074  0.2017  0.9094 -0.4405
   65MOL   C34047828   6.827   0.732   6.097  0.8825  0.8613 -0.5181
   65MOL   C34147829   6.734   0.670   5.989 -0.2228  0.1177 -0.0762
   65MOL   C34247830   6.647   0.550   6.025 -0.8439  0.2219  0.2096
   65MOL   C34347831   6.606   0.483   5.898 -0.1016 -0.0460 -0.6216
   65MOL   C34447832   6.513   0.570   5.815  0.3853  0.9177 -0.0524
   65MOL   C34547833   6.480   0.513   5.679  0.5561 -0.4563 -0.3182
   65MOL   C34647834   6.405   0.620   5.588 -0.5908  0.5889 -0.2668
   65MOL   C34747835   6.363   0.560   5.452  0.0366 -0.1295  0.0005
   65MOL   N34847836   6.252   0.629   5.405 -0.4603 -0.3682  0.1306
   65MOL   H34947837   7.053   1.093   6.092  0.0706 -0.5123  0.3836
   65MOL   H35047838   6.910   1.151   6.145  2.6828  1.8766 -1.5965
   65MOL   H35147839   7.010   0.866   6.228 -1.5898 -3.1588 -1.6235
   65MOL   H35247840   6.856   0.941   6.276 -0.2054 -2.7230 -1.2426
   65MOL   H35347841   6.931   0.878   5.983  0.7541 -0.2268 -0.1269
   65MOL   H35447842   6.786   0.941   6.053  0.8070  0.9552 -2.9446
   65MOL   H35547843   6.914   0.666   6.097  1.4464  1.6046 -1.1627
   65MOL   H35647844   6.781   0.725   6.196  1.9950 -0.2527 -0.0730
   65MOL   H35747845   6.789   0.649   5.897  2.0036 -0.2732  1.2917
   65MOL   H35847846   6.668   0.753   5.967  2.3385  2.1330 -0.4028
   65MOL   H35947847   6.563   0.594   6.079 -0.1764 -0.6629  1.9883
   65MOL   H36047848   6.697   0.478   6.090  0.1726  0.0346 -0.7634
   65MOL   H36147849   6.552   0.392   5.922 -2.1293  1.6842  1.6231
   65MOL   H36247850   6.691   0.448   5.839  0.1252 -1.1175  0.3298
   65MOL   H36347851   6.546   0.674   5.804 -0.2305  1.3638  2.0294
   65MOL   H36447852   6.415   0.571   5.863  0.0528  0.5854 -0.7225
   65MOL   H36547853   6.403   0.437   5.696  0.1456 -0.0856 -0.5308
   65MOL   H36647854   6.563   0.461   5.631 -0.0851 -0.6283 -1.2558
   65MOL   H36747855   6.462   0.713   5.578  1.6599 -0.5466  1.7338
   65MOL   H36847856   6.315   0.649   5.643 -0.5115 -0.3454  0.3553
   65MOL   H36947857   6.329   0.457   5.464  0.7153 -0.7882 -3.3665
   65MOL   H37047858   6.442   0.539   5.380  1.0009  2.3919  0.2951
   65MOL   H37147859   6.179   0.624   5.474 -1.5232 -2.1656 -1.1029
   65MOL   C37247860   6.248   0.678   5.287  1.1067 -0.0549  0.2584
   65MOL   O37347861   6.334   0.661   5.197  0.3282 -0.2359  0.3145
   65MOL   C37447862   6.122   0.760   5.253 -0.2535  0.0493 -0.1512
   65MOL   C37547863   6.088   0.755   5.100  0.3842  0.0487  0.0369
   65MOL   C37647864   6.136   0.883   5.015  0.4147 -0.3451 -0.1075
   65MOL   C37747865   6.037   1.008   5.014  0.8390 -0.3220 -1.0938
   65MOL   C37847866   6.119   1.130   4.984  0.9510  0.2211  0.3860
   65MOL   C37947867   6.042   1.253   4.929  0.4925 -0.1842 -0.5386
   65MOL   C38047868   5.953   1.312   5.043 -0.6924 -1.1589  0.0736
   65MOL   C38147869   5.887   1.442   4.999  1.1379  0.4395  0.0519
   65MOL   C38247870   5.770   1.467   5.088  0.7100  0.8867  0.0805
   65MOL   C38347871   5.688   1.590   5.055 -0.6027 -0.2654  0.3121
   65MOL   C38447872   5.560   1.599   5.136  0.1033 -0.2029 -0.0496
   65MOL   N38547873   5.474   1.485   5.118  0.0690 -0.8077 -0.1016
   65MOL   H38647874   6.137   0.861   5.289  0.1645  0.5075 -1.5754
   65MOL   H38747875   6.040   0.712   5.308  0.9421 -0.2917  1.3471
   65MOL   H38847876   6.134   0.665   5.060  2.0264  0.6779  0.4641
   65MOL   H38947877   5.982   0.740   5.084  0.5942 -2.7672  1.1154
   65MOL   H39047878   6.164   0.855   4.914 -1.3824  1.4215 -1.1284
   65MOL   H39147879   6.231   0.913   5.060 -0.0306 -1.0149  1.3289
   65MOL   H39247880   5.965   0.981   4.936  1.9120 -2.3581 -1.4043
   65MOL   H39347881   5.979   1.013   5.106  2.0479 -0.1308 -0.3310
   65MOL   H39447882   6.189   1.099   4.906  0.8022  0.2853  0.2252
   65MOL   H39547883   6.181   1.156   5.069  0.5561  0.3097  0.6457
   65MOL   H39647884   5.988   1.227   4.838 -0.7073 -0.6582  0.2897
   65MOL   H39747885   6.119   1.325   4.905  0.4881  0.1717  0.4858
   65MOL   H39847886   6.003   1.331   5.138 -2.2962 -1.3227  0.9720
   65MOL   H39947887   5.882   1.239   5.081 -2.3082 -0.1431 -0.9068
   65MOL   H40047888   5.842   1.434   4.900 -0.8423  0.2576  0.9433
   65MOL   H40147889   5.950   1.531   4.994  0.4224  0.9248 -0.4612
   65MOL   H40247890   5.800   1.479   5.193 -0.3776 -1.2199  0.6552
   65MOL   H40347891   5.707   1.379   5.080 -0.0230  1.4541 -0.4030
   65MOL   H40447892   5.667   1.609   4.949  0.5542 -0.3962  0.0530
   65MOL   H40547893   5.738   1.685   5.073 -1.2813 -0.1077  1.3905
   65MOL   H40647894   5.513   1.690   5.099 -1.4670 -1.2807 -0.7616
   65MOL   H40747895   5.577   1.625   5.241 -1.1594 -2.4443  0.7263
   65MOL   H40847896   5.499   1.422   5.043 -1.2069 -0.6547 -0.6764
   65MOL   C40947897   5.363   1.452   5.180 -0.0517 -0.4587 -0.6827
   65MOL   O41047898   5.312   1.518   5.274  0.4242 -0.0819  0.0824
   65MOL   C41147899   5.312   1.324   5.122  0.2019 -0.3815  0.5514
   65MOL   C41247900   5.162   1.292   5.166  0.2481  0.0840  0.7874
   65MOL   C41347901   5.053   1.382   5.101 -0.4637  0.1959  0.3200
   65MOL   C41447902   5.032   1.373   4.949  0.0876  0.3211  1.1319
   65MOL   C41547903   4.969   1.235   4.897  0.5396  0.3333 -0.6924
   65MOL   C41647904   4.972   1.234   4.746 -0.0458 -0.2302  0.3969
   65MOL   C41747905   5.118   1.236   4.686  0.1697 -0.1783 -0.1648
   65MOL   C41847906   5.125   1.225   4.533 -0.8384  0.1616  0.0934
   65MOL   C41947907   5.263   1.205   4.478  0.2279  0.0466 -0.7930
   65MOL   C42047908   5.278   1.178   4.324  0.2488 -0.8242  0.4376
   65MOL   C42147909   5.268   1.298   4.230 -0.2591  0.3426 -0.0080
   65MOL   N42247910   5.137   1.357   4.223 -0.2895  0.2488  0.0243
   65MOL   H42347911   5.374   1.238   5.147  0.6843  0.3675  1.9661
   65MOL   H42447912   5.327   1.330   5.014  0.9606  0.3514  0.6980
   65MOL   H42547913   5.143   1.193   5.124 -1.2641  1.2529 -1.3731
   65MOL   H42647914   5.141   1.290   5.273  1.2433 -2.9797  0.9870
   65MOL   H42747915   5.080   1.485   5.126  0.4319  0.8157 -3.0184
   65MOL   H42847916   4.959   1.364   5.155  0.1770  0.4724  1.5456
   65MOL   H42947917   4.966   1.452   4.913 -1.7487 -1.8594 -0.4752
   65MOL   H43047918   5.132   1.380   4.906 -0.8378  1.4353 -0.9404
   65MOL   H43147919   4.867   1.209   4.927 -0.1924  0.4628 -2.9817
   65MOL   H43247920   5.033   1.158   4.939  0.8346  1.8913  1.8330
   65MOL   H43347921   4.907   1.313   4.709 -3.8022 -2.7908  1.1889
   65MOL   H43447922   4.920   1.144   4.712  2.3085 -1.3751 -0.2708
   65MOL   H43547923   5.174   1.163   4.745 -0.8232 -0.7554  0.0700
   65MOL   H43647924   5.169   1.331   4.703 -1.1238  0.2124  1.8137
   65MOL   H43747925   5.075   1.309   4.485 -2.0895 -0.7771 -0.2753
   65MOL   H43847926   5.063   1.141   4.500  1.1050 -0.4277 -2.2008
   65MOL   H43947927   5.318   1.127   4.530  0.4848 -1.3904 -3.1532
   65MOL   H44047928   5.316   1.298   4.501  2.3666 -1.4592  0.5136
   65MOL   H44147929   5.204   1.102   4.296  1.1045 -1.2249 -0.7947
   65MOL   H44247930   5.378   1.139   4.306  0.8549  0.0838  1.8126
   65MOL   H44347931   5.272   1.258   4.128 -0.4950  0.7382 -0.1709
   65MOL   H44447932   5.348   1.368   4.253 -1.0846  0.5587  2.3093
   65MOL   H44547933   5.067   1.289   4.248 -0.4430  0.6858  0.7886
   65MOL   C44647934   5.110   1.481   4.195 -0.2287 -0.4407  0.2631
   65MOL   O44747935   5.200   1.564   4.167 -0.2131 -0.1226 -0.3017
   65MOL   C44847936   4.963   1.521   4.192 -0.0678 -0.6063 -0.0295
   65MOL   C44947937   4.897   1.593   4.067 -1.5656  0.5122  0.4024
   65MOL   C45047938   4.841   1.492   3.964 -0.0365  0.0439 -0.4304
   65MOL   C45147939   4.802   1.572   3.839  0.4256 -0.2477  0.8027
   65MOL   C45247940   4.767   1.477   3.730 -0.2157  0.8050 -1.0330
   65MOL   C45347941   4.693   1.543   3.615 -0.1371  0.2641 -0.4372
   65MOL   C45447942   4.699   1.460   3.483  0.0160  0.1198 -0.0327
   65MOL   C45547943   4.603   1.346   3.480 -1.2600 -1.1383 -0.8247
   65MOL   C45647944   4.602   1.285   3.338  0.1406  0.1771 -0.1257
   65MOL   C45747945   4.474   1.186   3.327  0.2940  0.2501  0.2351
   65MOL   C45847946   4.454   1.122   3.191 -0.2296  0.3218 -0.4584
   65MOL   N45947947   4.334   1.053   3.195  0.4336 -0.0242 -0.1939
   65MOL   H46047948   4.945   1.591   4.273 -0.3121  0.1359 -0.7167
   65MOL   H46147949   4.897   1.437   4.211  0.0608 -0.9197 -0.9179
   65MOL   H46247950   4.818   1.660   4.099 -0.1219  2.2790  0.3292
   65MOL   H46347951   4.980   1.646   4.022 -1.2046 -0.3316  0.0734
   65MOL   H46447952   4.757   1.445   4.015 -0.8610  2.4451  0.5124
   65MOL   H46547953   4.904   1.405   3.948  1.2307  0.9389 -0.3221
   65MOL   H46647954   4.716   1.636   3.859  0.3556  0.9176 -2.7672
   65MOL   H46747955   4.883   1.634   3.800  0.3929 -0.3176  0.6216
   65MOL   H46847956   4.701   1.398   3.764 -1.7009  2.1818 -0.6125
   65MOL   H46947957   4.855   1.429   3.689 -1.5942 -1.9402 -0.9056
   65MOL   H47047958   4.735   1.638   3.584 -0.7974  0.9564  0.7336
   65MOL   H47147959   4.592   1.568   3.647  0.3493  2.8630 -0.8217
   65MOL   H47247960   4.802   1.442   3.454  0.4120 -0.1469  1.5162
   65MOL   H47347961   4.669   1.526   3.402 -1.3834 -0.7098 -0.2249
   65MOL   H47447962   4.502   1.385   3.489 -0.9418  0.5293 -3.8730
   65MOL   H47547963   4.620   1.270   3.557 -0.7321 -0.4307 -0.2320
   65MOL   H47647964   4.701   1.242   3.325  0.2124  0.2169  0.2575
   65MOL   H47747965   4.597   1.366   3.265 -0.5103  0.6078  0.3812
   65MOL   H47847966   4.380   1.237   3.349  0.0274 -0.3971  0.6350
   65MOL   H47947967   4.476   1.107   3.403 -0.7978 -0.0312 -0.0107
   65MOL   H48047968   4.533   1.049   3.174 -0.8153 -0.1172 -1.2840
   65MOL   H48147969   4.451   1.190   3.106 -0.8343 -0.5134 -1.1188
   65MOL   H48247970   4.336   0.956   3.220  0.0160  0.6542  2.6691
   65MOL   C48347971   4.217   1.100   3.149  0.4493  0.3949  0.5135
   65MOL   O48447972   4.202   1.212   3.100 -0.5447  0.2901  0.0894
   65MOL   C48547973   4.091   1.001   3.156  0.2107 -0.4486  1.2100
   65MOL   C48647974   4.047   0.967   3.008  0.0039 -0.1174  0.8157
   65MOL   C48747975   3.956   0.845   3.008  0.4856 -0.2511 -0.3220
   65MOL   C48847976   3.825   0.853   3.086 -0.7723 -0.7297 -0.6818
   65MOL   C48947977   3.728   0.743   3.054 -0.8222  1.3558 -0.3973
   65MOL   C49047978   3.605   0.721   3.149  0.1467 -0.3958 -0.2345
   65MOL   C49147979   3.491   0.817   3.131  0.1957 -0.1447 -0.2178
   65MOL   C49247980   3.387   0.819   3.236  0.0614 -0.1342 -0.7228
   65MOL   C49347981   3.277   0.921   3.194 -0.4848 -0.6229 -0.1170
   65MOL   C49447982   3.161   0.928   3.291  0.1248 -0.3695  0.0539
   65MOL   C49547983   3.056   1.029   3.243 -0.2160 -0.0640  0.9264
   65MOL   N49647984   3.092   1.170   3.277 -0.6606  0.3165 -0.5840
   65MOL   H49747985   4.011   1.057   3.205  0.1757 -0.0569  0.7161
   65MOL   H49847986   4.113   0.916   3.220  0.9913 -2.5228 -1.7325
   65MOL   H49947987   3.997   1.052   2.962 -2.3964 -0.5099  2.6074
   65MOL   H50047988   4.140   0.942   2.956  0.9821 -0.2428  2.5677
   65MOL   H50147989   4.013   0.756   3.037  0.8745  0.8459  2.4022
   65MOL   H50247990   3.917   0.816   2.910 -1.1543 -0.0277  0.2441
   65MOL   H50347991   3.845   0.861   3.193 -1.9013 -1.8728 -0.3826
   65MOL   H50447992   3.773   0.947   3.066  0.6230 -0.2984 -2.3916
   65MOL   H50547993   3.790   0.653   3.050 -1.2723  1.0737 -1.1133
   65MOL   H50647994   3.691   0.761   2.953  0.7403  0.7247 -1.0958
   65MOL   H50747995   3.634   0.718   3.254  0.0473 -0.8868 -0.2216
   65MOL   H50847996   3.567   0.623   3.120  0.1624 -0.6539  0.6199
   65MOL   H50947997   3.443   0.806   3.034  0.1146  2.7576 -0.5422
   65MOL   H51047998   3.536   0.916   3.129 -1.1392  0.5094  1.5307
   65MOL   H51147999   3.421   0.840   3.337 -0.6427 -1.3622 -0.2198
   65MOL   H51248000   3.339   0.722   3.248  0.7695 -0.3928  0.0727
   65MOL   H51348001   3.240   0.916   3.091  0.6636  2.0509 -0.6818
   65MOL   H51448002   3.333   1.014   3.200  1.6607 -1.8891  0.0386
   65MOL   H51548003   3.202   0.965   3.385 -0.3282 -0.9388  0.4770
   65MOL   H51648004   3.127   0.826   3.308  0.7142 -0.6324 -0.3287
   65MOL   H51748005   2.960   1.005   3.289 -1.2878 -0.6249 -1.5384
   65MOL   H51848006   3.042   0.998   3.139  0.5654  0.9496  0.5189
   65MOL   H51948007   3.147   1.208   3.201  0.1175  1.3226  0.4576
   65MOL   C52048008   3.055   1.235   3.392 -0.0948 -0.2055 -0.3827
   65MOL   O52148009   3.000   1.178   3.488  0.0250  0.1278 -0.5718
   65MOL   C52248010   3.092   1.388   3.411  0.7953  0.6607  0.9109
   65MOL   C52348011   3.157   1.425   3.545 -0.0571 -0.5887  0.2015
   65MOL   C52448012   3.175   1.578   3.557  0.4063 -0.0884 -0.4076
   65MOL   C52548013   3.275   1.646   3.464 -0.3735  0.3941  0.7033
   65MOL   C52648014   3.204   1.706   3.342  0.0449 -0.0120 -0.1674
   65MOL   C52748015   3.244   1.851   3.307 -0.7151 -1.0441  0.2236
   65MOL   C52848016   3.388   1.872   3.259  0.0447  0.4120  0.3549
   65MOL   C52948017   3.405   1.822   3.112 -0.3431 -0.3047 -0.6671
   65MOL   C53048018   3.516   1.892   3.029  0.1774  0.4638  0.3050
   65MOL   C53148019   3.532   1.825   2.895 -0.7330 -0.6039  0.3289
   65MOL   C53248020   3.620   1.909   2.797  0.2192 -0.1208 -0.2656
   65MOL   N53348021   3.660   1.840   2.679 -0.2064 -0.3322  0.4604
   65MOL   H53448022   2.996   1.440   3.420  0.9728  1.3104 -0.8805
   65MOL   H53548023   3.148   1.429   3.328  0.1981  1.1239  0.7380
   65MOL   H53648024   3.109   1.373   3.628  1.6523 -0.8461  1.0296
   65MOL   H53748025   3.258   1.386   3.548  1.0528  2.2510  1.1101
   65MOL   H53848026   3.222   1.587   3.655 -1.7183 -0.6655  0.7069
   65MOL   H53948027   3.075   1.622   3.564 -0.2810 -1.4254 -1.6257
   65MOL   H54048028   3.305   1.735   3.519  2.7358 -1.1923  1.6973
   65MOL   H54148029   3.371   1.598   3.446 -1.1550 -0.7373 -0.4850
   65MOL   H54248030   3.096   1.711   3.358  0.1019  1.5734 -0.1869
   65MOL   H54348031   3.206   1.646   3.251 -0.3678  0.3488 -0.4153
   65MOL   H54448032   3.236   1.908   3.400  1.6708 -0.6047  0.1903
   65MOL   H54548033   3.175   1.898   3.237 -1.6085 -2.8941 -0.1757
   65MOL   H54648034   3.461   1.830   3.328  0.4087  1.5627  0.6858
   65MOL   H54748035   3.413   1.978   3.263  0.5910  0.3851 -1.6630
   65MOL   H54848036   3.314   1.827   3.053  0.2589 -0.4663 -1.6279
   65MOL   H54948037   3.423   1.714   3.116 -2.2409 -0.6884 -1.8209
   65MOL   H55048038   3.615   1.887   3.075  0.8418 -2.2121 -1.3410
   65MOL   H55148039   3.482   1.995   3.018 -0.3200  0.1462 -1.2485
   65MOL   H55248040   3.429   1.822   2.858 -1.6349  0.4782  2.6754
   65MOL   H55348041   3.582   1.728   2.900  2.5576  0.9898 -0.8132
   65MOL   H55448042   3.710   1.937   2.852  0.1590 -1.7838  0.7436
   65MOL   H55548043   3.566   2.001   2.777  0.6857  1.2984  4.4387
   65MOL   H55648044   3.755   1.806   2.672  0.6831  1.8518  1.5026
   65MOL   C55748045   3.575   1.814   2.578  0.1265  0.2161  0.3174
   65MOL   O55848046   3.449   1.841   2.579  0.3023 -0.3266  0.2120
   65MOL   C55948047   3.633   1.758   2.455  0.5009 -0.6867 -0.1583
   65MOL   C56048048   3.532   1.706   2.350 -0.0028  0.1511  0.0791
   65MOL   C56148049   3.604   1.669   2.213 -0.0560  0.0094 -0.1534
   65MOL   C56248050   3.524   1.571   2.127  0.0631  0.1641  0.4636
   65MOL   C56348051   3.602   1.521   2.001  0.1305 -0.9507 -0.6146
   65MOL   C56448052   3.512   1.442   1.904 -0.2189  0.0940  0.8706
   65MOL   C56548053   3.576   1.387   1.772 -0.2973 -0.4894 -0.4673
   65MOL   C56648054   3.489   1.293   1.685  0.0142 -0.5181  0.1699
   65MOL   C56748055   3.547   1.259   1.543  0.2177  0.2225  0.6493
   65MOL   C56848056   3.675   1.166   1.553 -0.1818 -0.6579 -0.1350
   65MOL   C56948057   3.701   1.104   1.420 -0.7882 -0.0023  0.1786
   65MOL   N57048058   3.812   1.017   1.432  0.5166  0.3975  0.2435
   65MOL   H57148059   3.710   1.688   2.487  0.9294  0.2324  0.8187
   65MOL   H57248060   3.694   1.841   2.419  0.0020  0.6183  1.9281
   65MOL   H57348061   3.479   1.618   2.387 -0.9438  0.7348  0.1340
   65MOL   H57448062   3.450   1.773   2.323 -0.2301  0.1870  0.8419
   65MOL   H57548063   3.699   1.618   2.230  0.6571  1.3387 -0.0818
   65MOL   H57648064   3.636   1.752   2.150  0.2928 -2.2432 -3.0615
   65MOL   H57748065   3.487   1.483   2.179 -1.4749  0.4629 -0.0784
   65MOL   H57848066   3.431   1.623   2.104 -0.4938 -1.8198 -1.9298
   65MOL   H57948067   3.681   1.458   2.043 -1.4228 -1.2923  1.9437
   65MOL   H58048068   3.649   1.609   1.958  2.5655 -2.1628 -0.5359
   65MOL   H58148069   3.424   1.502   1.879 -0.0069  1.2310  2.7439
   65MOL   H58248070   3.471   1.356   1.957 -0.2596  1.2618  2.7987
   65MOL   H58348071   3.675   1.350   1.799  0.3308  0.2134 -1.7629
   65MOL   H58448072   3.601   1.474   1.711 -0.8746 -0.9507 -1.3698
   65MOL   H58548073   3.383   1.316   1.685 -0.1923 -1.3535  2.7155
   65MOL   H58648074   3.481   1.205   1.748 -1.0541 -0.3628  0.2595
   65MOL   H58748075   3.570   1.354   1.495 -1.8537  0.2968 -0.2238
   65MOL   H58848076   3.467   1.214   1.485 -0.5403  2.7718 -0.3154
   65MOL   H58948077   3.653   1.095   1.633 -0.2256 -0.9089 -0.3713
   65MOL   H59048078   3.759   1.211   1.606  0.3490 -0.5620 -1.0400
   65MOL   H59148079   3.733   1.185   1.354 -0.8221 -1.0106 -1.1129
   65MOL   H59248080   3.625   1.041   1.374 -1.2176 -1.4637  2.8381
   65MOL   H59348081   3.846   0.981   1.520 -3.1721 -2.6142  0.5277
   65MOL   C59448082   3.895   0.988   1.330  0.6156 -0.5570  0.4858
   65MOL   O59548083   3.881   1.028   1.212  0.0309 -0.4745 -0.2586
   65MOL   C59648084   4.013   0.906   1.358 -0.2058 -0.0108  0.0961
   65MOL   C59748085   4.104   0.861   1.242  0.0204 -0.0344  0.4397
   65MOL   C59848086   4.059   0.727   1.175 -0.7050 -0.4212  0.0116
   65MOL   C59948087   3.947   0.736   1.068  0.5192  0.3081 -0.1378
   65MOL   C60048088   3.862   0.607   1.046  0.2198 -0.1080 -0.4007
   65MOL   C60148089   3.795   0.549   1.174 -0.2178  0.2437  0.1208
   65MOL   C60248090   3.732   0.405   1.158 -0.3583 -0.0703  0.7788
   65MOL   C60348091   3.642   0.361   1.269  1.0292  0.1889  0.5874
   65MOL   C60448092   3.607   0.214   1.258  0.5848  0.2534  0.0709
   65MOL   C60548093   3.718   0.126   1.324 -0.0238 -0.5444 -0.2221
   65MOL   C60648094   3.721   7.670   1.286 -0.5464 -0.4000  0.0774
   65MOL   N60748095   3.837   7.603   1.341  0.4361 -0.2037  0.8083
   65MOL   H60848096   3.992   0.826   1.428 -0.9191  0.2328  0.1625
   65MOL   H60948097   4.072   0.978   1.415 -0.9011  0.8967 -0.3162
   65MOL   H61048098   4.100   0.934   1.161  0.5855 -0.3353  0.1416
   65MOL   H61148099   4.206   0.856   1.279  1.3076 -0.1086 -3.0112
   65MOL   H61248100   4.033   0.669   1.263  0.0480 -1.1475 -0.2436
   65MOL   H61348101   4.153   0.686   1.141  0.2785  0.8363  1.1533
   65MOL   H61448102   3.879   0.807   1.117  0.9673 -0.9248  2.3874
   65MOL   H61548103   3.974   0.793   0.979 -0.5398  2.1787  0.7040
   65MOL   H61648104   3.927   0.531   1.002  1.4744  0.3059  0.7114
   65MOL   H61748105   3.785   0.627   0.972  1.4983  1.0030 -1.4588
   65MOL   H61848106   3.729   0.624   1.219 -1.0934 -0.6104  0.2621
   65MOL   H61948107   3.876   0.532   1.245 -1.1015 -0.9959  0.8502
   65MOL   H62048108   3.807   0.328   1.144  0.3431  0.7983 -0.3737
   65MOL   H62148109   3.676   0.403   1.064  1.7840 -3.0791 -0.5062
   65MOL   H62248110   3.557   0.428   1.282  1.5113  0.8539  0.3849
   65MOL   H62348111   3.702   0.379   1.359  0.8939 -2.8335  1.3299
   65MOL   H62448112   3.586   0.195   1.153  2.5485  2.5976 -0.7877
   65MOL   H62548113   3.517   0.199   1.318  2.0178  0.8134  2.4141
   65MOL   H62648114   3.724   0.138   1.432  1.1304 -2.6159 -0.0338
   65MOL   H62748115   3.820   0.153   1.296 -1.0732  1.7607 -1.9561
   65MOL   H62848116   3.706   7.673   1.178  1.3574 -1.3028 -0.2331
   65MOL   H62948117   3.633   7.615   1.320  0.3765 -1.9936 -0.0752
   65MOL   H63048118   3.911   7.584   1.276 -1.1078  0.4107 -1.1830
   65MOL   C63148119   3.858   7.569   1.463  0.1030  0.1624  0.0886
   65MOL   O63248120   3.773   7.568   1.553  0.3808  0.3764  0.2814
   65MOL   C63348121   3.999   7.504   1.496 -0.2792 -0.2571  0.2231
   65MOL   C63448122   4.041   7.518   1.643 -0.7740 -0.9304  0.2725
   65MOL   C63548123   4.174   7.447   1.673 -0.0700  0.4354  0.1696
   65MOL   C63648124   4.203   7.411   1.825  0.1049  0.1051 -0.0585
   65MOL   C63748125   4.298   7.294   1.831 -0.2028 -0.1914  0.2448
   65MOL   C63848126   4.236   7.156   1.807 -0.8274 -0.0438  0.2509
   65MOL   C63948127   4.319   7.044   1.750  0.4555  0.1940  0.3808
   65MOL   C64048128   4.260   6.902   1.756  0.4655  1.0539 -0.0334
   65MOL   C64148129   4.361   6.786   1.727 -0.5600 -0.2092  0.5882
   65MOL   C64248130   4.463   6.769   1.840 -0.4254  1.0507  0.6282
   65MOL   C64348131   4.572   6.666   1.798 -0.2776  0.0441  0.0641
   65MOL   N64448132   4.682   6.664   1.894  0.0857 -0.5704 -0.1649
   65MOL   H64548133   4.076   7.544   1.431  0.8502 -2.0060  0.4299
   65MOL   H64648134   4.004   7.397   1.474  2.1979  0.6700 -4.3197
   65MOL   H64748135   4.053   7.624   1.667 -2.2754 -0.3927 -1.1848
   65MOL   H64848136   3.966   7.472   1.708 -1.3010  0.1812  0.4735
   65MOL   H64948137   4.260   7.494   1.624 -0.1598  0.6498  0.2148
   65MOL   H65048138   4.172   7.355   1.615 -1.1945 -0.6858  1.9515
   65MOL   H65148139   4.246   7.504   1.863  1.7749 -0.6276 -0.1206
   65MOL   H65248140   4.110   7.386   1.876 -0.4337 -0.5870 -1.3616
   65MOL   H65348141   4.339   7.280   1.931 -0.0772  2.4069  0.5823
   65MOL   H65448142   4.380   7.309   1.760  1.4031  0.4786  2.1990
   65MOL   H65548143   4.155   7.169   1.735  0.0720  3.2066 -0.2744
   65MOL   H65648144   4.182   7.131   1.898 -0.1411  1.0993  0.9752
   65MOL   H65748145   4.407   7.044   1.815  0.3058 -3.8037  0.7073
   65MOL   H65848146   4.348   7.062   1.647 -4.2370 -1.2184 -1.3057
   65MOL   H65948147   4.177   6.896   1.686 -0.6838 -3.4271  1.5494
   65MOL   H66048148   4.221   6.884   1.856 -0.6610 -0.6584 -0.7599
   65MOL   H66148149   4.415   6.809   1.635 -2.8192  0.1766 -0.6794
   65MOL   H66248150   4.301   6.697   1.711 -0.7186  0.0976 -0.5606
   65MOL   H66348151   4.408   6.724   1.922 -1.4787  0.0564 -0.6074
   65MOL   H66448152   4.510   6.861   1.875 -0.5694  1.9862 -1.5436
   65MOL   H66548153   4.610   6.680   1.697  1.0965 -0.9462  0.4336
   65MOL   H66648154   4.540   6.562   1.793  1.4967 -0.5694  1.0221
   65MOL   H66748155   4.688   6.745   1.954 -1.2053 -0.6440  0.0836
   65MOL   C66848156   4.775   6.573   1.912 -0.4395  0.2580 -0.1258
   65MOL   O66948157   4.776   6.465   1.844  0.1445 -0.6425 -0.5738
   65MOL   C67048158   4.880   6.600   2.020  0.6401 -0.1049 -0.4180
   65MOL   C67148159   4.909   6.472   2.112 -0.6439  0.9202  0.2309
   65MOL   C67248160   4.831   6.464   2.244 -0.2390 -0.3336 -0.2098
   65MOL   C67348161   4.871   6.335   2.311  0.2875  0.9809 -0.0420
   65MOL   C67448162   4.796   6.310   2.437 -0.0294 -0.4904  0.1335
   65MOL   C67548163   4.643   6.322   2.424  0.0325 -0.0835 -0.2144
   65MOL   C67648164   4.569   6.286   2.554 -0.7535 -0.1019  0.1232
   65MOL   C67748165   4.421   6.294   2.533 -0.6910 -0.0101  0.9237
   65MOL   C67848166   4.338   6.260   2.655  0.0150  0.0988  0.8694
   65MOL   C67948167   4.182   6.261   2.624 -0.0485  0.7948  0.0131
   65MOL   C68048168   4.103   6.206   2.748 -1.2120  0.1153  0.1850
   65MOL   N68148169   4.070   6.322   2.833  0.0401 -0.0541 -0.4138
   65MOL   H68248170   4.841   6.679   2.084  1.3182  1.3050 -1.7091
   65MOL   H68348171   4.973   6.634   1.974  0.7439  1.6744  1.0498
   65MOL   H68448172   4.916   6.373   2.066 -0.6457  0.0376  2.0733
   65MOL   H68548173   5.012   6.485   2.145 -0.4737  3.5641 -1.2054
   65MOL   H68648174   4.727   6.462   2.210 -0.5677  2.2520  0.5236
   65MOL   H68748175   4.849   6.554   2.303 -1.1835  0.8099 -1.6192
   65MOL   H68848176   4.866   6.260   2.232  0.2229 -0.3581  1.2191
   65MOL   H68948177   4.977   6.312   2.326  0.2424  0.9772  0.2613
   65MOL   H69048178   4.836   6.379   2.512  0.5277  2.6514 -2.9441
   65MOL   H69148179   4.829   6.213   2.474  1.1241 -0.5440 -0.9905
   65MOL   H69248180   4.609   6.248   2.351 -0.7744 -0.2498  0.3221
   65MOL   H69348181   4.612   6.424   2.399  0.2706 -0.0219 -0.2546
   65MOL   H69448182   4.606   6.361   2.624  0.4182 -0.4572 -0.0979
   65MOL   H69548183   4.595   6.186   2.591  1.0710  0.4115  0.2760
   65MOL   H69648184   4.402   6.222   2.453  0.8776  2.6532 -1.9666
   65MOL   H69748185   4.406   6.394   2.493  1.0037  0.0962  0.5167
   65MOL   H69848186   4.351   6.330   2.738 -0.5929  2.1184 -0.6986
   65MOL   H69948187   4.367   6.165   2.701 -1.3637 -1.3380 -1.1470
   65MOL   H70048188   4.157   6.198   2.538  1.5369 -1.3171  1.0467
   65MOL   H70148189   4.153   6.365   2.609  0.1179  0.8239 -0.1004
   65MOL   H70248190   4.170   6.138   2.802 -2.0876 -1.4294 -0.6241
   65MOL   H70348191   4.019   6.142   2.722 -0.5503 -0.1561 -1.3272
   65MOL   H70448192   4.149   6.353   2.888 -0.0653 -1.4384  0.5517
   65MOL   C70548193   3.948   6.365   2.857  0.1836  0.5380  0.4514
   65MOL   O70648194   3.851   6.304   2.819 -0.1131  0.0910  0.7016
   65MOL   C70748195   3.938   6.498   2.932 -0.1680 -0.5748 -0.6065
   65MOL   C70848196   3.801   6.569   2.962  0.4319 -0.4327 -0.8858
   65MOL   C70948197   3.749   6.510   3.098  0.3417  0.0509 -0.4829
   65MOL   C71048198   3.620   6.584   3.137 -0.3185  0.3971 -0.1417
   65MOL   C71148199   3.526   6.503   3.234 -0.4339 -0.1956 -0.0908
   65MOL   C71248200   3.388   6.570   3.269 -0.0099  0.7760 -0.0081
   65MOL   C71348201   3.301   6.592   3.143  0.2293 -0.0664  0.0073
   65MOL   C71448202   3.162   6.634   3.197 -0.3944 -0.1039 -0.0238
   65MOL   C71548203   3.036   6.589   3.113 -0.7409 -0.2280  0.1196
   65MOL   C71648204   2.907   6.662   3.133  0.4258  0.4094  0.0757
   65MOL   C71748205   2.785   6.595   3.057 -0.8762  0.0294 -0.3693
   65MOL   N71848206   2.743   6.479   3.133  0.2030 -0.5625  0.3952
   65MOL   H71948207   3.993   6.570   2.872 -0.0705 -1.1625 -1.2249
   65MOL   H72048208   3.996   6.482   3.023  1.5512 -0.1574 -1.6030
   65MOL   H72148209   3.807   6.677   2.975  0.8393 -0.5490 -0.0320
   65MOL   H72248210   3.732   6.554   2.879  0.8979 -0.9191 -1.1880
   65MOL   H72348211   3.825   6.515   3.175 -0.0582  1.4906 -0.1666
   65MOL   H72448212   3.726   6.403   3.092 -1.3506  0.4420 -1.3432
   65MOL   H72548213   3.648   6.684   3.171  0.5020 -0.5450  1.9956
   65MOL   H72648214   3.559   6.593   3.047 -1.3308 -2.9424  0.1634
   65MOL   H72748215   3.571   6.480   3.330 -1.7923  1.2566  0.9204
   65MOL   H72848216   3.511   6.405   3.190 -2.2012 -1.2222  2.6815
   65MOL   H72948217   3.400   6.669   3.313 -2.0412  0.4495  1.3804
   65MOL   H73048218   3.347   6.509   3.349  1.7162  0.6408  0.7918
   65MOL   H73148219   3.284   6.494   3.098  0.1365 -1.3112  2.5951
   65MOL   H73248220   3.342   6.653   3.063 -1.6116  2.8776  1.2305
   65MOL   H73348221   3.157   6.742   3.208  2.4348  0.0736  0.0244
   65MOL   H73448222   3.135   6.590   3.294 -1.5255 -0.9766 -0.7286
   65MOL   H73548223   3.030   6.480   3.113 -1.4993 -0.2065  2.1931
   65MOL   H73648224   3.054   6.611   3.008  1.4867  2.4814  0.9976
   65MOL   H73748225   2.914   6.758   3.082 -0.1833 -1.1382 -3.0012
   65MOL   H73848226   2.869   6.666   3.236 -0.5086  2.4671 -0.3054
   65MOL   H73948227   2.815   6.571   2.955 -1.8033  0.0516 -0.6500
   65MOL   H74048228   2.712   6.671   3.030 -2.2631 -1.1537  0.0200
   65MOL   H74148229   2.674   6.428   3.081  0.4657 -0.8354  0.3124
   65MOL   H74248230   2.709   6.509   3.224  1.2892 -1.3901  1.0856
   66MOL     C148231   1.793   7.646   6.144 -0.6553 -0.2239  0.5158
   66MOL     O248232   1.780   0.037   6.055 -0.1777 -0.0373 -0.0272
   66MOL     C348233   1.716   7.511   6.152  0.1626  0.1387  0.4888
   66MOL     C448234   1.652   7.459   6.028  1.0493 -0.0221 -0.5119
   66MOL     C548235   1.755   7.436   5.912  0.1039  0.0787 -0.4028
   66MOL     C648236   1.882   7.353   5.935  0.0754  0.2484  0.2981
   66MOL     C748237   1.851   7.206   5.951  0.0940 -0.1676  0.3412
   66MOL     C848238   1.982   7.116   5.965  0.8779 -0.5784 -0.4201
   66MOL     C948239   2.024   7.115   6.109  0.6122  0.6016 -0.1731
   66MOL    C1048240   2.161   7.049   6.125  0.4306  0.5464  0.1049
   66MOL    C1148241   2.282   7.141   6.088 -0.2246 -0.4076 -0.9592
   66MOL    C1248242   2.415   7.076   6.131  1.0288  0.1667 -0.4850
   66MOL    C1348243   2.532   7.162   6.088  0.6731 -0.3388  0.3327
   66MOL    N1448244   2.655   7.115   6.168  0.2190  0.3462 -0.3106
   66MOL    H1548245   1.637   7.519   6.226  0.2520  1.3734  0.4648
   66MOL    H1648246   1.781   7.435   6.194  2.2112  0.5144 -1.8300
   66MOL    H1748247   1.604   7.370   6.069  0.4350 -0.3420 -1.8855
   66MOL    H1848248   1.582   7.531   5.986 -1.5835 -0.3168  3.1700
   66MOL    H1948249   1.783   7.528   5.861  0.2934  0.2958  0.0926
   66MOL    H2048250   1.705   7.385   5.829 -0.4250 -1.6874  0.9714
   66MOL    H2148251   1.950   7.371   5.852 -0.8970  1.2593 -0.2938
   66MOL    H2248252   1.941   7.392   6.018 -0.0303  1.4594 -0.1848
   66MOL    H2348253   1.812   7.178   5.853  1.6211 -3.0408  0.5087
   66MOL    H2448254   1.778   7.170   6.023  0.2333 -0.2559  0.4377
   66MOL    H2548255   2.063   7.152   5.902  0.0003  0.4657 -0.9870
   66MOL    H2648256   1.959   7.018   5.925 -2.1922  0.9518 -2.6257
   66MOL    H2748257   1.948   7.062   6.168  0.1501  0.4671 -0.8886
   66MOL    H2848258   2.029   7.212   6.158 -0.2781  0.4816  0.1734
   66MOL    H2948259   2.174   6.961   6.063 -0.6196  0.1580  0.4254
   66MOL    H3048260   2.165   7.015   6.229 -0.9660 -1.3925 -0.4628
   66MOL    H3148261   2.271   7.241   6.130  1.2561 -0.7511  0.2770
   66MOL    H3248262   2.290   7.161   5.981  0.3555  0.1238 -0.8162
   66MOL    H3348263   2.421   6.977   6.085 -1.0350  0.0923 -0.6537
   66MOL    H3448264   2.413   7.064   6.239 -0.2043  0.1451 -0.5004
   66MOL    H3548265   2.511   7.257   6.137 -0.9979 -0.9149  0.7459
   66MOL    H3648266   2.544   7.174   5.980 -1.4544 -2.0090 -0.1320
   66MOL    H3748267   2.638   7.082   6.262 -0.3690 -0.3961 -0.6754
   66MOL    H3848268   1.866   7.667   6.221 -0.6119 -0.7850  0.6261
   66MOL    C3948269   2.776   7.119   6.115 -0.6231 -0.4866  0.8985
   66MOL    O4048270   2.800   7.173   6.004 -0.3740  1.1942  0.0059
   66MOL    C4148271   2.888   7.051   6.191  0.1814 -0.3065 -0.2348
   66MOL    C4248272   2.989   6.989   6.096 -0.2714  0.2413 -0.7155
   66MOL    C4348273   3.083   6.894   6.170 -0.3378 -0.0984 -0.2306
   66MOL    C4448274   3.005   6.767   6.221 -0.1184 -0.3953  0.8530
   66MOL    C4548275   3.081   6.677   6.322  0.2971  0.2392  0.5514
   66MOL    C4648276   3.009   6.552   6.369 -0.2775  0.2164  0.0175
   66MOL    C4748277   2.876   6.577   6.442  0.4804 -0.0826  0.4836
   66MOL    C4848278   2.801   6.451   6.484  0.1845  0.5568  0.4463
   66MOL    C4948279   2.863   6.362   6.599  0.0584 -0.2188  0.0262
   66MOL    C5048280   2.847   6.210   6.573  0.6105 -0.4241  0.0283
   66MOL    C5148281   2.867   6.134   6.706 -0.5590 -0.0116  0.7579
   66MOL    N5248282   2.854   5.994   6.675  0.7631  0.2329  0.1759
   66MOL    H5348283   2.840   6.980   6.258  1.3725 -0.1444  0.7985
   66MOL    H5448284   2.931   7.139   6.238  0.6415  0.7965 -2.6167
   66MOL    H5548285   2.948   6.938   6.008  1.2033 -0.4731 -0.9916
   66MOL    H5648286   3.046   7.074   6.061 -0.3773  0.0734 -1.3143
   66MOL    H5748287   3.128   6.956   6.247 -0.4556  1.6640 -1.5532
   66MOL    H5848288   3.164   6.867   6.102 -0.1783  1.0937 -0.5089
   66MOL    H5948289   2.908   6.787   6.267 -0.1599 -0.5760  0.8425
   66MOL    H6048290   2.974   6.705   6.137  1.3925  0.7460 -0.5831
   66MOL    H6148291   3.091   6.740   6.411 -1.5167 -1.9491  2.3749
   66MOL    H6248292   3.178   6.645   6.283 -0.3107 -0.6929 -0.1988
   66MOL    H6348293   3.067   6.503   6.447  0.3893  0.5137 -0.2883
   66MOL    H6448294   2.994   6.482   6.287  0.7599  2.5292 -2.2201
   66MOL    H6548295   2.808   6.652   6.403  0.5748 -1.1386 -1.7940
   66MOL    H6648296   2.901   6.629   6.535  1.3604  1.4213 -0.5879
   66MOL    H6748297   2.805   6.393   6.392  1.9530 -0.0346  0.8697
   66MOL    H6848298   2.695   6.472   6.495 -0.8844 -2.4717 -3.0821
   66MOL    H6948299   2.811   6.369   6.695  0.9391 -1.0379  0.5735
   66MOL    H7048300   2.969   6.388   6.603 -0.1291  0.8271 -1.5686
   66MOL    H7148301   2.912   6.164   6.499  2.4396  1.1570  0.6144
   66MOL    H7248302   2.742   6.196   6.549  0.2200  1.1786  0.6852
   66MOL    H7348303   2.803   6.160   6.790 -0.6945  0.1500  0.6038
   66MOL    H7448304   2.971   6.154   6.734 -0.0626 -1.8475  0.2994
   66MOL    H7548305   2.895   5.970   6.586  0.3214 -0.0539  0.0519
   66MOL    C7648306   2.767   5.900   6.727  0.1480 -0.2255  0.0664
   66MOL    O7748307   2.696   5.922   6.829 -0.3281 -0.2693  0.2388
   66MOL    C7848308   2.757   5.770   6.647 -0.0635  0.2943 -0.0084
   66MOL    C7948309   2.817   5.644   6.711 -0.2762  0.0976 -0.2491
   66MOL    C8048310   2.971   5.665   6.709 -1.0497  0.3478  0.3530
   66MOL    C8148311   3.055   5.551   6.765 -0.1567  0.6974 -0.3905
   66MOL    C8248312   3.214   5.577   6.758  0.2835 -0.5438  0.0925
   66MOL    C8348313   3.304   5.473   6.812 -0.3311 -0.0430 -0.7917
   66MOL    C8448314   3.453   5.513   6.821 -0.3101 -0.5510  0.0970
   66MOL    C8548315   3.521   5.519   6.682 -0.0576  0.4114  0.0919
   66MOL    C8648316   3.668   5.504   6.692 -0.1905 -0.6835  0.2839
   66MOL    C8748317   3.737   5.512   6.557 -0.5646 -0.3941 -0.1636
   66MOL    C8848318   3.809   5.644   6.518 -0.3107  0.1047  0.1869
   66MOL    N8948319   3.836   5.642   6.374 -0.2083  0.2366  0.6517
   66MOL    H9048320   2.801   5.771   6.547  2.2390  0.1352  0.9843
   66MOL    H9148321   2.651   5.745   6.651  0.2706 -1.1507  0.2052
   66MOL    H9248322   2.785   5.628   6.814 -0.3372  0.4455 -0.2130
   66MOL    H9348323   2.797   5.552   6.656  1.6718 -0.2413 -0.4278
   66MOL    H9448324   3.003   5.762   6.748  1.1274 -1.2937  2.8041
   66MOL    H9548325   3.006   5.679   6.607 -0.3364 -2.4927  0.1799
   66MOL    H9648326   3.025   5.537   6.869 -2.1125  0.8728 -0.9134
   66MOL    H9748327   3.049   5.460   6.705 -1.2710 -0.4915  1.4627
   66MOL    H9848328   3.240   5.673   6.801  2.7810 -1.0192 -0.2705
   66MOL    H9948329   3.242   5.586   6.653 -1.7306  2.2825 -0.2375
   66MOL   H10048330   3.306   5.382   6.752 -3.4067 -1.1545  0.6808
   66MOL   H10148331   3.282   5.440   6.914  0.3156  1.6700 -0.0791
   66MOL   H10248332   3.508   5.430   6.865  1.5392  0.8155  0.4265
   66MOL   H10348333   3.470   5.603   6.882 -0.9201 -0.5072  0.2038
   66MOL   H10448334   3.511   5.620   6.642 -0.6014 -0.1049 -1.0894
   66MOL   H10548335   3.482   5.440   6.618  1.9043 -1.4147  1.0952
   66MOL   H10648336   3.695   5.409   6.738 -1.3915 -0.0016  2.4504
   66MOL   H10748337   3.708   5.576   6.764 -1.5011  0.0706  0.2779
   66MOL   H10848338   3.659   5.491   6.483 -2.5164 -2.1836  2.3518
   66MOL   H10948339   3.804   5.427   6.549 -0.2505 -0.1090 -0.5722
   66MOL   H11048340   3.899   5.658   6.579 -1.0449  0.8545  1.1230
   66MOL   H11148341   3.756   5.734   6.549 -1.9044 -0.6095 -0.4662
   66MOL   H11248342   3.765   5.603   6.314 -0.0638 -1.7755  1.7672
   66MOL   C11348343   3.952   5.677   6.310 -0.4610 -0.1069 -0.1148
   66MOL   O11448344   3.968   5.672   6.191 -0.0438  0.2358  0.2140
   66MOL   C11548345   4.063   5.736   6.399 -0.9090 -0.5181  0.0450
   66MOL   C11648346   4.188   5.783   6.326  0.0469 -0.1897  0.5235
   66MOL   C11748347   4.303   5.815   6.427  0.2753 -0.7286  0.4321
   66MOL   C11848348   4.351   5.682   6.492 -0.5048  0.1404  0.1955
   66MOL   C11948349   4.456   5.699   6.606 -0.3110 -0.3168 -0.6686
   66MOL   C12048350   4.502   5.572   6.673 -0.5043 -0.1661  0.3852
   66MOL   C12148351   4.601   5.585   6.792  0.0158  0.5984 -0.5135
   66MOL   C12248352   4.639   5.443   6.847  0.1439  0.2833  0.2012
   66MOL   C12348353   4.525   5.377   6.934 -0.1959 -1.2577 -0.5891
   66MOL   C12448354   4.431   5.277   6.869  0.2285  0.2700 -0.5064
   66MOL   C12548355   4.314   5.238   6.970 -0.9421  0.9782  0.8259
   66MOL   N12648356   4.378   5.163   7.081  0.1411  0.6288  0.3953
   66MOL   H12748357   4.088   5.645   6.453  1.7757  0.6442  0.8481
   66MOL   H12848358   4.018   5.809   6.467 -1.1111  0.5160 -1.1688
   66MOL   H12948359   4.222   5.709   6.253 -0.6845 -0.6212  0.6247
   66MOL   H13048360   4.169   5.873   6.266 -0.9773  0.3935  1.6951
   66MOL   H13148361   4.257   5.877   6.503 -1.1309 -1.8969  0.5450
   66MOL   H13248362   4.386   5.863   6.375 -0.8197  0.4787 -0.2362
   66MOL   H13348363   4.276   5.614   6.533 -0.4057  0.7046  1.3222
   66MOL   H13448364   4.402   5.620   6.418  2.7102 -0.5851  2.9252
   66MOL   H13548365   4.406   5.760   6.682 -0.3881 -2.6828  1.2544
   66MOL   H13648366   4.540   5.754   6.562  0.5142 -0.0109  1.2101
   66MOL   H13748367   4.541   5.509   6.594 -0.8015 -3.0188  2.4416
   66MOL   H13848368   4.410   5.533   6.717 -0.9699 -0.3827 -0.7590
   66MOL   H13948369   4.567   5.662   6.862  2.6462  1.4823 -0.1782
   66MOL   H14048370   4.694   5.634   6.764 -0.0861  1.1427  0.0819
   66MOL   H14148371   4.726   5.448   6.912 -0.7620  0.9152  1.4098
   66MOL   H14248372   4.676   5.381   6.766  0.5314 -0.1948  0.7398
   66MOL   H14348373   4.464   5.450   6.986 -0.7256 -1.6302 -0.6918
   66MOL   H14448374   4.586   5.333   7.013  0.9355 -1.3518 -1.4928
   66MOL   H14548375   4.479   5.191   6.823 -1.3959 -1.5807  1.1774
   66MOL   H14648376   4.383   5.331   6.787 -1.2091 -0.4235 -0.1460
   66MOL   H14748377   4.243   5.174   6.919 -1.1543  2.2674 -0.5327
   66MOL   H14848378   4.263   5.327   7.007 -1.0919  1.1966  0.0973
   66MOL   H14948379   4.479   5.166   7.084  0.2291 -2.6185  1.9194
   66MOL   C15048380   4.293   5.101   7.161 -0.8298  0.3188  1.1019
   66MOL   O15148381   4.171   5.123   7.166 -0.2787 -0.0609 -0.2522
   66MOL   C15248382   4.361   4.994   7.257  0.0358 -0.5718 -0.1278
   66MOL   C15348383   4.358   4.844   7.216  0.5690  0.0412 -0.3491
   66MOL   C15448384   4.374   4.750   7.339 -0.3270 -0.2170  0.1397
   66MOL   C15548385   4.518   4.744   7.376 -0.2203  0.1983  1.7147
   66MOL   C15648386   4.591   4.633   7.292  0.2086 -0.3126 -0.4657
   66MOL   C15748387   4.735   4.619   7.341  0.3023  0.0363  0.0238
   66MOL   C15848388   4.808   4.502   7.264  0.3179 -0.5663 -0.3238
   66MOL   C15948389   4.849   4.534   7.118 -0.4297  0.8616  0.2858
   66MOL   C16048390   4.886   4.413   7.036  0.1328  0.5102  0.1769
   66MOL   C16148391   4.912   4.439   6.889 -0.2976  0.3376 -0.2899
   66MOL   C16248392   5.030   4.536   6.866  0.3215  0.0394  0.5882
   66MOL   N16348393   5.070   4.546   6.729  0.3639 -0.4552 -0.5379
   66MOL   H16448394   4.304   5.007   7.349 -0.3399  2.1519 -0.7035
   66MOL   H16548395   4.461   5.027   7.285  0.1217 -2.1889  1.5400
   66MOL   H16648396   4.256   4.823   7.184  0.6979  0.1141 -0.8048
   66MOL   H16748397   4.409   4.822   7.122 -2.2913  0.9960 -2.1796
   66MOL   H16848398   4.347   4.647   7.318 -0.7115 -0.1906  0.5071
   66MOL   H16948399   4.314   4.781   7.424 -0.3889  1.2086 -0.4106
   66MOL   H17048400   4.563   4.843   7.374  0.4213 -0.1047  0.1983
   66MOL   H17148401   4.523   4.714   7.481 -0.0502 -0.1751  1.6005
   66MOL   H17248402   4.584   4.675   7.191 -0.6730  0.1872 -0.2101
   66MOL   H17348403   4.541   4.537   7.306 -0.5965  0.3149  1.0952
   66MOL   H17448404   4.749   4.595   7.446  1.4109 -1.2856 -0.4075
   66MOL   H17548405   4.779   4.717   7.328 -1.0112  0.5053 -1.0297
   66MOL   H17648406   4.752   4.409   7.275 -0.9714  0.4253  1.9045
   66MOL   H17748407   4.898   4.474   7.319 -1.6719 -3.0199  1.8176
   66MOL   H17848408   4.936   4.599   7.127  0.0831  0.4521 -1.4882
   66MOL   H17948409   4.771   4.586   7.063 -0.5560 -0.1451 -0.5176
   66MOL   H18048410   4.800   4.347   7.047 -0.2725  1.2488  1.4844
   66MOL   H18148411   4.969   4.361   7.084 -0.8721  0.2987  1.7376
   66MOL   H18248412   4.820   4.463   6.836 -1.2599 -0.7309  0.8782
   66MOL   H18348413   4.938   4.346   6.839  0.9576  1.7265 -2.3095
   66MOL   H18448414   5.119   4.502   6.920 -1.4528 -1.2498  2.7763
   66MOL   H18548415   5.000   4.636   6.896 -0.3723  0.5025 -1.5685
   66MOL   H18648416   5.006   4.524   6.654 -1.8570 -3.0942  2.0169
   66MOL   C18748417   5.194   4.577   6.690  0.6492  0.1571 -0.0238
   66MOL   O18848418   5.275   4.626   6.771  0.2225 -0.2567  0.7090
   66MOL   C18948419   5.241   4.538   6.551 -0.5193  0.0299  0.4545
   66MOL   C19048420   5.275   4.654   6.457  0.1839  0.2498  1.0920
   66MOL   C19148421   5.168   4.764   6.450 -0.1931  0.1642  0.1412
   66MOL   C19248422   5.220   4.879   6.362 -0.0841 -0.4359 -1.0646
   66MOL   C19348423   5.108   4.982   6.332  0.0441  0.1248  0.2752
   66MOL   C19448424   5.122   5.052   6.196 -0.2875 -0.3205 -0.2176
   66MOL   C19548425   5.033   4.995   6.096  0.3596  0.0765  0.5978
   66MOL   C19648426   5.035   5.056   5.956  0.2831 -0.1482  0.0504
   66MOL   C19748427   4.927   4.997   5.863 -0.0056  0.2567 -0.0546
   66MOL   C19848428   4.936   5.073   5.725 -0.4039 -1.0001 -0.3398
   66MOL   C19948429   4.827   5.050   5.623  0.2335 -0.4612 -0.0853
   66MOL   N20048430   4.838   4.914   5.568 -0.5266 -0.3926 -0.6292
   66MOL   H20148431   5.162   4.472   6.513  0.2519 -0.5618 -0.1350
   66MOL   H20248432   5.326   4.472   6.566 -0.1896  0.6177  1.1609
   66MOL   H20348433   5.371   4.698   6.482  0.3074  0.1809  0.7373
   66MOL   H20448434   5.273   4.610   6.357 -0.9806  1.0500  0.7552
   66MOL   H20548435   5.152   4.801   6.551 -0.4496  1.1853 -0.2707
   66MOL   H20648436   5.072   4.727   6.414 -0.2199  1.7719 -1.4744
   66MOL   H20748437   5.311   4.920   6.408 -0.2792  0.5067 -1.5044
   66MOL   H20848438   5.259   4.833   6.272  0.3242 -1.1691 -0.5165
   66MOL   H20948439   5.101   5.044   6.421 -1.1581 -1.2872  1.1918
   66MOL   H21048440   5.014   4.927   6.329  0.5850 -0.9910  2.2633
   66MOL   H21148441   5.222   5.041   6.153  0.2220  0.0263  0.8526
   66MOL   H21248442   5.104   5.160   6.199  0.1390 -0.1275 -2.9064
   66MOL   H21348443   4.931   5.000   6.132  0.3313  1.0797  0.3748
   66MOL   H21448444   5.045   4.887   6.087 -0.9789 -0.0695  0.5071
   66MOL   H21548445   5.132   5.060   5.908  0.2922  1.1630  0.1627
   66MOL   H21648446   5.022   5.163   5.974  0.9405 -0.1573  0.5782
   66MOL   H21748447   4.823   4.997   5.897 -0.4025 -2.5141 -1.0949
   66MOL   H21848448   4.951   4.892   5.842 -1.7564 -0.3752  0.9581
   66MOL   H21948449   5.032   5.061   5.675 -0.6971  0.2987 -1.2379
   66MOL   H22048450   4.928   5.179   5.750 -1.4288 -1.3188  0.7287
   66MOL   H22148451   4.820   5.120   5.540  1.3536 -1.4732 -1.0430
   66MOL   H22248452   4.730   5.064   5.672 -1.0970  0.9064 -2.9655
   66MOL   H22348453   4.878   4.841   5.625  2.7248 -0.0170 -2.3039
   66MOL   C22448454   4.807   4.875   5.441  0.0460  1.0002  0.0703
   66MOL   O22548455   4.771   4.954   5.357 -0.2668 -0.1865 -0.6952
   66MOL   C22648456   4.824   4.726   5.394  0.4990 -0.0997 -0.5481
   66MOL   C22748457   4.874   4.707   5.253 -0.4824  0.3104 -0.1769
   66MOL   C22848458   5.003   4.779   5.226 -0.0956  0.1322  0.2800
   66MOL   C22948459   5.063   4.774   5.087  0.2966  1.0408 -0.5833
   66MOL   C23048460   5.122   4.642   5.050  0.0561  0.0542 -0.6708
   66MOL   C23148461   5.258   4.622   5.128 -0.7399 -0.0469  0.8388
   66MOL   C23248462   5.295   4.471   5.148 -0.3124  0.2943  0.4766
   66MOL   C23348463   5.416   4.446   5.243 -0.4633 -0.1434 -0.6172
   66MOL   C23448464   5.441   4.308   5.285  0.7683  0.0924  0.2524
   66MOL   C23548465   5.499   4.229   5.165 -0.0290  0.1040  0.3019
   66MOL   C23648466   5.543   4.087   5.201  0.5323 -0.3664  0.0824
   66MOL   N23748467   5.636   4.076   5.314  0.1746 -0.3290 -0.4006
   66MOL   H23848468   4.724   4.682   5.392 -0.2544  1.6073 -0.7800
   66MOL   H23948469   4.880   4.670   5.469 -1.9424  1.3117  2.4399
   66MOL   H24048470   4.897   4.604   5.227 -0.7623 -0.1853  1.4479
   66MOL   H24148471   4.800   4.740   5.180 -1.8593 -0.9802  0.6200
   66MOL   H24248472   5.079   4.735   5.290  1.5336  1.6647 -0.5742
   66MOL   H24348473   4.999   4.882   5.261 -0.2684 -0.4751  2.0626
   66MOL   H24448474   4.992   4.792   5.006 -0.6712 -1.9628 -0.4642
   66MOL   H24548475   5.144   4.845   5.071  0.1694  1.4266  0.4280
   66MOL   H24648476   5.141   4.650   4.943 -1.0930  1.4766 -0.7867
   66MOL   H24748477   5.059   4.556   5.074 -0.9677  0.2496 -2.5568
   66MOL   H24848478   5.250   4.657   5.231 -0.0423 -0.2223  0.9550
   66MOL   H24948479   5.347   4.658   5.077 -2.0936 -0.3033 -1.7773
   66MOL   H25048480   5.319   4.424   5.053  2.9462  1.3263  0.7474
   66MOL   H25148481   5.206   4.417   5.181 -0.7541  1.2477  0.8804
   66MOL   H25248482   5.383   4.488   5.338  0.5392 -1.5060  0.3544
   66MOL   H25348483   5.514   4.483   5.210 -0.3140  0.4969  0.5122
   66MOL   H25448484   5.351   4.258   5.322  0.4463 -0.7094 -1.5430
   66MOL   H25548485   5.521   4.317   5.359  1.9183  1.6955 -1.1608
   66MOL   H25648486   5.592   4.277   5.134 -0.2965 -0.1267 -0.9050
   66MOL   H25748487   5.428   4.225   5.083 -0.4051 -0.0450  0.6377
   66MOL   H25848488   5.599   4.048   5.116  0.9855 -0.9810  0.6487
   66MOL   H25948489   5.466   4.013   5.223 -1.5862  2.3255  1.9837
   66MOL   H26048490   5.724   4.119   5.293 -0.7387  0.8589 -1.9170
   66MOL   C26148491   5.621   4.010   5.430 -0.0553  0.4535  0.0895
   66MOL   O26248492   5.516   3.957   5.467 -0.2486 -0.3956 -0.1819
   66MOL   C26348493   5.753   3.993   5.509 -0.2553  0.9575  0.1295
   66MOL   C26448494   5.806   3.850   5.474  0.0164 -0.5316  0.0827
   66MOL   C26548495   5.934   3.816   5.543 -0.8933  0.2810 -0.2868
   66MOL   C26648496   5.939   3.804   5.697 -0.1147 -0.0321 -0.3139
   66MOL   C26748497   6.072   3.763   5.747  0.5514 -0.3456 -0.1789
   66MOL   C26848498   6.099   3.819   5.883 -0.5519 -0.5673  0.1752
   66MOL   C26948499   6.238   3.772   5.930 -0.0277  1.3692 -0.0907
   66MOL   C27048500   6.276   3.833   6.063  0.0481 -0.3689 -0.5311
   66MOL   C27148501   6.398   3.772   6.134  1.1173 -0.5090 -0.3930
   66MOL   C27248502   6.531   3.811   6.055  0.4528  0.0787  0.4894
   66MOL   C27348503   6.646   3.725   6.105 -0.2906 -0.2374 -0.1403
   66MOL   N27448504   6.632   3.586   6.066 -0.5693 -0.0628 -0.4944
   66MOL   H27548505   5.733   4.008   5.615 -2.9730  2.5853 -0.5610
   66MOL   H27648506   5.834   4.061   5.483  0.9186 -1.3795 -2.6157
   66MOL   H27748507   5.730   3.778   5.504  1.0727 -1.7614 -0.1638
   66MOL   H27848508   5.822   3.833   5.368 -1.4474 -2.5226  0.1671
   66MOL   H27948509   6.014   3.883   5.512 -0.2482 -1.3462 -2.2841
   66MOL   H28048510   5.963   3.715   5.512 -1.4898 -0.7676  2.4653
   66MOL   H28148511   5.920   3.897   5.751  1.6584 -0.7013  1.5396
   66MOL   H28248512   5.853   3.743   5.720 -2.0053  1.8728 -2.0668
   66MOL   H28348513   6.153   3.789   5.678  0.0634  1.1693 -0.1851
   66MOL   H28448514   6.075   3.654   5.754  0.3489 -0.2876  0.8440
   66MOL   H28548515   6.035   3.768   5.955  0.3328  0.2332  1.5668
   66MOL   H28648516   6.086   3.927   5.882 -2.0440 -0.7422 -0.4101
   66MOL   H28748517   6.310   3.787   5.849  0.6743 -1.3316 -0.0083
   66MOL   H28848518   6.240   3.663   5.937  2.8322  1.3571 -0.1635
   66MOL   H28948519   6.193   3.825   6.133  0.0117  0.2767 -0.5006
   66MOL   H29048520   6.289   3.941   6.051 -0.2135  0.0275  2.3687
   66MOL   H29148521   6.384   3.665   6.151  0.4382 -0.6829 -1.9757
   66MOL   H29248522   6.414   3.813   6.234 -0.3941 -1.4412  0.2397
   66MOL   H29348523   6.559   3.915   6.074  1.3380 -0.7064  3.8345
   66MOL   H29448524   6.528   3.797   5.947  0.4900  0.5602  0.4258
   66MOL   H29548525   6.648   3.742   6.212 -0.0898 -1.0562 -0.0165
   66MOL   H29648526   6.735   3.774   6.065 -0.5846 -0.6128 -1.2952
   66MOL   H29748527   6.614   3.515   6.136  1.9968  0.7866  1.0882
   66MOL   C29848528   6.683   3.522   5.962 -0.2243 -0.1132  0.1232
   66MOL   O29948529   6.684   3.397   5.972  0.4226 -0.0248 -0.0716
   66MOL   C30048530   6.731   3.588   5.833  0.1043  0.2764  0.2601
   66MOL   C30148531   6.643   3.553   5.708 -0.3477 -0.7644 -0.1358
   66MOL   C30248532   6.506   3.626   5.707 -0.3605  0.3598 -0.0935
   66MOL   C30348533   6.404   3.553   5.624  1.0000  0.7244  0.8856
   66MOL   C30448534   6.417   3.585   5.476  0.2867 -0.4244 -0.1730
   66MOL   C30548535   6.309   3.514   5.391  0.2801 -0.1304 -0.1523
   66MOL   C30648536   6.321   3.564   5.247 -0.1718 -0.2429 -0.0917
   66MOL   C30748537   6.301   3.715   5.230 -0.2991  0.4499 -0.1742
   66MOL   C30848538   6.161   3.774   5.272 -0.2823 -0.2289 -0.0579
   66MOL   C30948539   6.153   3.918   5.210  0.4680  0.5124 -0.1901
   66MOL   C31048540   6.018   3.988   5.211  0.0513 -0.1942 -0.0556
   66MOL   N31148541   6.033   4.109   5.143 -0.5999 -0.9327 -0.0044
   66MOL   H31248542   6.835   3.559   5.817 -0.8720 -1.9925 -2.1357
   66MOL   H31348543   6.728   3.696   5.848 -1.4225  0.0943  1.3659
   66MOL   H31448544   6.702   3.588   5.623 -2.8019 -2.8476 -2.7866
   66MOL   H31548545   6.632   3.445   5.699  1.6395 -0.9296 -0.8751
   66MOL   H31648546   6.513   3.732   5.679  0.8148  0.0715 -0.9164
   66MOL   H31748547   6.448   3.624   5.799 -0.4109  1.8113 -0.0723
   66MOL   H31848548   6.391   3.446   5.641  0.8659  0.1586 -2.2973
   66MOL   H31948549   6.311   3.601   5.655  0.4163 -0.0878  0.4106
   66MOL   H32048550   6.519   3.556   5.452  0.3710 -0.3161  0.0551
   66MOL   H32148551   6.416   3.693   5.461  0.4746 -0.5152 -0.8740
   66MOL   H32248552   6.210   3.529   5.434  1.1110  4.2023  0.4097
   66MOL   H32348553   6.321   3.406   5.402  0.7721 -0.1082 -0.4425
   66MOL   H32448554   6.240   3.506   5.202  0.1582 -0.3188 -0.5862
   66MOL   H32548555   6.410   3.523   5.199  0.1614  1.2072 -0.7384
   66MOL   H32648556   6.334   3.746   5.131  2.3069  1.9954  1.1179
   66MOL   H32748557   6.385   3.763   5.281 -2.6820  1.2907  3.1233
   66MOL   H32848558   6.151   3.775   5.381 -3.9866 -0.3350 -0.3377
   66MOL   H32948559   6.081   3.717   5.226  0.6332 -3.1067  1.7515
   66MOL   H33048560   6.182   3.913   5.105 -2.4717  0.1830 -1.0429
   66MOL   H33148561   6.220   3.979   5.270  2.7872  0.9761 -3.1657
   66MOL   H33248562   5.983   4.008   5.312 -0.5918  0.4999 -0.4126
   66MOL   H33348563   5.945   3.924   5.163  1.6413 -1.2540 -1.1261
   66MOL   H33448564   6.105   4.128   5.074 -2.0164  1.8606 -0.7647
   66MOL   C33548565   5.956   4.222   5.156  0.6129 -0.3096  0.1375
   66MOL   O33648566   5.856   4.225   5.227  0.0234  0.4613 -0.2534
   66MOL   C33748567   5.993   4.349   5.076 -0.1236 -0.6279  0.3880
   66MOL   C33848568   5.897   4.466   5.096 -0.1221  0.7787  0.3532
   66MOL   C33948569   5.916   4.534   5.234 -0.0364  0.1371  0.6827
   66MOL   C34048570   5.832   4.660   5.237 -0.0684 -0.2185  0.2727
   66MOL   C34148571   5.811   4.705   5.385 -0.6934 -0.4427  0.0556
   66MOL   C34248572   5.718   4.830   5.400  0.1429  0.0094  0.2678
   66MOL   C34348573   5.792   4.966   5.375  0.3533 -0.1214  0.2222
   66MOL   C34448574   5.863   5.019   5.499  1.0452 -0.0034  0.4781
   66MOL   C34548575   5.999   4.949   5.531  0.1580  0.2384 -0.1621
   66MOL   C34648576   6.093   5.038   5.604 -0.4117 -0.2129  0.1556
   66MOL   C34748577   6.229   4.968   5.641  0.3040 -0.2923  0.4481
   66MOL   N34848578   6.320   5.055   5.715  0.1364  0.0477 -0.4239
   66MOL   H34948579   5.994   4.307   4.976  0.3646  0.6510 -0.1632
   66MOL   H35048580   6.092   4.380   5.109 -0.4001 -1.7361  2.3635
   66MOL   H35148581   5.915   4.535   5.014  0.2776  2.0679  1.5049
   66MOL   H35248582   5.793   4.434   5.083 -0.6792  2.4225  0.6879
   66MOL   H35348583   6.020   4.566   5.234 -0.2009  0.7329 -1.3000
   66MOL   H35448584   5.896   4.466   5.316  0.0350 -2.7166 -1.5954
   66MOL   H35548585   5.874   4.736   5.172  1.1773  0.4083  1.7550
   66MOL   H35648586   5.728   4.646   5.206 -0.1466  0.4424  0.2287
   66MOL   H35748587   5.907   4.731   5.429 -0.5334  1.9895 -1.6620
   66MOL   H35848588   5.765   4.622   5.439 -0.3098 -1.6594 -1.4575
   66MOL   H35948589   5.666   4.842   5.495  0.2811  0.5287  0.2801
   66MOL   H36048590   5.637   4.826   5.327  0.2360  1.9703  0.0303
   66MOL   H36148591   5.720   5.033   5.329 -1.9825 -1.5714  1.7100
   66MOL   H36248592   5.874   4.958   5.303  1.4368  2.7909  1.0260
   66MOL   H36348593   5.806   5.000   5.589  1.6728 -1.1446  0.6472
   66MOL   H36448594   5.871   5.128   5.492 -2.5067  0.1761 -1.7662
   66MOL   H36548595   6.042   4.906   5.440 -0.4228  1.9340 -1.2695
   66MOL   H36648596   5.974   4.865   5.596  0.2073  0.7892  0.5693
   66MOL   H36748597   6.044   5.076   5.693 -0.9387 -0.8925  0.1606
   66MOL   H36848598   6.120   5.115   5.531 -3.1944 -0.5503 -1.3183
   66MOL   H36948599   6.290   4.922   5.563  0.1182 -1.7482  1.1328
   66MOL   H37048600   6.206   4.879   5.700 -0.9285  1.3470  2.4892
   66MOL   H37148601   6.319   5.043   5.815 -1.6717 -0.3166 -0.4740
   66MOL   C37248602   6.419   5.121   5.654  0.0230 -0.1548  0.0796
   66MOL   O37348603   6.425   5.125   5.535  0.4726 -0.0085  0.0260
   66MOL   C37448604   6.535   5.177   5.742  0.0308  0.4718 -0.6700
   66MOL   C37548605   6.629   5.261   5.664  0.7137  0.3120 -0.7162
   66MOL   C37648606   6.756   5.286   5.740  0.1813 -0.3029  0.4687
   66MOL   C37748607   6.862   5.369   5.662 -0.1606 -0.9414  0.5413
   66MOL   C37848608   6.982   5.423   5.747 -0.1136 -0.0563  0.1353
   66MOL   C37948609   6.947   5.516   5.867  0.0090 -0.4062 -0.5922
   66MOL   C38048610   7.060   5.581   5.946 -0.4799 -0.3706 -0.6100
   66MOL   C38148611   7.028   5.726   5.993 -0.7652 -0.4674 -0.2261
   66MOL   C38248612   7.123   5.783   6.095  0.1932  0.0022 -0.2922
   66MOL   C38348613   7.277   5.784   6.058  0.9284  0.5384  0.5944
   66MOL   C38448614   7.354   5.861   6.163 -0.1748 -0.4306 -0.1113
   66MOL   N38548615   7.496   5.845   6.146 -0.0196 -0.4286 -0.5460
   66MOL   H38648616   6.576   5.095   5.800 -2.0569  0.0213  0.2392
   66MOL   H38748617   6.497   5.247   5.817  0.8936  0.5818 -0.3269
   66MOL   H38848618   6.658   5.204   5.575 -2.8123  1.5853 -2.7620
   66MOL   H38948619   6.572   5.350   5.636  1.2749  1.0305  0.3863
   66MOL   H39048620   6.803   5.195   5.778  0.1764 -0.2371  0.6298
   66MOL   H39148621   6.724   5.334   5.832 -0.9913  1.8352 -1.0088
   66MOL   H39248622   6.890   5.302   5.581 -0.6971  2.2368 -2.4052
   66MOL   H39348623   6.803   5.452   5.624  1.1369 -0.3482 -0.2289
   66MOL   H39448624   7.043   5.484   5.680 -1.2319  1.4509  0.4658
   66MOL   H39548625   7.047   5.344   5.785 -1.6863 -1.1052  0.7144
   66MOL   H39648626   6.889   5.453   5.935  1.3247 -2.1795 -1.0467
   66MOL   H39748627   6.886   5.594   5.821  0.5114  1.3458  1.6486
   66MOL   H39848628   7.154   5.575   5.891  1.2702 -0.7144  2.3307
   66MOL   H39948629   7.085   5.515   6.029 -0.6550 -0.8944 -0.9722
   66MOL   H40048630   6.931   5.709   6.041  0.4517 -2.6262  1.5188
   66MOL   H40148631   7.021   5.794   5.908  0.6595 -0.1081 -0.0647
   66MOL   H40248632   7.109   5.719   6.183 -4.8152  0.0584 -0.8982
   66MOL   H40348633   7.091   5.883   6.124 -2.7633 -0.4869 -1.7065
   66MOL   H40448634   7.291   5.824   5.958 -0.6332 -0.1773  0.0642
   66MOL   H40548635   7.304   5.679   6.056 -0.0515  0.2844  0.2021
   66MOL   H40648636   7.329   5.820   6.261  1.5809 -3.3551 -0.8443
   66MOL   H40748637   7.339   5.969   6.175  0.7550 -0.2557 -0.5562
   66MOL   H40848638   7.526   5.750   6.129 -0.8602 -0.6455 -0.8579
   66MOL   C40948639   7.595   5.934   6.128  0.0384  0.4107 -0.8471
   66MOL   O41048640   7.568   6.056   6.124 -0.9727  0.8295  0.2354
   66MOL   C41148641   0.043   5.888   6.104 -0.3946 -0.5292 -0.0821
   66MOL   C41248642   0.143   5.924   6.218 -0.5306  0.2883 -0.4979
   66MOL   C41348643   0.109   5.874   6.364 -0.1174  0.2785 -0.1655
   66MOL   C41448644   0.218   5.897   6.468  0.0309  0.2241 -0.6038
   66MOL   C41548645   0.339   5.805   6.451 -0.0143 -0.0248  0.3119
   66MOL   C41648646   0.447   5.807   6.563  0.1804 -0.1130  0.5636
   66MOL   C41748647   0.530   5.936   6.557 -0.1693  0.2294 -0.0327
   66MOL   C41848648   0.653   5.904   6.469 -0.0817  0.8881  0.6149
   66MOL   C41948649   0.713   6.033   6.403  0.3650 -0.2092  0.0968
   66MOL   C42048650   0.643   6.102   6.284  0.4258  0.1380  0.0377
   66MOL   C42148651   0.613   6.018   6.163  0.1282  0.2185  0.2864
   66MOL   N42248652   0.718   6.009   6.063 -0.4628  0.3362  0.2143
   66MOL   H42348653   0.075   5.944   6.016 -0.5759 -0.2114  0.0537
   66MOL   H42448654   0.039   5.781   6.083 -2.0682 -0.9013  2.0464
   66MOL   H42548655   0.244   5.894   6.191 -0.0236  0.5641  1.0098
   66MOL   H42648656   0.139   6.033   6.223 -2.0744  0.2474 -0.6959
   66MOL   H42748657   0.090   5.768   6.348  3.7334 -0.3043 -1.4932
   66MOL   H42848658   0.016   5.915   6.403 -0.4069 -2.1572  1.8116
   66MOL   H42948659   0.245   6.001   6.448  0.0803  0.0313 -1.5871
   66MOL   H43048660   0.174   5.881   6.566 -0.5206 -0.9191 -1.0215
   66MOL   H43148661   0.392   5.800   6.355 -0.1680 -0.3831  0.2449
   66MOL   H43248662   0.302   5.703   6.451 -3.1542  1.0718  0.3955
   66MOL   H43348663   0.504   5.714   6.550  0.5858  0.2311 -0.1748
   66MOL   H43448664   0.382   5.801   6.650 -1.1071 -0.2833 -0.3974
   66MOL   H43548665   0.564   5.969   6.655 -1.0106  2.3039 -0.4125
   66MOL   H43648666   0.465   6.017   6.525  2.8763  2.5118 -0.7097
   66MOL   H43748667   0.630   5.846   6.380  2.4481 -0.1818  0.6064
   66MOL   H43848668   0.726   5.856   6.534 -0.4826  1.0599  1.1952
   66MOL   H43948669   0.811   6.006   6.364  0.0785  2.1271 -2.4224
   66MOL   H44048670   0.740   6.111   6.474  0.5810 -0.4858  0.3165
   66MOL   H44148671   0.711   6.173   6.237 -0.5064  1.8844  1.2653
   66MOL   H44248672   0.553   6.149   6.323  0.0197 -0.4524 -0.1942
   66MOL   H44348673   0.521   6.054   6.117  0.1407 -0.6023 -0.3859
   66MOL   H44448674   0.573   5.920   6.189 -1.7459  1.3119  1.6940
   66MOL   H44548675   0.717   6.084   5.995  0.0913 -0.0757 -0.2481
   66MOL   C44648676   0.819   5.922   6.059  0.1850 -0.2140 -0.3198
   66MOL   O44748677   0.833   5.827   6.140  0.1378  0.3770 -0.0582
   66MOL   C44848678   0.923   5.956   5.949 -0.7145  0.5082  0.2031
   66MOL   C44948679   1.018   5.843   5.942 -0.7548 -0.1212 -0.1982
   66MOL   C45048680   1.129   5.864   5.842 -0.3203 -0.6330  0.7889
   66MOL   C45148681   1.246   5.771   5.866  0.2070  0.6932  0.2168
   66MOL   C45248682   1.371   5.832   5.803 -0.4139  1.4633 -0.3042
   66MOL   C45348683   1.492   5.731   5.802 -0.0311 -0.3574 -0.2310
   66MOL   C45448684   1.620   5.784   5.743 -0.0212  0.2025  0.0412
   66MOL   C45548685   1.713   5.664   5.722  0.3433  0.4635  0.6328
   66MOL   C45648686   1.853   5.693   5.673 -0.1131  0.1329  0.7725
   66MOL   C45748687   1.884   5.703   5.521  0.3182  0.3862 -0.1150
   66MOL   C45848688   2.016   5.778   5.488  0.9145  0.2636 -0.3179
   66MOL   N45948689   2.126   5.745   5.583  0.3739 -1.1816  0.6292
   66MOL   H46048690   0.982   6.041   5.983 -0.6872  0.1841  0.9746
   66MOL   H46148691   0.876   5.972   5.852  0.5581  0.7576 -0.3845
   66MOL   H46248692   1.065   5.822   6.039 -1.9787 -1.0998  0.2029
   66MOL   H46348693   0.975   5.746   5.917  1.2305 -1.2125  0.4354
   66MOL   H46448694   1.164   5.966   5.859 -2.2313  0.4022 -1.1282
   66MOL   H46548695   1.092   5.862   5.739 -0.9255  1.3207  0.9424
   66MOL   H46648696   1.264   5.758   5.972  1.9604  1.1189 -0.0075
   66MOL   H46748697   1.225   5.668   5.835 -1.0445  0.8193  0.6652
   66MOL   H46848698   1.390   5.929   5.850 -2.2389  1.3747  0.6590
   66MOL   H46948699   1.353   5.843   5.696  0.9858 -0.1222 -0.7211
   66MOL   H47048700   1.461   5.642   5.748 -1.2437  0.3302 -0.6788
   66MOL   H47148701   1.516   5.691   5.901  3.2973 -1.0315 -1.2331
   66MOL   H47248702   1.651   5.867   5.807  0.6335 -1.4737  1.9278
   66MOL   H47348703   1.592   5.836   5.651  0.2894  1.5794  0.7032
   66MOL   H47448704   1.663   5.600   5.651  0.8261  0.0666  0.6457
   66MOL   H47548705   1.703   5.609   5.816 -0.4462  0.0443  0.3001
   66MOL   H47648706   1.915   5.619   5.725  0.9216  0.9059  0.6543
   66MOL   H47748707   1.869   5.793   5.714 -3.8466  1.8080 -1.5952
   66MOL   H47848708   1.808   5.756   5.462  0.6928  1.9376  0.7738
   66MOL   H47948709   1.887   5.604   5.476 -2.8730  1.0692 -1.9919
   66MOL   H48048710   1.995   5.884   5.500 -0.3703 -0.0442  0.2228
   66MOL   H48148711   2.043   5.759   5.384 -1.6478 -1.6627 -0.6831
   66MOL   H48248712   2.110   5.780   5.676 -0.1364  0.5584 -0.0905
   66MOL   C48348713   2.231   5.667   5.571  0.2474  0.3496 -0.0889
   66MOL   O48448714   2.305   5.650   5.665  0.2552 -0.1703 -0.1049
   66MOL   C48548715   2.276   5.627   5.431  0.7288  0.1399 -0.1099
   66MOL   C48648716   2.413   5.559   5.426 -0.4761  0.7269 -0.1485
   66MOL   C48748717   2.536   5.652   5.441 -0.2731 -1.3222 -0.5051
   66MOL   C48848718   2.667   5.573   5.451  0.1604 -0.3592  0.0317
   66MOL   C48948719   2.793   5.663   5.432 -0.0339 -0.4936 -0.0957
   66MOL   C49048720   2.924   5.606   5.395  0.3688 -0.2618  0.2996
   66MOL   C49148721   2.963   5.492   5.498  0.3667 -0.4258  0.6301
   66MOL   C49248722   3.088   5.406   5.462 -0.1597 -0.5454  0.4465
   66MOL   C49348723   3.094   5.342   5.319  0.5632  0.0514 -0.6255
   66MOL   C49448724   3.001   5.226   5.291 -1.1121  0.1171 -0.2815
   66MOL   C49548725   2.861   5.270   5.255 -0.3962 -0.3886  0.3508
   66MOL   N49648726   2.771   5.160   5.231  0.1040 -0.0403 -0.3472
   66MOL   H49748727   2.282   5.715   5.368  2.8952  1.7000  2.1561
   66MOL   H49848728   2.197   5.565   5.390  3.0747 -3.3775  0.4649
   66MOL   H49948729   2.408   5.473   5.492  0.4398  0.9451  0.2114
   66MOL   H50048730   2.422   5.511   5.329  2.2686  1.8951 -0.5051
   66MOL   H50148731   2.523   5.718   5.527 -1.0089 -0.2502 -1.4330
   66MOL   H50248732   2.540   5.712   5.350  1.8745 -2.0808 -0.9344
   66MOL   H50348733   2.659   5.506   5.536 -1.8319  0.8853  0.8754
   66MOL   H50448734   2.672   5.513   5.360  0.2259 -0.1751 -0.0876
   66MOL   H50548735   2.804   5.718   5.525  0.7978 -0.3961 -0.2485
   66MOL   H50648736   2.773   5.742   5.360  1.7332  0.8471  0.8518
   66MOL   H50748737   3.009   5.669   5.420  0.3703  0.0726 -0.5404
   66MOL   H50848738   2.933   5.561   5.296  1.0312 -1.9365  1.1092
   66MOL   H50948739   2.886   5.417   5.518  0.4018 -1.0116 -1.3388
   66MOL   H51048740   2.989   5.545   5.590 -1.2578 -1.4110  1.6756
   66MOL   H51148741   3.092   5.328   5.537  0.5960 -0.5478  0.4087
   66MOL   H51248742   3.182   5.461   5.470 -0.2548 -0.3277  0.1002
   66MOL   H51348743   3.198   5.317   5.299  0.6007  0.1713 -0.5843
   66MOL   H51448744   3.079   5.422   5.246 -0.8985 -0.2380 -0.6599
   66MOL   H51548745   2.981   5.166   5.379 -1.8612  0.7685 -0.0012
   66MOL   H51648746   3.051   5.161   5.219  1.3950 -0.4311  1.8790
   66MOL   H51748747   2.862   5.342   5.173  1.4237 -0.3595  0.3707
   66MOL   H51848748   2.816   5.334   5.331  1.6833  0.7076  0.7121
   66MOL   H51948749   2.703   5.140   5.304 -0.4671  0.4995 -0.7252
   66MOL   C52048750   2.745   5.109   5.114  0.7093 -0.2393  0.4543
   66MOL   O52148751   2.780   5.144   5.005  0.1402 -0.2999 -0.2087
   66MOL   C52248752   2.645   5.001   5.114 -0.1174  0.9014 -1.5158
   66MOL   C52348753   2.506   5.044   5.059 -0.3987 -0.4185 -0.1353
   66MOL   C52448754   2.427   5.139   5.145 -0.2254 -0.1587  0.0803
   66MOL   C52548755   2.272   5.150   5.108  0.6108  0.2619  0.1970
   66MOL   C52648756   2.182   5.202   5.215 -0.7120 -0.5927  0.3247
   66MOL   C52748757   2.035   5.177   5.177  0.5143 -1.1670  0.1620
   66MOL   C52848758   1.934   5.243   5.279 -0.2863  0.8423 -0.9588
   66MOL   C52948759   1.796   5.182   5.258 -0.1635 -0.5914  0.1768
   66MOL   C53048760   1.698   5.235   5.369  0.2972  0.6608  0.0072
   66MOL   C53148761   1.542   5.220   5.339 -0.0785  0.2886  0.0218
   66MOL   C53248762   1.449   5.245   5.454  0.2140 -0.1949 -0.7390
   66MOL   N53348763   1.309   5.214   5.420 -0.5402 -0.1707 -0.1804
   66MOL   H53448764   2.645   4.953   5.212 -0.9092  0.9653 -1.4773
   66MOL   H53548765   2.687   4.918   5.057 -1.1923 -0.4481 -0.3875
   66MOL   H53648766   2.507   5.092   4.961  1.3409  1.1181  0.6204
   66MOL   H53748767   2.450   4.952   5.040  1.1733 -0.9735 -2.2571
   66MOL   H53848768   2.470   5.239   5.155  1.4454 -0.8318 -0.2642
   66MOL   H53948769   2.434   5.100   5.247 -2.5857 -0.9094 -0.0130
   66MOL   H54048770   2.266   5.211   5.018  0.1881 -1.5672 -1.0537
   66MOL   H54148771   2.241   5.046   5.094  0.6226  0.2479  0.2688
   66MOL   H54248772   2.197   5.310   5.218 -2.4071 -0.3093 -0.6832
   66MOL   H54348773   2.195   5.154   5.312 -0.4470 -4.3813 -1.4706
   66MOL   H54448774   2.028   5.068   5.177 -1.0387 -1.0859  1.1015
   66MOL   H54548775   2.010   5.206   5.075  0.4460  1.4428  0.8773
   66MOL   H54648776   1.936   5.351   5.264 -1.1807  1.0437  0.3537
   66MOL   H54748777   1.965   5.205   5.376 -1.8529  0.9237 -0.4061
   66MOL   H54848778   1.798   5.074   5.244 -0.4249 -0.4395 -1.0428
   66MOL   H54948779   1.763   5.212   5.159 -1.9695 -3.9767 -0.3179
   66MOL   H55048780   1.717   5.339   5.392  2.7425  0.2756 -0.0967
   66MOL   H55148781   1.718   5.186   5.465 -0.0613  0.1223 -0.1852
   66MOL   H55248782   1.539   5.117   5.303  0.3061  0.9380 -1.9601
   66MOL   H55348783   1.515   5.280   5.252 -0.5447 -0.5595 -0.4157
   66MOL   H55448784   1.457   5.353   5.466  1.5208  0.0340 -3.1489
   66MOL   H55548785   1.493   5.187   5.535  1.3820  2.0914  0.3178
   66MOL   H55648786   1.236   5.283   5.424 -0.7743 -0.4733  0.9323
   66MOL   C55748787   1.270   5.094   5.380 -0.1230 -0.1132  0.1101
   66MOL   O55848788   1.340   4.992   5.384 -0.1935  0.1207  0.8290
   66MOL   C55948789   1.127   5.077   5.334 -1.4363 -0.0304  0.4483
   66MOL   C56048790   1.118   5.090   5.184  0.2439 -0.5515 -0.2785
   66MOL   C56148791   0.985   5.121   5.120 -0.7227  0.8564 -0.1475
   66MOL   C56248792   0.997   5.184   4.980  0.4124  0.3578  0.2148
   66MOL   C56348793   0.866   5.204   4.918  0.1593  0.0625  0.3231
   66MOL   C56448794   0.840   5.283   4.791 -1.1481  0.6107  0.0696
   66MOL   C56548795   0.700   5.254   4.728 -0.2089 -0.0836 -0.0776
   66MOL   C56648796   0.684   5.322   4.589 -0.0065  0.0926 -0.2449
   66MOL   C56748797   0.757   5.253   4.474 -0.2103 -0.5224  0.0525
   66MOL   C56848798   0.756   5.337   4.349  0.2954  0.5918  0.2465
   66MOL   C56948799   0.811   5.279   4.222 -0.4354 -0.3500  0.1770
   66MOL   N57048800   0.813   5.378   4.118  0.1160 -0.5929 -0.0406
   66MOL   H57148801   1.069   5.161   5.372 -2.2731  0.4737 -1.8562
   66MOL   H57248802   1.078   4.991   5.380  0.0356 -1.9376 -1.4671
   66MOL   H57348803   1.182   5.167   5.141  0.6229 -0.0983  1.0657
   66MOL   H57448804   1.148   4.994   5.141 -0.7139 -1.4549  1.0392
   66MOL   H57548805   0.944   5.198   5.185 -2.1631 -1.0342  1.2429
   66MOL   H57648806   0.923   5.032   5.125 -0.6173  0.7546 -0.6330
   66MOL   H57748807   1.066   5.268   4.969 -1.6439  1.7954 -2.3808
   66MOL   H57848808   1.038   5.100   4.923  0.5346  0.2710  0.4296
   66MOL   H57948809   0.795   5.244   4.991  1.1004  1.2705  0.5707
   66MOL   H58048810   0.829   5.104   4.895  1.7329 -0.6208  0.7303
   66MOL   H58148811   0.922   5.259   4.723  1.1280  4.1006  1.4015
   66MOL   H58248812   0.856   5.391   4.800 -0.2198  0.3619  1.4382
   66MOL   H58348813   0.618   5.303   4.780  0.1900  1.4476 -0.8528
   66MOL   H58448814   0.692   5.146   4.715 -1.3048 -0.2092  1.4928
   66MOL   H58548815   0.717   5.426   4.596  3.2762 -0.9037 -0.2765
   66MOL   H58648816   0.578   5.339   4.569 -0.5572  0.1716  2.5101
   66MOL   H58748817   0.700   5.160   4.466 -2.3295  0.6983  0.6083
   66MOL   H58848818   0.858   5.223   4.501 -0.8622 -1.5666  1.4183
   66MOL   H58948819   0.815   5.428   4.363  1.6436 -0.1455 -0.4818
   66MOL   H59048820   0.656   5.373   4.326  0.1296 -1.4400 -2.2683
   66MOL   H59148821   0.754   5.189   4.197  0.1926 -0.8824  0.6119
   66MOL   H59248822   0.910   5.235   4.238 -1.2634 -1.9991  1.0188
   66MOL   H59348823   0.731   5.435   4.105  0.4793 -0.2426 -0.7944
   66MOL   C59448824   0.916   5.406   4.043 -0.2071  0.5268  0.0223
   66MOL   O59548825   1.025   5.345   4.050 -0.3135 -0.4879 -0.8049
   66MOL   C59648826   0.903   5.519   3.940 -0.5029 -0.4346 -0.5266
   66MOL   C59748827   0.814   5.502   3.819  0.5728  0.1593 -0.0622
   66MOL   C59848828   0.842   5.371   3.741  0.2266  0.4046  0.1560
   66MOL   C59948829   0.748   5.340   3.628  0.2949  0.8079  0.2390
   66MOL   C60048830   0.614   5.300   3.661 -0.0062  0.0455 -1.3079
   66MOL   C60148831   0.590   5.177   3.758 -0.3935  0.2089 -0.7030
   66MOL   C60248832   0.535   5.217   3.897  0.3582 -0.3156  0.9100
   66MOL   C60348833   0.526   5.100   3.998 -0.1869  0.0684 -0.2913
   66MOL   C60448834   0.467   5.135   4.132 -0.2489 -0.8292  0.1229
   66MOL   C60548835   0.503   5.037   4.246  0.4726  0.2357 -0.0400
   66MOL   C60648836   0.443   4.901   4.216 -0.4671  0.4027 -0.1808
   66MOL   N60748837   0.480   4.799   4.321 -0.1969 -0.3327  0.0446
   66MOL   H60848838   0.998   5.560   3.905 -2.1832  1.4395 -3.1009
   66MOL   H60948839   0.850   5.597   3.995  2.6227  0.4415  1.3330
   66MOL   H61048840   0.708   5.496   3.844  0.4796  1.4682 -0.1079
   66MOL   H61148841   0.836   5.583   3.749 -0.5623 -0.4501 -1.1529
   66MOL   H61248842   0.847   5.285   3.808 -2.1040  0.0612 -0.0609
   66MOL   H61348843   0.946   5.372   3.707  0.2487 -1.8426  0.0529
   66MOL   H61448844   0.735   5.434   3.575  0.8960  0.4818 -0.4974
   66MOL   H61548845   0.800   5.270   3.563 -2.8849 -0.1829 -1.2759
   66MOL   H61648846   0.567   5.265   3.570  0.4775 -2.0338 -0.7765
   66MOL   H61748847   0.560   5.389   3.694  0.7128  0.5555 -1.4794
   66MOL   H61848848   0.683   5.121   3.763  0.1069  1.0802 -0.3242
   66MOL   H61948849   0.522   5.099   3.721  0.0041 -0.8925  0.8444
   66MOL   H62048850   0.433   5.252   3.883  0.6122  0.1357  0.1395
   66MOL   H62148851   0.589   5.304   3.936  0.3620  0.1283 -0.0860
   66MOL   H62248852   0.624   5.055   4.012 -1.0647 -2.4689 -2.0313
   66MOL   H62348853   0.465   5.026   3.948 -1.9308  1.1805  0.1359
   66MOL   H62448854   0.360   5.154   4.128 -0.2535 -1.0533 -0.7216
   66MOL   H62548855   0.508   5.232   4.163 -0.5363 -1.5037  2.7427
   66MOL   H62648856   0.461   5.073   4.340 -0.9043  0.3358 -0.6793
   66MOL   H62748857   0.609   5.016   4.254  0.8055  1.6362 -0.5744
   66MOL   H62848858   0.468   4.865   4.116  0.8045 -1.8016  0.8779
   66MOL   H62948859   0.335   4.910   4.213 -0.6003 -1.1757 -0.8552
   66MOL   H63048860   0.565   4.746   4.307  0.3729  0.3681  0.8183
   66MOL   C63148861   0.421   4.785   4.433 -0.5572  0.1009  0.2843
   66MOL   O63248862   0.318   4.850   4.459  0.6345  0.1086 -0.8034
   66MOL   C63348863   0.491   4.691   4.532 -0.4837  0.2645 -0.2931
   66MOL   C63448864   0.476   4.727   4.676  0.0114  0.6316  0.2273
   66MOL   C63548865   0.540   4.859   4.730 -0.3144  0.6327  0.5807
   66MOL   C63648866   0.695   4.863   4.703  0.3809  0.7748  0.0110
   66MOL   C63748867   0.773   4.768   4.797 -0.0048 -0.9039 -0.0984
   66MOL   C63848868   0.920   4.752   4.763  0.6537  0.1196 -0.1757
   66MOL   C63948869   0.995   4.658   4.863  0.3386  0.6312  0.1390
   66MOL   C64048870   1.058   4.736   4.977 -0.0045 -0.6565 -0.3390
   66MOL   C64148871   1.145   4.651   5.069 -0.3644 -0.0478 -0.5782
   66MOL   C64248872   1.187   4.737   5.189 -0.3754  0.1872  0.4370
   66MOL   C64348873   1.234   4.662   5.310  0.5394  0.4155 -1.0501
   66MOL   N64448874   1.243   4.751   5.421 -0.1152  0.1451  0.2562
   66MOL   H64548875   0.593   4.671   4.501 -0.7851 -0.0236 -1.1303
   66MOL   H64648876   0.441   4.595   4.521  0.0898 -0.0039 -0.5567
   66MOL   H64748877   0.372   4.746   4.702  0.6607  0.4263  3.2081
   66MOL   H64848878   0.508   4.641   4.736 -0.7935  0.9205  1.0834
   66MOL   H64948879   0.531   4.865   4.839 -0.7252 -2.9901  0.8054
   66MOL   H65048880   0.489   4.953   4.710 -2.2246 -0.6746 -0.8994
   66MOL   H65148881   0.719   4.852   4.598  0.8466 -0.7248  0.2618
   66MOL   H65248882   0.734   4.962   4.730 -0.6897  0.9146  1.1348
   66MOL   H65348883   0.729   4.670   4.779  0.1120 -0.9500 -0.1361
   66MOL   H65448884   0.753   4.806   4.897 -1.6472  2.8089 -1.7486
   66MOL   H65548885   0.964   4.851   4.751 -0.0805  0.3873 -0.6557
   66MOL   H65648886   0.918   4.704   4.664  2.9237 -1.8665  0.6851
   66MOL   H65748887   1.066   4.617   4.792 -1.6135 -1.8934 -0.4535
   66MOL   H65848888   0.939   4.579   4.914 -0.5720  1.0474 -0.2007
   66MOL   H65948889   0.972   4.771   5.035 -2.0051 -2.9247 -1.8932
   66MOL   H66048890   1.117   4.822   4.946  1.3890 -1.5399 -0.1657
   66MOL   H66148891   1.229   4.609   5.013  0.0104 -2.0996  1.4249
   66MOL   H66248892   1.101   4.559   5.109  1.5806 -0.1880  1.3354
   66MOL   H66348893   1.101   4.797   5.222 -0.5623 -0.0505  0.3816
   66MOL   H66448894   1.263   4.807   5.155 -0.3485 -1.3366 -2.8493
   66MOL   H66548895   1.335   4.633   5.280  0.9582  0.6416  0.1258
   66MOL   H66648896   1.170   4.574   5.318 -1.9757  2.1351 -1.8014
   66MOL   H66748897   1.282   4.844   5.417 -1.3751  0.7606  1.6654
   66MOL   C66848898   1.193   4.715   5.539 -0.4045  0.3071  0.3614
   66MOL   O66948899   1.148   4.602   5.553 -0.4610 -0.1130 -0.2822
   66MOL   C67048900   1.196   4.812   5.659  0.2139  0.3398  0.4958
   66MOL   C67148901   1.058   4.877   5.687 -0.4618 -0.0293  0.1817
   66MOL   C67248902   1.072   4.994   5.788 -0.0360 -0.5501  0.0117
   66MOL   C67348903   1.180   5.098   5.766  0.5392  0.1221  0.7806
   66MOL   C67448904   1.153   5.238   5.835  0.6406 -0.3640  0.3135
   66MOL   C67548905   1.043   5.322   5.766 -0.0453 -0.1550  0.1960
   66MOL   C67648906   0.966   5.420   5.853  0.3590 -0.3016  0.0438
   66MOL   C67748907   0.876   5.353   5.957  0.5925  0.0602  0.1732
   66MOL   C67848908   0.794   5.467   6.010 -0.1565  0.1749 -0.2548
   66MOL   C67948909   0.687   5.418   6.119 -0.3547 -0.4485  0.5083
   66MOL   C68048910   0.646   5.530   6.212  0.3659 -0.6287  0.1410
   66MOL   N68148911   0.756   5.603   6.266  0.3696  0.5031 -0.0184
   66MOL   H68248912   1.263   4.892   5.629 -1.5257  1.9955  0.9314
   66MOL   H68348913   1.244   4.758   5.741 -0.3124 -2.2021 -0.7894
   66MOL   H68448914   1.025   4.918   5.592 -0.5728 -0.7565 -0.0885
   66MOL   H68548915   0.991   4.798   5.721 -1.8715  1.1706  0.2718
   66MOL   H68648916   1.074   4.955   5.890  0.2868 -0.6930 -0.0463
   66MOL   H68748917   0.974   5.041   5.790 -0.5544 -1.4357 -2.4984
   66MOL   H68848918   1.271   5.058   5.812  1.9542  1.9512 -0.3316
   66MOL   H68948919   1.195   5.126   5.662 -2.8560  3.6402  1.1297
   66MOL   H69048920   1.243   5.298   5.844  1.4596 -1.5492  0.1927
   66MOL   H69148921   1.130   5.217   5.939 -0.4969  2.2167  0.6191
   66MOL   H69248922   0.974   5.264   5.704 -0.7577  1.1691 -0.2750
   66MOL   H69348923   1.099   5.386   5.698  0.1232 -2.8316 -2.2899
   66MOL   H69448924   0.907   5.493   5.797 -0.8100 -1.3754 -0.1332
   66MOL   H69548925   1.037   5.482   5.909  0.6615 -0.0085 -0.6629
   66MOL   H69648926   0.938   5.324   6.042 -0.0848  1.6219  1.2251
   66MOL   H69748927   0.817   5.275   5.910  0.7993 -0.4620  0.7821
   66MOL   H69848928   0.729   5.516   5.937  0.3546 -0.0909 -0.8923
   66MOL   H69948929   0.866   5.537   6.052  2.3093 -2.4599  0.0475
   66MOL   H70048930   0.727   5.348   6.192  1.6297  0.1827  0.0557
   66MOL   H70148931   0.605   5.356   6.084  0.5139 -0.3397 -1.8104
   66MOL   H70248932   0.583   5.493   6.293 -0.8783  0.3444 -0.3697
   66MOL   H70348933   0.590   5.596   6.147  3.1135  1.6253 -0.0188
   66MOL   H70448934   0.779   5.693   6.226  0.8216 -0.2145 -1.3810
   66MOL   C70548935   0.837   5.562   6.366 -0.7005  0.1914  0.2715
   66MOL   O70648936   0.828   5.448   6.410 -0.0012  0.9103 -0.1194
   66MOL   C70748937   0.942   5.661   6.416  0.1629 -0.9942 -0.0774
   66MOL   C70848938   1.084   5.616   6.433  0.1710  1.0842  0.4753
   66MOL   C70948939   1.157   5.599   6.302  0.1948 -0.0309 -0.1575
   66MOL   C71048940   1.308   5.573   6.324  1.1622 -0.2052 -0.1852
   66MOL   C71148941   1.389   5.563   6.194  0.1961 -0.4338  0.2951
   66MOL   C71248942   1.544   5.564   6.202 -0.0832 -0.4178  0.4458
   66MOL   C71348943   1.596   5.706   6.240 -0.2415  0.5330 -0.2045
   66MOL   C71448944   1.747   5.717   6.217 -0.0947  0.4714 -0.1598
   66MOL   C71548945   1.794   5.853   6.233  0.1623  0.5016 -0.6770
   66MOL   C71648946   1.948   5.882   6.234 -0.0676  0.3638 -0.7459
   66MOL   C71748947   2.015   5.839   6.367 -0.2282  0.1618  0.0669
   66MOL   N71848948   2.153   5.885   6.351 -0.3646  0.2303  0.0803
   66MOL   H71948949   0.910   5.674   6.520 -2.6371  1.7166 -1.1876
   66MOL   H72048950   0.938   5.755   6.362 -3.3245 -1.0850 -0.0829
   66MOL   H72148951   1.136   5.691   6.493  1.1058  1.1205 -0.3609
   66MOL   H72248952   1.090   5.518   6.480  0.3886  1.1732  0.6348
   66MOL   H72348953   1.141   5.692   6.247  0.9879  1.1767  1.6132
   66MOL   H72448954   1.113   5.520   6.240  2.7187 -1.9625  0.4440
   66MOL   H72548955   1.343   5.649   6.394 -0.6641  1.0962 -0.6516
   66MOL   H72648956   1.319   5.488   6.392 -0.1041 -0.6482 -0.5244
   66MOL   H72748957   1.356   5.650   6.137 -3.3867  0.6266  3.7181
   66MOL   H72848958   1.362   5.476   6.135  0.8514 -0.3032 -0.2017
   66MOL   H72948959   1.577   5.524   6.106 -0.4938  3.7774 -1.5821
   66MOL   H73048960   1.582   5.490   6.271  1.8014 -0.7786 -0.9305
   66MOL   H73148961   1.587   5.723   6.347 -1.2602 -1.6149  0.0825
   66MOL   H73248962   1.544   5.788   6.190 -0.6270  2.1035  2.6716
   66MOL   H73348963   1.765   5.702   6.111 -0.9518  0.1361 -0.2639
   66MOL   H73448964   1.810   5.653   6.278  0.1265 -0.0142 -0.8928
   66MOL   H73548965   1.751   5.899   6.323  0.8600 -1.0939  0.4941
   66MOL   H73648966   1.756   5.910   6.148 -0.5939  0.5832 -0.2923
   66MOL   H73748967   1.975   5.986   6.216  3.8939 -0.8549 -2.1864
   66MOL   H73848968   1.992   5.829   6.150  1.2257 -1.7230  1.2055
   66MOL   H73948969   2.023   5.731   6.374 -1.3814 -0.0348 -1.4392
   66MOL   H74048970   1.971   5.868   6.463  0.1226 -1.3416  0.7001
   66MOL   H74148971   2.188   5.841   6.267  1.4833  0.6194  0.6324
   66MOL   H74248972   2.211   5.841   6.421 -3.5355 -0.4319  2.3787
   67MOL     C148973   0.642   6.612   1.325  0.2015  0.5896 -0.5782
   67MOL     O248974   0.744   6.551   1.348 -0.5742 -0.0546 -0.7555
   67MOL     C348975   0.617   6.644   1.181  0.0273  0.0565  0.2275
   67MOL     C448976   0.520   6.761   1.161  0.3720  0.8013  0.2812
   67MOL     C548977   0.499   6.777   1.011  0.2633  0.2545  0.8926
   67MOL     C648978   0.360   6.850   0.986 -0.3311 -0.0451 -0.4121
   67MOL     C748979   0.322   6.854   0.838  0.2567  0.5965  0.1579
   67MOL     C848980   0.180   6.910   0.807 -0.0165 -0.3693  0.3502
   67MOL     C948981   0.151   7.058   0.835 -0.7742 -0.3754  0.4476
   67MOL    C1048982   0.021   7.093   0.763  0.1594 -0.2751  0.2019
   67MOL    C1148983   7.672   7.240   0.788  0.2204 -0.1202 -0.1851
   67MOL    C1248984   7.569   7.300   0.696 -0.1221  0.9563  0.2245
   67MOL    C1348985   7.530   7.442   0.729  0.7415 -0.2621 -0.2663
   67MOL    N1448986   7.435   7.502   0.634  0.3588 -0.3911  0.0716
   67MOL    H1548987   0.596   6.550   1.129 -1.2902 -0.5765  1.8417
   67MOL    H1648988   0.722   6.658   1.156  0.5489 -2.1342  1.0803
   67MOL    H1748989   0.428   6.733   1.211  1.4704 -0.8250  1.4391
   67MOL    H1848990   0.547   6.854   1.211 -1.1378 -1.1149  4.9154
   67MOL    H1948991   0.478   6.679   0.968 -2.2318  1.3019 -0.4121
   67MOL    H2048992   0.588   6.816   0.962 -0.0906  0.2275  0.2304
   67MOL    H2148993   0.283   6.812   1.054 -0.5361 -0.4566 -0.8751
   67MOL    H2248994   0.377   6.956   1.005  2.0512 -0.0789 -2.1081
   67MOL    H2348995   0.324   6.748   0.811 -0.1828  0.7655 -0.5420
   67MOL    H2448996   0.404   6.893   0.778 -0.3517  1.3332 -0.2043
   67MOL    H2548997   0.112   6.853   0.871  0.4508  0.1105  1.2796
   67MOL    H2648998   0.160   6.894   0.701  1.0288  0.4692  0.0132
   67MOL    H2748999   0.234   7.117   0.796  0.2999 -1.4017  1.1453
   67MOL    H2849000   0.138   7.078   0.941  1.8463 -0.8889  0.9049
   67MOL    H2949001   7.636   7.026   0.796  0.2259  1.3012  3.7285
   67MOL    H3049002   0.024   7.067   0.657  2.3385  1.9484 -0.3292
   67MOL    H3149003   0.055   7.312   0.812 -0.0659  0.3956 -0.8148
   67MOL    H3249004   7.612   7.241   0.879  1.6774 -2.0552  0.8368
   67MOL    H3349005   7.484   7.231   0.694  1.5700 -1.1953  0.1094
   67MOL    H3449006   7.608   7.314   0.595 -2.0765 -0.4417 -0.7539
   67MOL    H3549007   7.615   7.510   0.730  0.1864  0.4500  1.4179
   67MOL    H3649008   7.486   7.436   0.829 -1.4936 -0.1407 -1.1975
   67MOL    H3749009   7.473   7.574   0.573  1.8973  0.1134  1.5860
   67MOL    H3849010   0.565   6.621   1.401  0.7705  0.6915 -0.0115
   67MOL    C3949011   7.307   7.471   0.609 -0.4668  0.0789 -0.0067
   67MOL    O4049012   7.254   7.382   0.676  0.2833 -0.2265  0.4012
   67MOL    C4149013   7.237   7.540   0.496 -0.3506 -0.5512  0.1038
   67MOL    C4249014   7.091   7.502   0.472  0.0945  0.0015  0.3497
   67MOL    C4349015   7.013   7.589   0.375  0.3901  0.7858  0.2787
   67MOL    C4449016   6.872   7.523   0.356 -0.3769 -0.5558  0.7648
   67MOL    C4549017   6.786   7.592   0.258  0.7956 -0.0724  0.3014
   67MOL    C4649018   6.636   7.544   0.260 -0.8493  0.2453 -0.9004
   67MOL    C4749019   6.540   7.655   0.203  0.0118  0.3695  0.8250
   67MOL    C4849020   6.404   7.612   0.173 -0.2184  0.0646 -0.2969
   67MOL    C4949021   6.305   0.031   0.141 -0.4489  0.4448 -0.4152
   67MOL    C5049022   6.256   0.104   0.264 -0.1241 -0.9562 -0.0246
   67MOL    C5149023   6.181   0.232   0.239 -0.4564 -0.0431 -0.8148
   67MOL    N5249024   6.096   0.270   0.349  0.3979  0.1920  0.1369
   67MOL    H5349025   7.276   7.508   0.399 -1.8976  0.8782 -1.0337
   67MOL    H5449026   7.244   7.649   0.494  0.1485 -0.5962 -1.3390
   67MOL    H5549027   7.097   7.398   0.438  2.6506  1.0086 -2.5298
   67MOL    H5649028   7.035   7.498   0.565 -0.7138  1.0569 -0.0897
   67MOL    H5749029   7.068   7.603   0.282  0.4838  2.0866  0.5221
   67MOL    H5849030   7.006   7.686   0.423 -0.2433  0.7247  0.3094
   67MOL    H5949031   6.890   7.430   0.302  2.4079  0.6917 -0.5441
   67MOL    H6049032   6.824   7.503   0.451 -3.1805 -1.8435 -0.8628
   67MOL    H6149033   6.828   7.586   0.158  1.5188  0.4089  0.5662
   67MOL    H6249034   6.789   0.007   0.273  0.7346  0.4648 -3.0869
   67MOL    H6349035   6.594   7.537   0.361  2.8331 -0.1906  0.6876
   67MOL    H6449036   6.622   7.447   0.214 -0.7300 -0.3739  0.3431
   67MOL    H6549037   6.569   0.008   0.108 -1.4279  1.5402  0.9453
   67MOL    H6649038   6.540   0.041   0.277  2.0502 -0.1873  1.4534
   67MOL    H6749039   6.371   7.562   0.264 -2.4860  0.9540 -0.5948
   67MOL    H6849040   6.417   7.550   0.085 -0.5056 -1.8947  1.0256
   67MOL    H6949041   6.220   7.680   0.090 -0.3209 -0.0652 -0.1791
   67MOL    H7049042   6.351   0.096   0.066  0.1045  1.3837  0.7279
   67MOL    H7149043   6.345   0.127   0.324 -0.2737  0.1555 -0.2242
   67MOL    H7249044   6.191   0.040   0.323 -0.6312 -0.6784 -0.2866
   67MOL    H7349045   6.114   0.223   0.153 -1.5656 -1.1399  0.1417
   67MOL    H7449046   6.262   0.303   0.225  0.9437 -0.8705  2.6279
   67MOL    H7549047   5.997   0.255   0.335  0.5716 -0.1646 -0.7138
   67MOL    C7649048   6.124   0.329   0.463 -0.4837 -0.0755 -0.3195
   67MOL    O7749049   6.238   0.379   0.494  0.3207 -0.0507  0.7239
   67MOL    C7849050   6.012   0.342   0.563 -0.4621  0.0192  1.1998
   67MOL    C7949051   6.009   0.477   0.642 -0.7975 -0.4426  0.2174
   67MOL    C8049052   6.105   0.473   0.767  0.4945  0.2946 -0.5493
   67MOL    C8149053   6.087   0.362   0.867 -0.1203 -0.1985 -0.7320
   67MOL    C8249054   5.960   0.365   0.945  0.2428  0.5065 -0.0350
   67MOL    C8349055   5.976   0.462   1.064  0.1300 -0.0789 -0.3230
   67MOL    C8449056   5.845   0.542   1.098  0.1281  0.7208 -0.5377
   67MOL    C8549057   5.860   0.623   1.220 -0.2030 -0.2488 -0.6075
   67MOL    C8649058   5.948   0.745   1.221 -0.4258 -0.0284 -0.7492
   67MOL    C8749059   5.952   0.818   1.350 -0.0335  0.2503 -0.7167
   67MOL    C8849060   6.061   0.929   1.358  0.3251  0.6946  0.0828
   67MOL    N8949061   6.040   1.009   1.476  0.7904  0.1022 -0.3758
   67MOL    H9049062   6.022   0.253   0.626  1.4589 -0.3792  0.3492
   67MOL    H9149063   5.917   0.335   0.510  0.5250 -0.6524 -0.5105
   67MOL    H9249064   6.044   0.558   0.578 -2.8862  2.1875  2.2965
   67MOL    H9349065   5.910   0.511   0.674 -0.4046  0.4576  0.4710
   67MOL    H9449066   6.094   0.569   0.819 -0.4351  0.8970 -1.8297
   67MOL    H9549067   6.209   0.472   0.736 -0.2745  2.0121 -3.3072
   67MOL    H9649068   6.102   0.261   0.829 -0.6155 -0.2123 -0.9024
   67MOL    H9749069   6.182   0.373   0.919 -1.0906 -1.3794  1.3757
   67MOL    H9849070   5.932   0.268   0.987 -1.3263  0.2054 -1.6827
   67MOL    H9949071   5.883   0.393   0.872 -0.6597  3.2838  1.9103
   67MOL   H10049072   6.062   0.530   1.054  1.0545 -1.0325  1.0274
   67MOL   H10149073   5.992   0.404   1.154 -0.7454  1.0509  0.5800
   67MOL   H10249074   5.770   0.465   1.112  0.3562  0.4666 -0.6845
   67MOL   H10349075   5.840   0.599   1.005 -0.3554 -0.7684 -1.4371
   67MOL   H10449076   5.879   0.558   1.306  0.8856 -0.2706 -0.8597
   67MOL   H10549077   5.763   0.670   1.237  0.8203  1.7808 -0.3440
   67MOL   H10649078   5.902   0.811   1.147 -1.8219 -1.2011 -0.9756
   67MOL   H10749079   6.045   0.713   1.183 -0.2057 -2.3332  1.5721
   67MOL   H10849080   5.965   0.752   1.436  1.8954 -0.3486 -1.4587
   67MOL   H10949081   5.853   0.859   1.371  0.6253  1.1165  0.7849
   67MOL   H11049082   6.059   0.989   1.268  1.0321  1.5234  0.6097
   67MOL   H11149083   6.163   0.889   1.364  0.4948  0.8563 -1.5710
   67MOL   H11249084   5.985   1.093   1.469  0.3630 -0.2414 -1.2001
   67MOL   C11349085   6.097   0.983   1.596  0.1453 -1.0777 -0.0184
   67MOL   O11449086   6.180   0.896   1.621 -0.2229  0.0634  0.2091
   67MOL   C11549087   6.039   1.069   1.718  0.0033  0.0589  0.3280
   67MOL   C11649088   6.034   0.986   1.840 -0.1182 -0.3300 -0.0755
   67MOL   C11749089   5.931   1.042   1.945  0.3450 -0.2312  0.4653
   67MOL   C11849090   5.917   0.954   2.063  0.8291  0.0218  0.1554
   67MOL   C11949091   5.812   0.996   2.168 -0.2687 -0.0218 -0.2458
   67MOL   C12049092   5.803   0.895   2.288 -0.6631  0.2618  0.1731
   67MOL   C12149093   5.698   0.930   2.399  0.1832 -0.0524  0.7213
   67MOL   C12249094   5.702   0.826   2.507  0.3077 -0.9919  0.5745
   67MOL   C12349095   5.601   0.854   2.618  0.4490 -0.2812 -0.2518
   67MOL   C12449096   5.615   0.767   2.743 -0.3601  0.0404  0.0971
   67MOL   C12549097   5.506   0.806   2.841 -0.1711 -0.2551  0.3538
   67MOL   N12649098   5.513   0.738   2.969  0.5355 -0.5873  0.3829
   67MOL   H12749099   5.946   1.121   1.693  0.1269 -0.4188 -1.1571
   67MOL   H12849100   6.117   1.140   1.746  0.5311 -1.1817  2.1315
   67MOL   H12949101   6.015   0.881   1.822 -2.9977  0.1914 -0.2442
   67MOL   H13049102   6.132   0.995   1.888 -1.6665  3.3429  2.6864
   67MOL   H13149103   5.832   1.059   1.904  0.7946  2.6116  0.4652
   67MOL   H13249104   5.972   1.137   1.977  2.3104 -0.8249 -0.2305
   67MOL   H13349105   5.896   0.854   2.025 -0.8783  0.8747 -1.2489
   67MOL   H13449106   6.012   0.949   2.116  0.5951  1.9043  0.7796
   67MOL   H13549107   5.716   1.004   2.116  0.2694  0.1854 -1.2199
   67MOL   H13649108   5.822   1.095   2.210 -1.6341  1.0259 -2.2895
   67MOL   H13749109   5.899   0.891   2.339 -1.4233  1.8339  1.7499
   67MOL   H13849110   5.785   0.792   2.257 -1.3442 -0.4620  2.9111
   67MOL   H13949111   5.595   0.932   2.364  0.2544 -1.9329  0.3462
   67MOL   H14049112   5.721   1.029   2.439 -0.8693 -0.4031  2.2437
   67MOL   H14149113   5.805   0.821   2.543  1.1474  0.7991 -1.4986
   67MOL   H14249114   5.677   0.726   2.470 -0.5826 -0.7562  0.5339
   67MOL   H14349115   5.502   0.836   2.577 -0.2234  1.7841  0.3622
   67MOL   H14449116   5.615   0.958   2.648 -0.2075 -0.4890  0.7948
   67MOL   H14549117   5.709   0.799   2.789  1.0358 -0.6157 -2.2121
   67MOL   H14649118   5.613   0.660   2.722  0.8243 -0.1181  0.7291
   67MOL   H14749119   5.409   0.788   2.796 -0.0005  0.4053 -0.2990
   67MOL   H14849120   5.513   0.915   2.852  0.9213 -0.2922  0.1160
   67MOL   H14949121   5.556   0.789   3.045 -2.3794 -0.2988  1.8785
   67MOL   C15049122   5.467   0.616   2.985  0.3819  0.7322 -0.7325
   67MOL   O15149123   5.416   0.547   2.892 -0.5789 -0.6653  0.3401
   67MOL   C15249124   5.470   0.556   3.126  0.1719 -0.3228 -0.1965
   67MOL   C15349125   5.334   0.540   3.192 -0.0825  0.1399  0.2950
   67MOL   C15449126   5.269   0.408   3.137  0.3498  0.0923 -0.0392
   67MOL   C15549127   5.132   0.385   3.190 -0.2214  0.8398 -0.2913
   67MOL   C15649128   5.060   0.277   3.104  0.0910  0.1952  0.3033
   67MOL   C15749129   4.911   0.267   3.142  0.0238 -0.3190  0.1939
   67MOL   C15849130   4.839   0.153   3.083 -0.4546  0.4923 -0.3987
   67MOL   C15949131   4.898   0.020   3.124 -0.2424 -0.0653 -0.4748
   67MOL   C16049132   4.806   7.597   3.092 -0.5475  0.2330  0.4109
   67MOL   C16149133   4.866   7.459   3.117  0.6524 -0.1152 -0.2895
   67MOL   C16249134   4.765   7.353   3.077  0.2534  0.0311 -0.7282
   67MOL   N16349135   4.816   7.221   3.101 -0.8109 -0.2028 -0.2397
   67MOL   H16449136   5.531   0.631   3.177 -1.4375  0.3640  0.7737
   67MOL   H16549137   5.533   0.468   3.132 -1.2087 -1.4604 -1.9221
   67MOL   H16649138   5.348   0.525   3.299  2.1170  1.6376  0.2518
   67MOL   H16749139   5.260   0.618   3.176 -0.4964 -0.7167 -2.2210
   67MOL   H16849140   5.339   0.328   3.160 -0.4721 -0.5905  0.1038
   67MOL   H16949141   5.269   0.407   3.028  0.9316 -2.0139 -0.0486
   67MOL   H17049142   5.133   0.362   3.297 -0.2379  3.2834  0.2498
   67MOL   H17149143   5.077   0.479   3.187  1.4088  1.8046  0.0755
   67MOL   H17249144   5.107   0.181   3.126 -0.3136 -0.4730 -1.6498
   67MOL   H17349145   5.076   0.303   3.000 -1.5224  0.3397  0.0692
   67MOL   H17449146   4.877   0.369   3.123  0.5217 -0.3239 -0.7321
   67MOL   H17549147   4.907   0.260   3.251 -4.1041  0.1012  0.1442
   67MOL   H17649148   4.846   0.159   2.975 -0.3153 -0.3331 -0.4341
   67MOL   H17749149   4.736   0.170   3.115 -1.0776  0.5925 -2.4343
   67MOL   H17849150   4.924   0.005   3.228 -0.3810 -0.7439 -0.5346
   67MOL   H17949151   4.982   0.001   3.057 -0.7804  1.7139 -1.6704
   67MOL   H18049152   4.767   7.608   2.991 -2.1185  0.1501  1.0064
   67MOL   H18149153   4.719   7.618   3.154  0.2865 -1.3660  2.1854
   67MOL   H18249154   4.897   7.449   3.220  2.9059  1.4899 -0.7781
   67MOL   H18349155   4.952   7.456   3.050 -0.0762 -1.9996 -1.1743
   67MOL   H18449156   4.734   7.368   2.974  2.2964 -0.6100 -1.4638
   67MOL   H18549157   4.669   7.356   3.129  0.7093 -1.7386  0.2824
   67MOL   H18649158   4.858   7.196   3.189 -0.3318  0.9445 -0.1475
   67MOL   C18749159   4.835   7.126   3.007 -0.0975  0.1844  0.7718
   67MOL   O18849160   4.793   7.125   2.895  0.3935  0.2717  0.3882
   67MOL   C18949161   4.917   7.004   3.049  0.0830  0.5561 -0.6769
   67MOL   C19049162   4.863   6.866   2.996  0.4817 -0.3131 -0.0710
   67MOL   C19149163   4.732   6.815   3.068 -0.4127 -0.1853 -0.0743
   67MOL   C19249164   4.592   6.870   3.038  0.0781 -0.7349 -0.0388
   67MOL   C19349165   4.538   6.982   3.128  0.4343 -0.0208  0.4771
   67MOL   C19449166   4.386   7.008   3.096 -0.1215 -0.4229 -1.1192
   67MOL   C19549167   4.330   7.139   3.170  0.2664  0.5132  0.9720
   67MOL   C19649168   4.178   7.171   3.137 -0.1309 -0.2242 -0.3626
   67MOL   C19749169   4.120   7.303   3.188  0.2172  0.4898  0.2252
   67MOL   C19849170   3.996   7.342   3.108  0.8207 -0.6120 -0.3861
   67MOL   C19949171   3.879   7.244   3.104 -0.6395 -0.3734 -0.1471
   67MOL   N20049172   3.769   7.292   3.025  0.0645  0.3108 -0.2293
   67MOL   H20149173   4.921   7.002   3.158 -2.2763  0.0630 -0.5693
   67MOL   H20249174   5.017   7.017   3.009  1.1564 -0.1878  1.6952
   67MOL   H20349175   4.833   6.872   2.892 -1.0184  0.8229  0.4123
   67MOL   H20449176   4.950   6.801   3.007 -0.0831 -0.9043  0.9205
   67MOL   H20549177   4.739   6.819   3.177 -1.5167  0.9927 -0.0404
   67MOL   H20649178   4.729   6.709   3.044 -1.7112 -0.1426 -0.1807
   67MOL   H20749179   4.593   6.897   2.932 -1.6818 -3.3851 -0.7560
   67MOL   H20849180   4.525   6.785   3.043 -0.0928 -0.6335 -0.4991
   67MOL   H20949181   4.585   7.077   3.104 -1.0229  1.2097  2.3590
   67MOL   H21049182   4.559   6.967   3.234  2.6070  0.4107  0.1228
   67MOL   H21149183   4.333   6.920   3.130  0.7517 -0.5023  0.0721
   67MOL   H21249184   4.367   7.021   2.989 -0.1404  0.6480 -0.9976
   67MOL   H21349185   4.396   7.219   3.136  0.9003  1.1482  3.5914
   67MOL   H21449186   4.355   7.128   3.276 -2.8918 -1.5484  1.5626
   67MOL   H21549187   4.116   7.090   3.176 -1.8478  1.7828  1.1509
   67MOL   H21649188   4.163   7.170   3.029  0.0908 -0.7606 -0.3927
   67MOL   H21749189   4.200   7.373   3.165 -2.4433  2.8913 -2.1594
   67MOL   H21849190   4.095   7.301   3.295 -0.7396 -0.7793 -0.0136
   67MOL   H21949191   4.027   7.370   3.007 -0.6855 -0.6611 -0.8756
   67MOL   H22049192   3.960   7.436   3.150 -0.7670 -0.9128 -1.0087
   67MOL   H22149193   3.836   7.214   3.200 -0.5562  0.6697  0.2215
   67MOL   H22249194   3.911   7.156   3.048 -0.6861 -0.4032 -0.1267
   67MOL   H22349195   3.767   7.237   2.941  0.5523 -1.7436  1.0631
   67MOL   C22449196   3.685   7.394   3.047  0.1937  0.1499  0.3734
   67MOL   O22549197   3.682   7.463   3.144  0.4295  0.4698 -0.6164
   67MOL   C22649198   3.593   7.433   2.932 -0.6706  0.0215 -0.1079
   67MOL   C22749199   3.652   7.553   2.848 -0.0951  0.8721  0.0203
   67MOL   C22849200   3.791   7.520   2.781 -0.8300 -0.3688 -0.0655
   67MOL   C22949201   3.852   7.647   2.711  0.2731 -0.5690  0.5678
   67MOL   C23049202   3.974   7.623   2.628 -0.3783 -0.7505  0.2854
   67MOL   C23149203   4.037   0.065   2.586  0.2889 -0.3268  0.3385
   67MOL   C23249204   4.163   0.053   2.501 -0.3732 -0.0638  0.3982
   67MOL   C23349205   4.220   0.183   2.444  0.5491  0.5032  0.5044
   67MOL   C23449206   4.348   0.148   2.356 -0.4206  0.0800 -0.0065
   67MOL   C23549207   4.415   0.279   2.317  0.2052  0.1645 -0.0046
   67MOL   C23649208   4.539   0.263   2.218 -0.6281  0.3792 -0.4603
   67MOL   N23749209   4.500   0.171   2.112 -0.5220  0.2712  0.6693
   67MOL   H23849210   3.500   7.462   2.982 -1.0336  0.3677 -0.9781
   67MOL   H23949211   3.587   7.350   2.863 -0.4975  0.0198 -0.1213
   67MOL   H24049212   3.579   7.581   2.772 -1.3230 -3.1392 -0.4067
   67MOL   H24149213   3.651   7.643   2.910 -0.2935  2.1217 -1.7671
   67MOL   H24249214   3.783   7.443   2.704 -1.7666 -0.0425 -0.2972
   67MOL   H24349215   3.863   7.478   2.852 -0.8742  2.2636  1.5686
   67MOL   H24449216   3.776   7.689   2.645  0.8785 -2.5321 -1.4661
   67MOL   H24549217   3.876   0.026   2.788  1.3934 -0.3244 -0.0004
   67MOL   H24649218   3.943   7.579   2.533 -0.9856  1.1007 -0.4049
   67MOL   H24749219   4.051   7.573   2.686  0.0351 -1.5958 -0.9572
   67MOL   H24849220   4.058   0.136   2.667  0.0483 -0.1563  0.2540
   67MOL   H24949221   3.959   0.108   2.523 -0.1249 -1.9317 -0.2640
   67MOL   H25049222   4.128   7.685   2.418  0.3729 -3.6706  2.6326
   67MOL   H25149223   4.240   7.690   2.553 -1.0187 -1.3822 -0.0655
   67MOL   H25249224   4.258   0.243   2.526  0.8440  0.5299  0.3491
   67MOL   H25349225   4.140   0.233   2.388 -0.3063  0.2250  1.4583
   67MOL   H25449226   4.304   0.085   2.278  0.0179  1.2152 -1.1818
   67MOL   H25549227   4.416   0.088   2.417 -1.9010 -0.1199  1.4709
   67MOL   H25649228   4.468   0.306   2.408  1.5662 -1.6653 -0.2345
   67MOL   H25749229   4.336   0.348   2.288  0.6450  0.5514 -0.2757
   67MOL   H25849230   4.624   0.227   2.276  1.1091  2.0744 -1.8728
   67MOL   H25949231   4.567   0.364   2.186 -0.5276  0.5468  0.1464
   67MOL   H26049232   4.473   0.075   2.126 -0.0921  0.0664  0.1409
   67MOL   C26149233   4.507   0.207   1.979  0.6980 -0.2391  0.6061
   67MOL   O26249234   4.535   0.321   1.937  0.2447  0.7571 -0.2157
   67MOL   C26349235   4.483   0.100   1.879  0.0288  0.2746 -0.6919
   67MOL   C26449236   4.549   0.125   1.741 -0.2590  0.2427 -0.9076
   67MOL   C26549237   4.702   0.102   1.745 -0.3670  0.2422  0.4209
   67MOL   C26649238   4.764   0.072   1.610 -0.1580 -0.1772  0.1971
   67MOL   C26749239   4.913   0.046   1.637  0.6483 -0.2093 -0.5091
   67MOL   C26849240   4.990   0.024   1.507  0.3589  0.6209 -0.5523
   67MOL   C26949241   5.146   0.013   1.522  0.7722  0.5423  0.0279
   67MOL   C27049242   5.237   0.018   1.386 -0.2649 -0.0039 -0.1499
   67MOL   C27149243   5.186   0.122   1.284  0.2392 -0.0407  0.0969
   67MOL   C27249244   5.297   0.149   1.175 -0.4791  0.4432 -0.3023
   67MOL   C27349245   5.256   0.254   1.070  0.1683  0.6037  0.1490
   67MOL   N27449246   5.374   0.282   0.987  0.2528  0.3387 -0.0769
   67MOL   H27549247   4.376   0.106   1.859 -0.0590  2.4419  0.2291
   67MOL   H27649248   4.503   0.000   1.917 -0.6384  0.1088 -0.7724
   67MOL   H27749249   4.500   0.063   1.666 -0.9164 -1.9200  1.2361
   67MOL   H27849250   4.527   0.230   1.723  2.1344  0.8079 -0.8179
   67MOL   H27949251   4.717   0.014   1.806 -1.7249  0.1192  0.6072
   67MOL   H28049252   4.749   0.193   1.781  1.7514 -0.4856 -0.4347
   67MOL   H28149253   4.729   7.674   1.564 -1.0320  0.6463 -0.8294
   67MOL   H28249254   4.754   0.154   1.538 -0.0509 -0.6935 -0.4150
   67MOL   H28349255   4.932   7.666   1.716 -3.0846  0.8343  1.4696
   67MOL   H28449256   4.958   0.140   1.669  0.1871 -0.7739  1.8956
   67MOL   H28549257   4.970   0.107   1.440  2.0398  1.7232  0.2720
   67MOL   H28649258   4.943   7.633   1.456 -1.0665  0.9334  0.2405
   67MOL   H28749259   5.161   7.618   1.583 -1.1301 -0.6050 -1.0954
   67MOL   H28849260   5.174   0.099   1.584  1.1220  1.1083 -0.9069
   67MOL   H28949261   5.230   7.619   1.329 -0.0854 -2.3487  3.4937
   67MOL   H29049262   5.337   0.044   1.420 -0.2170  0.1860 -0.4360
   67MOL   H29149263   5.144   0.205   1.342  0.6596 -0.6418  1.2839
   67MOL   H29249264   5.108   0.081   1.221 -0.0586 -1.0761  1.1193
   67MOL   H29349265   5.316   0.056   1.122 -0.2786  0.7583 -0.7848
   67MOL   H29449266   5.386   0.184   1.226 -0.7200 -1.8881  1.8262
   67MOL   H29549267   5.205   0.342   1.109  0.5512  0.7384  0.3490
   67MOL   H29649268   5.188   0.199   1.006 -0.5036  0.9788  0.5346
   67MOL   H29749269   5.461   0.273   1.037  0.4092  0.7037 -0.2795
   67MOL   C29849270   5.371   0.319   0.863 -0.6298 -0.8680  0.8064
   67MOL   O29949271   5.267   0.331   0.798 -0.1230  0.1204 -0.0220
   67MOL   C30049272   5.512   0.357   0.802 -0.7359 -0.2291 -0.2979
   67MOL   C30149273   5.514   0.389   0.652 -0.4482  0.1405  0.0103
   67MOL   C30249274   5.641   0.466   0.610 -0.5610 -0.1229 -0.1326
   67MOL   C30349275   5.645   0.499   0.464 -1.0848 -0.0562  0.1694
   67MOL   C30449276   5.774   0.588   0.419  0.5940  0.3524  0.4662
   67MOL   C30549277   5.782   0.618   0.272  0.0328  0.0784  0.4995
   67MOL   C30649278   5.652   0.675   0.209  0.1590  0.0816 -0.2232
   67MOL   C30749279   5.616   0.823   0.236  0.3277 -0.5180 -0.2048
   67MOL   C30849280   5.487   0.874   0.160 -0.6698  0.8901  0.2336
   67MOL   C30949281   5.451   1.021   0.187 -0.4487 -0.1774 -0.1407
   67MOL   C31049282   5.303   1.043   0.147  0.1231  0.5594 -0.4908
   67MOL   N31149283   5.284   1.007   0.006  0.1492 -0.8557 -0.4189
   67MOL   H31249284   5.583   0.279   0.829 -0.0846  0.3174 -0.4297
   67MOL   H31349285   5.550   0.444   0.855  0.1148 -0.1455 -1.0302
   67MOL   H31449286   5.520   0.293   0.599  0.9832  0.8593 -1.1761
   67MOL   H31549287   5.429   0.446   0.615 -0.0977  1.3425  1.0390
   67MOL   H31649288   5.726   0.403   0.635 -1.8278 -1.3944  1.0992
   67MOL   H31749289   5.653   0.561   0.662  1.3757  0.2707 -1.2427
   67MOL   H31849290   5.622   0.415   0.399  0.7982  0.5015 -1.2754
   67MOL   H31949291   5.565   0.570   0.448 -0.1018  1.4821  1.9147
   67MOL   H32049292   5.861   0.524   0.434  0.6973 -0.5323 -3.3837
   67MOL   H32149293   5.795   0.683   0.468  0.1190  0.6438  0.1137
   67MOL   H32249294   5.800   0.520   0.227 -0.1754 -0.1131  0.8350
   67MOL   H32349295   5.863   0.687   0.251  0.5502 -0.1802  1.5996
   67MOL   H32449296   5.564   0.612   0.220 -0.1652  0.4330 -0.7768
   67MOL   H32549297   5.671   0.666   0.103  0.2066  0.0341 -0.2105
   67MOL   H32649298   5.693   0.898   0.221 -0.9509  1.0118  0.7260
   67MOL   H32749299   5.597   0.829   0.343 -0.8905 -0.0976 -0.4398
   67MOL   H32849300   5.402   0.810   0.186 -0.7836  1.3680  1.0756
   67MOL   H32949301   5.501   0.870   0.052 -0.2578 -1.4748  0.3400
   67MOL   H33049302   5.519   1.089   0.137 -0.2053  0.5654  1.1866
   67MOL   H33149303   5.467   1.042   0.293  1.3623 -0.6581 -0.3031
   67MOL   H33249304   5.273   1.146   0.162  1.1959  0.7245  0.5591
   67MOL   H33349305   5.242   0.979   0.211  0.0934  1.0540 -0.0211
   67MOL   H33449306   5.362   1.020   7.637 -0.0570 -0.0302 -0.5040
   67MOL   C33549307   5.180   0.943   7.654  0.4478  0.3840  0.0835
   67MOL   O33649308   5.081   0.920   0.033  0.5290  0.1746 -0.7178
   67MOL   C33749309   5.179   0.919   7.499  0.0523 -0.3966 -0.2429
   67MOL   C33849310   5.181   0.770   7.459 -0.3911 -0.2320 -0.6756
   67MOL   C33949311   5.168   0.755   7.307  0.5305 -0.4542 -0.2252
   67MOL   C34049312   5.151   0.610   7.260  0.3531  0.4790  0.0737
   67MOL   C34149313   5.087   0.602   7.114  0.1027 -0.3925 -0.7102
   67MOL   C34249314   5.084   0.469   7.037 -0.0654 -0.1794 -0.0217
   67MOL   C34349315   5.001   0.354   7.092  0.3886 -0.5047  0.2658
   67MOL   C34449316   5.010   0.227   7.009 -0.3550  0.0439  0.3176
   67MOL   C34549317   5.134   0.145   7.040 -0.2563 -0.5506 -0.1963
   67MOL   C34649318   5.139   0.014   6.963 -0.1190  0.2994  0.1099
   67MOL   C34749319   5.251   7.620   7.008 -0.0195  0.5293 -0.6383
   67MOL   N34849320   5.246   7.487   6.939 -0.1354  0.0311 -0.7520
   67MOL   H34949321   5.252   0.981   7.447  0.5264 -0.0561  0.8125
   67MOL   H35049322   5.088   0.960   7.455  0.3277 -1.1503 -1.5241
   67MOL   H35149323   5.279   0.733   7.487  0.6323  1.7577 -1.5832
   67MOL   H35249324   5.107   0.717   7.520 -0.1222 -0.5511 -0.6279
   67MOL   H35349325   5.265   0.788   7.270  1.2457 -1.0869  1.0447
   67MOL   H35449326   5.089   0.819   7.268  1.2614 -0.5773 -1.9382
   67MOL   H35549327   5.245   0.554   7.251 -0.7765 -1.5544  0.5981
   67MOL   H35649328   5.103   0.546   7.334  3.0864 -1.7881 -0.0179
   67MOL   H35749329   5.140   0.671   7.049 -1.8902  0.9296 -0.9706
   67MOL   H35849330   4.984   0.639   7.118  0.4978  0.6668 -0.1350
   67MOL   H35949331   5.186   0.431   7.033 -0.2364 -0.5089 -1.6067
   67MOL   H36049332   5.053   0.486   6.934 -0.6228 -0.3986  0.1085
   67MOL   H36149333   4.897   0.384   7.088  0.0028 -1.7026  0.9860
   67MOL   H36249334   5.016   0.342   7.199 -0.5701 -2.5057  0.1864
   67MOL   H36349335   5.004   0.241   6.901  1.1143 -1.6345 -0.0004
   67MOL   H36449336   4.920   0.170   7.031  0.0224 -0.7195 -0.1119
   67MOL   H36549337   5.138   0.124   7.147  0.7797  2.3145  0.3794
   67MOL   H36649338   5.219   0.208   7.015 -1.0496  0.0126 -1.5084
   67MOL   H36749339   5.147   0.031   6.856 -0.5580 -2.3097 -0.3741
   67MOL   H36849340   5.039   7.664   6.972  0.7043 -1.6371  0.0485
   67MOL   H36949341   5.234   7.599   7.113  0.5287  0.8297 -0.4893
   67MOL   H37049342   5.349   7.667   7.000  0.5677 -0.8722 -1.9177
   67MOL   H37149343   5.177   7.464   6.869 -0.6043 -3.6868  0.7991
   67MOL   C37249344   5.331   7.386   6.966 -0.2610 -0.0927 -1.3876
   67MOL   O37349345   5.428   7.407   7.044 -0.1922  0.0549 -0.8815
   67MOL   C37449346   5.314   7.250   6.897  0.2034  0.1536 -0.4141
   67MOL   C37549347   5.434   7.216   6.798  0.6055 -0.1368  0.0961
   67MOL   C37649348   5.396   7.091   6.710 -0.1226 -0.1484 -0.5512
   67MOL   C37749349   5.509   7.040   6.621 -0.4056  0.1488  0.4883
   67MOL   C37849350   5.476   6.911   6.550  0.2413 -0.3274 -0.1884
   67MOL   C37949351   5.588   6.883   6.445 -0.0942 -0.3310 -0.2611
   67MOL   C38049352   5.573   6.742   6.380  0.1006  0.5828  0.0867
   67MOL   C38149353   5.581   6.622   6.483 -0.1444 -0.1423  0.4743
   67MOL   C38249354   5.594   6.481   6.414  0.1243  0.6296 -0.3067
   67MOL   C38349355   5.622   6.365   6.511 -0.7072  0.1219  0.2300
   67MOL   C38449356   5.759   6.361   6.571 -0.1634 -0.3617 -0.2971
   67MOL   N38549357   5.788   6.240   6.646 -0.1319  0.2995  0.8468
   67MOL   H38649358   5.215   7.233   6.854  0.7566 -2.6241 -0.6885
   67MOL   H38749359   5.320   7.176   6.976 -1.6301  2.5257  2.0540
   67MOL   H38849360   5.442   7.298   6.726  2.3460 -1.3789 -1.1576
   67MOL   H38949361   5.527   7.197   6.850 -0.0914 -3.6355  0.1722
   67MOL   H39049362   5.309   7.105   6.646 -0.0212 -1.4323 -0.9840
   67MOL   H39149363   5.373   7.007   6.775  2.2036  0.0395  0.5931
   67MOL   H39249364   5.528   7.120   6.549  1.9287 -0.9796 -0.2079
   67MOL   H39349365   5.604   7.042   6.674 -0.4987  1.3672  0.6436
   67MOL   H39449366   5.383   6.923   6.496  0.6790  0.7900 -0.7002
   67MOL   H39549367   5.467   6.828   6.621 -0.2588 -1.9550 -2.1017
   67MOL   H39649368   5.685   6.888   6.495  0.0437  0.1995 -0.5842
   67MOL   H39749369   5.587   6.967   6.375  2.0919  2.0195  2.3921
   67MOL   H39849370   5.640   6.733   6.294 -2.6672 -1.0475 -1.9662
   67MOL   H39949371   5.474   6.745   6.336 -0.4951 -1.0681  1.2708
   67MOL   H40049372   5.491   6.631   6.543  1.6156  1.0035  3.0216
   67MOL   H40149373   5.661   6.638   6.555  1.8199 -0.2801 -1.5822
   67MOL   H40249374   5.677   6.492   6.344 -0.0829 -0.1380 -0.6748
   67MOL   H40349375   5.495   6.466   6.371 -0.4793  3.6785 -0.1003
   67MOL   H40449376   5.612   6.273   6.453 -2.4258  0.1150  0.5235
   67MOL   H40549377   5.543   6.365   6.586 -0.5130  1.5204  0.4415
   67MOL   H40649378   5.775   6.443   6.642 -0.0990 -0.9595  0.3857
   67MOL   H40749379   5.829   6.372   6.488  0.4358 -0.6054  0.1713
   67MOL   H40849380   5.844   6.166   6.604 -2.2163 -1.0675  0.4268
   67MOL   C40949381   5.726   6.193   6.750 -0.6072  0.0526 -0.3937
   67MOL   O41049382   5.637   6.255   6.808  0.7299  0.9313  0.4774
   67MOL   C41149383   5.781   6.059   6.807 -1.0605 -0.5899 -0.2449
   67MOL   C41249384   5.686   5.978   6.893 -0.0861 -0.7021  0.5612
   67MOL   C41349385   5.587   5.881   6.812 -0.5644 -0.1876 -0.0422
   67MOL   C41449386   5.498   5.809   6.912 -0.8052  0.2319  0.2532
   67MOL   C41549387   5.373   5.736   6.838  0.2247  0.6506  0.0873
   67MOL   C41649388   5.321   5.623   6.915  0.5040  0.6571  0.0915
   67MOL   C41749389   5.198   5.563   6.852 -0.2766  0.2348 -0.4873
   67MOL   C41849390   5.129   5.456   6.944 -0.2183  0.1020 -0.0547
   67MOL   C41949391   5.033   5.367   6.863  0.1807  0.7180  0.0263
   67MOL   C42049392   5.104   5.276   6.762  0.4385  1.1634 -0.2328
   67MOL   C42149393   5.025   5.183   6.676 -0.0537 -0.3948  0.3349
   67MOL   N42249394   4.925   5.253   6.590  0.4359 -0.1735  0.1854
   67MOL   H42349395   5.869   6.096   6.860  0.5144 -0.8915 -2.5603
   67MOL   H42449396   5.825   6.000   6.727 -0.2820 -1.3774  0.7507
   67MOL   H42549397   5.746   5.926   6.967  0.0967 -0.8943  0.2784
   67MOL   H42649398   5.629   6.046   6.956  1.9267  2.0355 -0.4679
   67MOL   H42749399   5.640   5.807   6.753  1.7514  0.6098  1.0032
   67MOL   H42849400   5.531   5.943   6.741  0.1911  1.1826  0.5299
   67MOL   H42949401   5.561   5.736   6.963 -2.1224 -1.4951 -0.5353
   67MOL   H43049402   5.453   5.878   6.983 -2.3519 -0.4348 -0.0518
   67MOL   H43149403   5.421   5.681   6.757 -1.1862 -0.3336 -0.1107
   67MOL   H43249404   5.303   5.811   6.799 -0.3469  1.1243  1.9950
   67MOL   H43349405   5.285   5.656   7.013  0.9402  2.0448 -0.2049
   67MOL   H43449406   5.398   5.551   6.943  0.1272  0.3088  0.2398
   67MOL   H43549407   5.223   5.537   6.749 -1.3723  0.3206 -0.7918
   67MOL   H43649408   5.118   5.635   6.834 -0.8882 -0.2362  0.2952
   67MOL   H43749409   5.081   5.504   7.030 -1.7996 -0.2575 -0.7321
   67MOL   H43849410   5.202   5.392   6.993  3.5547  3.6001 -0.8520
   67MOL   H43949411   4.967   5.440   6.817 -1.3101 -0.9792 -0.6018
   67MOL   H44049412   4.964   5.314   6.929  0.3718  1.4736  0.8482
   67MOL   H44149413   5.177   5.219   6.819 -0.3885  1.0045  0.6744
   67MOL   H44249414   5.169   5.346   6.709  1.3525  0.0165 -0.6559
   67MOL   H44349415   4.984   5.098   6.730 -2.1753 -0.8140 -1.8324
   67MOL   H44449416   5.097   5.123   6.619  0.8630  0.7618  0.2591
   67MOL   H44549417   4.952   5.343   6.554  2.4593 -1.1948 -0.9308
   67MOL   C44649418   4.801   5.214   6.553 -0.1731  0.7327  0.0504
   67MOL   O44749419   4.759   5.100   6.583  0.4300 -0.2790  0.1822
   67MOL   C44849420   4.714   5.312   6.483  0.0424 -0.0718  0.0440
   67MOL   C44949421   4.714   5.285   6.329  0.0515 -0.0054 -0.1301
   67MOL   C45049422   4.852   5.320   6.263  0.0209 -0.3828 -0.4327
   67MOL   C45149423   4.856   5.322   6.111 -0.5954  0.9520  0.1221
   67MOL   C45249424   4.778   5.421   6.029  0.6186  0.0847  0.3505
   67MOL   C45349425   4.808   5.573   6.045 -0.2817  0.6116 -0.3553
   67MOL   C45449426   4.957   5.599   6.035  0.3974 -0.6647 -0.3218
   67MOL   C45549427   4.991   5.746   6.034  0.5718 -0.7681 -0.6083
   67MOL   C45649428   5.146   5.773   6.044  0.0512  0.2014 -0.3527
   67MOL   C45749429   5.177   5.918   6.023 -0.3804 -0.0589 -0.3701
   67MOL   C45849430   5.328   5.949   6.045 -0.7313 -0.4419  0.5124
   67MOL   N45949431   5.351   6.092   6.005  0.4555 -0.0886 -0.0376
   67MOL   H46049432   4.740   5.417   6.497  0.1702  0.0514 -1.1318
   67MOL   H46149433   4.609   5.297   6.509 -0.2428 -0.7980 -1.4785
   67MOL   H46249434   4.691   5.182   6.303 -0.1284 -0.0548  0.2329
   67MOL   H46349435   4.633   5.337   6.278  0.3428 -0.2559 -0.8539
   67MOL   H46449436   4.927   5.248   6.297  0.2519  0.1771  0.2479
   67MOL   H46549437   4.889   5.416   6.298  0.4363  0.1490 -2.2433
   67MOL   H46649438   4.961   5.325   6.080 -0.7866 -1.0524 -0.7619
   67MOL   H46749439   4.822   5.221   6.090 -1.3683  0.9997  1.1567
   67MOL   H46849440   4.669   5.409   6.033  0.6916 -0.1894  1.9301
   67MOL   H46949441   4.799   5.402   5.924 -2.0278  1.0533 -0.3914
   67MOL   H47049442   4.766   5.592   6.143  0.9097  1.5317 -0.0023
   67MOL   H47149443   4.765   5.635   5.967 -0.1881  1.8441  0.5553
   67MOL   H47249444   4.995   5.559   5.941 -2.3794  1.8362 -2.5831
   67MOL   H47349445   5.012   5.544   6.112 -0.6219 -3.4748 -1.5451
   67MOL   H47449446   4.928   5.796   6.109  0.8370 -0.9563 -0.2575
   67MOL   H47549447   4.962   5.785   5.937  0.3737 -2.0948 -1.0906
   67MOL   H47649448   5.199   5.703   5.979  0.0472  0.1865 -0.3408
   67MOL   H47749449   5.170   5.754   6.148 -0.7638  1.4157  0.0622
   67MOL   H47849450   5.125   5.980   6.096 -0.1332  0.3096 -0.5082
   67MOL   H47949451   5.138   5.955   5.928 -1.3035  1.0795  0.4373
   67MOL   H48049452   5.388   5.897   5.971 -1.6157  0.9091 -1.1780
   67MOL   H48149453   5.368   5.923   6.143  1.3432 -2.6918 -0.8718
   67MOL   H48249454   5.304   6.132   5.925 -0.2164  0.3424  0.5537
   67MOL   C48349455   5.408   6.187   6.082  0.4525 -0.0172 -0.2404
   67MOL   O48449456   5.463   6.159   6.190  0.0094  0.2698 -0.0177
   67MOL   C48549457   5.420   6.331   6.022 -0.2921 -0.1475  0.1715
   67MOL   C48649458   5.360   6.446   6.103  0.3756  0.0384 -0.1780
   67MOL   C48749459   5.216   6.488   6.059  0.1902 -0.2601 -0.0246
   67MOL   C48849460   5.160   6.602   6.146  0.1566 -0.2243 -0.3357
   67MOL   C48949461   5.170   6.570   6.294  1.1209 -0.2205  0.3721
   67MOL   C49049462   5.101   6.675   6.384  0.5171 -0.7215  0.2105
   67MOL   C49149463   5.159   6.663   6.528  0.0016 -0.7120 -0.4582
   67MOL   C49249464   5.076   6.746   6.631  0.2168 -0.0040 -0.2804
   67MOL   C49349465   5.072   6.898   6.611  0.2353  0.3632 -0.3312
   67MOL   C49449466   5.019   6.978   6.729  0.1034  0.0169  0.6833
   67MOL   C49549467   4.971   7.112   6.685  0.7529 -0.1784 -0.8261
   67MOL   N49649468   4.914   7.173   6.808 -0.3000 -0.1986  0.2306
   67MOL   H49749469   5.385   6.332   5.919  2.1891 -2.8888 -0.7543
   67MOL   H49849470   5.527   6.342   6.006 -0.2624 -0.0766  0.4134
   67MOL   H49949471   5.362   6.415   6.208  0.1132 -0.4411 -0.3138
   67MOL   H50049472   5.423   6.535   6.102 -1.1784  1.1991  2.2253
   67MOL   H50149473   5.164   6.392   6.056 -0.1085 -0.2331  3.0087
   67MOL   H50249474   5.216   6.524   5.956 -1.6390  0.4790  0.2083
   67MOL   H50349475   5.218   6.691   6.121  1.6068 -1.4550 -1.4666
   67MOL   H50449476   5.053   6.613   6.127  0.0099  0.7254  0.9951
   67MOL   H50549477   5.276   6.575   6.319  1.8152  2.0460 -2.6338
   67MOL   H50649478   5.140   6.468   6.319  2.0283 -0.8264 -0.9241
   67MOL   H50749479   4.994   6.657   6.373  0.4311 -1.4088  2.0797
   67MOL   H50849480   5.113   6.775   6.343  1.1259 -2.1625 -3.3636
   67MOL   H50949481   5.263   6.696   6.526 -0.4217  0.5820 -1.4246
   67MOL   H51049482   5.158   6.561   6.567  0.0525 -0.1519  1.0619
   67MOL   H51149483   5.127   6.736   6.727  1.1153 -1.7619 -0.9275
   67MOL   H51249484   4.972   6.715   6.646  0.0143  0.8059  0.0279
   67MOL   H51349485   5.025   6.922   6.515 -4.8582  1.3884  2.2270
   67MOL   H51449486   5.177   6.927   6.605  0.5171 -0.5520  0.1011
   67MOL   H51549487   5.092   6.977   6.810 -1.3722 -0.9983  2.0319
   67MOL   H51649488   4.935   6.921   6.771  0.5982 -0.9913  0.3322
   67MOL   H51749489   4.892   7.102   6.611 -1.6036 -1.2516  1.7544
   67MOL   H51849490   5.056   7.173   6.654  1.1097  1.0423  2.3229
   67MOL   H51949491   4.845   7.116   6.855 -0.9368  2.4759  2.7338
   67MOL   C52049492   4.927   7.297   6.855 -0.4276  0.3646 -0.2853
   67MOL   O52149493   5.008   7.379   6.813  0.3057  0.4016 -0.1238
   67MOL   C52249494   4.841   7.333   6.976  0.8567 -0.0726  0.3323
   67MOL   C52349495   4.765   7.470   6.962  0.3471  0.0253 -0.6944
   67MOL   C52449496   4.660   7.471   6.848  0.6971  0.3519  0.1998
   67MOL   C52549497   4.547   7.570   6.864  0.2039 -0.1847  0.0260
   67MOL   C52649498   4.438   7.550   6.751  0.4020 -0.7830  0.0000
   67MOL   C52749499   4.300   7.615   6.784 -0.1909 -0.0867 -0.5048
   67MOL   C52849500   4.180   7.531   6.724  0.1460  0.6593  0.6369
   67MOL   C52949501   4.130   7.419   6.807 -0.2553  0.4335  0.8143
   67MOL   C53049502   4.051   7.318   6.726 -0.3719  0.3722  0.3935
   67MOL   C53149503   4.120   7.260   6.602 -0.4211 -0.1129  0.2935
   67MOL   C53249504   4.054   7.128   6.560  0.3010  0.3575 -0.5236
   67MOL   N53349505   4.104   7.089   6.425  0.0582  0.4212 -0.0988
   67MOL   H53449506   4.919   7.337   7.052  1.1385  2.7898 -0.0678
   67MOL   H53549507   4.773   7.252   7.004  1.2828 -0.5379  0.0166
   67MOL   H53649508   4.705   7.490   7.051 -1.5345 -1.6965 -1.5464
   67MOL   H53749509   4.840   7.549   6.961  0.9499 -0.5401 -2.0928
   67MOL   H53849510   4.612   7.374   6.849 -1.0303  1.1802  0.4012
   67MOL   H53949511   4.716   7.480   6.754  2.4411  0.9121  1.2553
   67MOL   H54049512   4.511   7.555   6.966  0.4441 -0.5648  0.0555
   67MOL   H54149513   4.578   7.674   6.873 -0.4483 -0.0677  0.9924
   67MOL   H54249514   4.415   7.445   6.737 -2.0632 -0.3888  0.8014
   67MOL   H54349515   4.470   7.570   6.649  1.1825  1.5337  0.6669
   67MOL   H54449516   4.293   0.016   6.730 -4.3136  0.7651  1.3063
   67MOL   H54549517   4.287   7.647   6.887  0.2190 -0.0273 -0.4687
   67MOL   H54649518   4.210   7.501   6.623  0.2910  1.5553  0.4113
   67MOL   H54749519   4.098   7.595   6.693  0.2159 -0.2330 -1.5088
   67MOL   H54849520   4.066   7.458   6.886 -3.5108  1.0419 -1.9891
   67MOL   H54949521   4.219   7.368   6.844  0.1726 -0.9922 -2.0296
   67MOL   H55049522   3.961   7.371   6.695 -1.0851 -1.3857 -0.5725
   67MOL   H55149523   4.011   7.236   6.786  0.0678 -1.6467 -2.0100
   67MOL   H55249524   4.228   7.253   6.617 -0.2450 -0.8066 -1.2047
   67MOL   H55349525   4.108   7.333   6.523 -2.3138  0.7782  1.3608
   67MOL   H55449526   3.946   7.137   6.556  0.3277  0.4506 -1.0077
   67MOL   H55549527   4.084   7.052   6.633 -0.1547  0.6839 -0.0009
   67MOL   H55649528   4.033   7.092   6.352  2.0217  0.2775 -2.0684
   67MOL   C55749529   4.217   7.022   6.394 -0.3794 -0.1076 -0.0728
   67MOL   O55849530   4.289   6.988   6.492  0.8969  0.2406 -0.0709
   67MOL   C55949531   4.253   6.978   6.248 -0.7590  0.5575  0.1003
   67MOL   C56049532   4.313   6.843   6.234  0.2443  0.0939  0.1742
   67MOL   C56149533   4.463   6.831   6.288 -0.7649 -0.0624 -0.2767
   67MOL   C56249534   4.522   6.690   6.262 -0.0233  0.1495 -0.2201
   67MOL   C56349535   4.645   6.661   6.341  0.8254  0.0795 -0.7461
   67MOL   C56449536   4.718   6.526   6.295  0.7196  0.1794 -0.3499
   67MOL   C56549537   4.768   6.536   6.151  0.7160 -0.1584 -0.0375
   67MOL   C56649538   4.843   6.414   6.110 -0.5836  0.8340  0.2866
   67MOL   C56749539   4.884   6.412   5.958  0.2970 -0.2042 -0.2859
   67MOL   C56849540   4.931   6.273   5.906  1.3790  0.4599  0.6788
   67MOL   C56949541   4.999   6.281   5.772  0.5111  0.1761  0.3957
   67MOL   N57049542   5.049   6.150   5.734 -0.2364  0.3042  0.1341
   67MOL   H57149543   4.320   7.054   6.207  1.5218 -1.1119  0.5887
   67MOL   H57249544   4.162   6.970   6.190 -0.2705 -1.1829 -0.4455
   67MOL   H57349545   4.241   6.774   6.279 -0.2666  1.7102  1.8813
   67MOL   H57449546   4.293   6.818   6.130 -0.0190  1.0953 -0.0217
   67MOL   H57549547   4.477   6.849   6.395 -0.4769 -2.4386  0.1095
   67MOL   H57649548   4.520   6.914   6.246 -1.9270  1.2255  0.6299
   67MOL   H57749549   4.443   6.617   6.278  0.8058 -0.9227 -0.9291
   67MOL   H57849550   4.531   6.684   6.154 -1.7668  0.1875 -0.3819
   67MOL   H57949551   4.592   6.655   6.436  1.0603 -2.3922 -0.7307
   67MOL   H58049552   4.717   6.742   6.350  1.8865 -0.8830 -0.4348
   67MOL   H58149553   4.662   6.433   6.295  0.7270  0.1727 -1.7204
   67MOL   H58249554   4.802   6.509   6.363  1.3363 -0.4043 -1.2469
   67MOL   H58349555   4.832   6.623   6.139  3.1570 -1.8726  0.1513
   67MOL   H58449556   4.683   6.550   6.084  1.2375 -2.4492 -1.2265
   67MOL   H58549557   4.788   6.325   6.139 -0.2487  1.3980  2.7197
   67MOL   H58649558   4.939   6.415   6.163  0.1385  1.3554 -0.9884
   67MOL   H58749559   4.974   6.473   5.952  1.4904 -2.0169 -1.5240
   67MOL   H58849560   4.803   6.448   5.895  0.3122  1.8934  0.8442
   67MOL   H58949561   4.840   6.212   5.905  0.8000  1.3203 -0.0048
   67MOL   H59049562   5.003   6.230   5.975  0.0228 -1.5192  0.8972
   67MOL   H59149563   5.077   6.357   5.768  0.0770  0.5668 -1.3485
   67MOL   H59249564   4.932   6.314   5.692  1.7039 -0.6279 -0.9686
   67MOL   H59349565   4.975   6.084   5.716 -0.2692  1.1821 -3.0972
   67MOL   C59449566   5.173   6.120   5.695  0.3139  0.3792  0.1661
   67MOL   O59549567   5.265   6.184   5.731  0.2770  0.0171 -0.3971
   67MOL   C59649568   5.188   5.996   5.599  0.2353 -0.2195 -0.3646
   67MOL   C59749569   5.325   5.934   5.618  0.2087 -0.1140 -0.3141
   67MOL   C59849570   5.321   5.784   5.572  0.1720 -0.2342 -0.1597
   67MOL   C59949571   5.303   5.684   5.685 -1.5471  0.2881  0.5859
   67MOL   C60049572   5.320   5.536   5.642 -0.5253 -0.2980  0.0750
   67MOL   C60149573   5.275   5.436   5.749 -0.6636 -0.5521 -0.1555
   67MOL   C60249574   5.366   5.436   5.876 -0.5058 -0.2073  0.6054
   67MOL   C60349575   5.316   5.342   5.985  0.0213 -0.1308  0.0412
   67MOL   C60449576   5.385   5.355   6.118 -0.1709 -0.7559 -0.2469
   67MOL   C60549577   5.330   5.478   6.197 -0.6283 -0.2489  0.5847
   67MOL   C60649578   5.323   5.451   6.348  0.0245  0.5471  0.1073
   67MOL   N60749579   5.262   5.575   6.403  0.3923  0.0024 -0.1245
   67MOL   H60849580   5.161   6.028   5.498  3.0131 -0.5473 -1.2548
   67MOL   H60949581   5.116   5.918   5.623  0.8349 -0.4654  0.6106
   67MOL   H61049582   5.404   5.991   5.570  0.2290  2.5997  2.7616
   67MOL   H61149583   5.357   5.937   5.721 -2.3431 -1.7841  0.5838
   67MOL   H61249584   5.421   5.772   5.532  0.5224  0.1708  0.5769
   67MOL   H61349585   5.248   5.759   5.495 -0.2399  1.3106 -0.2989
   67MOL   H61449586   5.387   5.709   5.750 -1.3922 -0.4231  0.6587
   67MOL   H61549587   5.207   5.710   5.729 -0.9793  0.5255  1.7047
   67MOL   H61649588   5.422   5.511   5.614 -1.0008  0.8093 -2.8589
   67MOL   H61749589   5.257   5.516   5.555  0.0287 -0.9606 -0.1760
   67MOL   H61849590   5.265   5.335   5.708  1.5287 -0.8342 -0.0607
   67MOL   H61949591   5.172   5.457   5.776 -0.1558  0.4848  0.9770
   67MOL   H62049592   5.363   5.533   5.925  1.8274  1.8234 -3.0338
   67MOL   H62149593   5.471   5.430   5.845 -1.2972  1.8296 -2.6514
   67MOL   H62249594   5.343   5.243   5.951  0.0168  0.8104 -2.8272
   67MOL   H62349595   5.207   5.346   5.992  0.0755  1.3977  0.2017
   67MOL   H62449596   5.494   5.356   6.118 -0.1715  0.7593 -0.2264
   67MOL   H62549597   5.352   5.270   6.178  0.0841 -1.3268 -0.9186
   67MOL   H62649598   5.229   5.494   6.160 -0.4759 -3.0002 -1.1704
   67MOL   H62749599   5.391   5.565   6.170 -0.9530  0.4207  1.9832
   67MOL   H62849600   5.423   5.434   6.389  0.3467 -0.0468 -0.9044
   67MOL   H62949601   5.262   5.363   6.367 -2.5237  1.9480 -1.3873
   67MOL   H63049602   5.316   5.660   6.394  0.3334  0.1345  0.8020
   67MOL   C63149603   5.141   5.580   6.463 -0.1279 -0.5364  0.1061
   67MOL   O63249604   5.068   5.480   6.474 -0.5307  0.0752 -0.0578
   67MOL   C63349605   5.093   5.718   6.506  0.4519  0.0474  0.4260
   67MOL   C63449606   4.953   5.730   6.568  0.9153  0.1445 -0.5065
   67MOL   C63549607   4.825   5.723   6.476 -0.7057 -0.0977  0.2481
   67MOL   C63649608   4.829   5.850   6.381  0.2881  0.5901 -0.3680
   67MOL   C63749609   4.693   5.869   6.301  0.2489  0.0702  0.1455
   67MOL   C63849610   4.701   5.985   6.200  0.7967  0.4129 -0.4542
   67MOL   C63949611   4.563   6.009   6.139  0.0777 -0.1410  0.1496
   67MOL   C64049612   4.546   6.147   6.074 -0.3993  0.1005  0.2410
   67MOL   C64149613   4.407   6.178   6.027  0.8769 -0.1277  0.1141
   67MOL   C64249614   4.292   6.181   6.135 -0.6206 -0.6315  0.0842
   67MOL   C64349615   4.325   6.268   6.258 -0.0773 -0.2048  0.5615
   67MOL   N64449616   4.366   6.188   6.371  0.2084 -0.0642 -0.1238
   67MOL   H64549617   5.105   5.786   6.422  0.3200 -0.3592  0.0754
   67MOL   H64649618   5.171   5.742   6.579 -0.6353  0.4783  1.4662
   67MOL   H64749619   4.948   5.643   6.634 -1.3419  1.0179  0.5561
   67MOL   H64849620   4.941   5.806   6.645 -0.3821  3.2199 -3.5889
   67MOL   H64949621   4.739   5.726   6.543 -0.5999  0.5486  0.3600
   67MOL   H65049622   4.837   5.631   6.419  1.2325 -2.1509  3.7585
   67MOL   H65149623   4.851   5.939   6.440 -0.4076  0.1816  0.5219
   67MOL   H65249624   4.914   5.836   6.314  1.7847 -1.0515  1.8133
   67MOL   H65349625   4.618   5.897   6.376  1.2203  5.1619 -0.6410
   67MOL   H65449626   4.668   5.770   6.261  0.8263  0.2900 -0.7740
   67MOL   H65549627   4.767   5.961   6.117 -0.1252 -2.8721 -0.2839
   67MOL   H65649628   4.746   6.073   6.247 -0.1844  0.3134  0.7080
   67MOL   H65749629   4.491   5.991   6.218  1.3325  0.5487  1.4807
   67MOL   H65849630   4.542   5.929   6.068  3.0459 -0.6983 -0.1690
   67MOL   H65949631   4.608   6.161   5.986 -2.6150 -1.4256 -1.6064
   67MOL   H66049632   4.581   6.226   6.141 -0.9495 -0.7371  1.5358
   67MOL   H66149633   4.379   6.117   5.942  1.1398 -0.8816  0.5650
   67MOL   H66249634   4.411   6.274   5.975 -1.2199  0.6187  1.2489
   67MOL   H66349635   4.280   6.079   6.173  2.7448 -1.3430 -0.5955
   67MOL   H66449636   4.197   6.219   6.099 -1.4155 -2.5429  0.0759
   67MOL   H66549637   4.233   6.321   6.283 -1.4037 -1.5963 -1.2071
   67MOL   H66649638   4.393   6.350   6.235  1.7619 -1.2268  2.2454
   67MOL   H66749639   4.329   6.094   6.380  0.6624 -0.4724 -2.1115
   67MOL   C66849640   4.417   6.240   6.479 -0.2990  0.3654  0.0285
   67MOL   O66949641   4.458   6.357   6.482 -0.4576  0.3380  0.4088
   67MOL   C67049642   4.427   6.148   6.600  0.0121  0.7465 -0.5499
   67MOL   C67149643   4.572   6.130   6.632 -0.0671 -0.2591  0.0217
   67MOL   C67249644   4.587   6.071   6.770 -0.0644  0.1489  0.0655
   67MOL   C67349645   4.732   6.054   6.812  0.1619  0.1358 -0.0514
   67MOL   C67449646   4.754   5.964   6.936 -0.4181 -0.4746 -0.0313
   67MOL   C67549647   4.904   5.916   6.942 -0.1922 -0.5078 -0.5793
   67MOL   C67649648   5.004   6.031   6.960 -0.3206 -0.5350  0.0947
   67MOL   C67749649   5.156   6.000   6.989 -0.1676  0.4449 -0.4624
   67MOL   C67849650   5.234   6.106   7.076  0.6666 -0.0076  0.2091
   67MOL   C67949651   5.280   6.230   6.996 -0.2479 -0.4892  0.2155
   67MOL   C68049652   5.391   6.305   7.064 -0.3744 -0.0533  0.5734
   67MOL   N68149653   5.477   6.390   6.976  0.1472 -0.5279  0.6524
   67MOL   H68249654   4.379   6.050   6.589  0.2063  0.3513  1.7310
   67MOL   H68349655   4.371   6.200   6.678  0.8859  0.3235  0.3777
   67MOL   H68449656   4.608   6.075   6.545 -2.6670  1.4621 -2.2040
   67MOL   H68549657   4.637   6.217   6.638 -2.6355  1.6523  1.2339
   67MOL   H68649658   4.534   5.977   6.780  0.5773 -0.3003 -0.7324
   67MOL   H68749659   4.543   6.141   6.841 -2.4619  0.1893 -1.4158
   67MOL   H68849660   4.781   6.019   6.722 -2.2327 -1.0944 -0.9065
   67MOL   H68949661   4.782   6.149   6.830 -0.1972  0.7039 -1.9633
   67MOL   H69049662   4.700   5.870   6.928 -0.1961 -0.6467  0.4413
   67MOL   H69149663   4.717   6.014   7.026 -1.9048 -0.1152 -0.8223
   67MOL   H69249664   4.933   5.835   6.875 -1.9553 -0.9327 -0.8502
   67MOL   H69349665   4.901   5.877   7.043  0.0329  0.4870 -0.1789
   67MOL   H69449666   4.959   6.082   7.044 -1.2479 -1.0899 -0.0615
   67MOL   H69549667   5.000   6.101   6.877  2.2563 -0.5999 -0.1321
   67MOL   H69649668   5.213   5.979   6.898 -0.8635 -1.1939 -0.5420
   67MOL   H69749669   5.153   5.910   7.051  2.6613 -0.7785 -2.0069
   67MOL   H69849670   5.309   6.052   7.133 -1.5336 -2.2562  1.0340
   67MOL   H69949671   5.177   6.135   7.164  2.1650  1.9693  0.5843
   67MOL   H70049672   5.194   6.295   6.983  0.4816  0.2554 -1.0324
   67MOL   H70149673   5.323   6.207   6.899  0.0597 -1.2829  0.5338
   67MOL   H70249674   5.453   6.229   7.112 -0.2670 -0.8205 -0.7578
   67MOL   H70349675   5.358   6.337   7.163  0.1913 -0.3915  0.8755
   67MOL   H70449676   5.533   6.337   6.910 -1.1553  0.4735 -1.2907
   67MOL   C70549677   5.492   6.523   6.980  0.0340 -0.4055 -0.5320
   67MOL   O70649678   5.438   6.591   7.067  0.2504 -0.2301 -0.6440
   67MOL   C70749679   5.568   6.587   6.869 -0.0662 -0.7079 -0.1402
   67MOL   C70849680   5.658   6.713   6.915  0.1081  0.4650  1.0139
   67MOL   C70949681   5.759   6.762   6.801  0.0643 -0.5901 -0.3785
   67MOL   C71049682   5.830   6.884   6.860 -0.5307  0.0550  0.3793
   67MOL   C71149683   5.883   6.976   6.748 -0.2629 -0.0428  0.6216
   67MOL   C71249684   6.015   6.913   6.689  0.3119 -0.2736 -0.7654
   67MOL   C71349685   6.072   6.986   6.571 -0.1720 -0.1299  0.4030
   67MOL   C71449686   6.208   6.920   6.531 -0.6445  0.2820 -0.0451
   67MOL   C71549687   6.276   6.970   6.409  0.0059 -0.5431 -0.0857
   67MOL   C71649688   6.279   7.124   6.388 -0.1311  0.5757  0.2030
   67MOL   C71749689   6.354   7.193   6.500  0.0160 -0.1093  0.0204
   67MOL   N71849690   6.357   7.335   6.478  0.1979  0.1668 -0.5146
   67MOL   H71949691   5.500   6.599   6.785  0.2785 -1.1445 -0.4888
   67MOL   H72049692   5.643   6.511   6.844  3.4511  2.4180  0.4226
   67MOL   H72149693   5.595   6.795   6.952 -3.0632 -1.1050 -0.6878
   67MOL   H72249694   5.707   6.679   7.006  0.5835 -0.3369  0.4646
   67MOL   H72349695   5.695   6.787   6.717 -1.6506  0.6321  1.2589
   67MOL   H72449696   5.829   6.687   6.763 -3.5504 -3.5168 -1.5715
   67MOL   H72549697   5.758   6.941   6.919 -1.2480 -1.5030  1.0407
   67MOL   H72649698   5.909   6.843   6.923  0.8191  1.9244 -0.0591
   67MOL   H72749699   5.911   7.076   6.784  0.1927  0.0494  0.0263
   67MOL   H72849700   5.812   6.983   6.666  0.1573 -1.4810  0.1192
   67MOL   H72949701   5.998   6.807   6.676  0.8942 -0.3052 -1.3190
   67MOL   H73049702   6.080   6.909   6.777 -0.7073 -1.0898 -0.0453
   67MOL   H73149703   6.093   7.089   6.598  2.0066 -1.0396  2.4307
   67MOL   H73249704   6.003   6.976   6.487  1.2463  4.4216 -1.4670
   67MOL   H73349705   6.183   6.815   6.519 -2.1796  0.3707  2.1065
   67MOL   H73449706   6.276   6.922   6.616 -1.3815 -1.8836  0.6267
   67MOL   H73549707   6.237   6.925   6.318  0.1580 -0.6048 -0.1217
   67MOL   H73649708   6.379   6.935   6.414  0.6563  1.1562 -0.9330
   67MOL   H73749709   6.175   7.152   6.371  0.6666  1.3625 -4.1086
   67MOL   H73849710   6.326   7.135   6.290  3.3459 -1.5372  1.5575
   67MOL   H73949711   6.447   7.144   6.530 -1.3833 -2.3167  0.8853
   67MOL   H74049712   6.291   7.184   6.589  1.2324  2.3093  1.1620
   67MOL   H74149713   6.273   7.372   6.522  0.1707  1.7313 -1.8059
   67MOL   H74249714   6.439   7.373   6.523  0.7016 -1.7077  0.1739
   7.69383   7.69383   7.69383
