;
; Gromacs include topology (itp) file.
; For Molecular Group XYZ
; Force field scheme: opls2005
; Produced from DL_FIELD v4.11
;


[ moleculetype ]
; name    nrexcl
XYZ    3

[ atoms ]
; nr   type   resnr   residu    atom    cgnr    charge    mass
    1       CO4    1  MOL      C1     1   0.4500000   12.0115
    2         O    1  MOL      O2     2  -0.4500000   15.9994
    3        CT    1  MOL      C3     3  -0.1200000   12.0115
    4        CT    1  MOL      C4     4  -0.1200000   12.0115
    5        CT    1  MOL      C5     5  -0.1200000   12.0115
    6        CT    1  MOL      C6     6  -0.1200000   12.0115
    7        CT    1  MOL      C7     7  -0.1200000   12.0115
    8        CT    1  MOL      C8     8  -0.1200000   12.0115
    9        CT    1  MOL      C9     9  -0.1200000   12.0115
   10        CT    1  MOL     C10    10  -0.1200000   12.0115
   11        CT    1  MOL     C11    11  -0.1200000   12.0115
   12        CT    1  MOL     C12    12  -0.1200000   12.0115
   13        CT    1  MOL     C13    13   0.0800000   12.0115
   14         N    1  MOL     N14    14  -0.5000000   14.0067
   15       HAE    1  MOL     H15    15   0.0600000    1.0080
   16       HAE    1  MOL     H16    16   0.0600000    1.0080
   17        HC    1  MOL     H17    17   0.0600000    1.0080
   18        HC    1  MOL     H18    18   0.0600000    1.0080
   19        HC    1  MOL     H19    19   0.0600000    1.0080
   20        HC    1  MOL     H20    20   0.0600000    1.0080
   21        HC    1  MOL     H21    21   0.0600000    1.0080
   22        HC    1  MOL     H22    22   0.0600000    1.0080
   23        HC    1  MOL     H23    23   0.0600000    1.0080
   24        HC    1  MOL     H24    24   0.0600000    1.0080
   25        HC    1  MOL     H25    25   0.0600000    1.0080
   26        HC    1  MOL     H26    26   0.0600000    1.0080
   27        HC    1  MOL     H27    27   0.0600000    1.0080
   28        HC    1  MOL     H28    28   0.0600000    1.0080
   29        HC    1  MOL     H29    29   0.0600000    1.0080
   30        HC    1  MOL     H30    30   0.0600000    1.0080
   31        HC    1  MOL     H31    31   0.0600000    1.0080
   32        HC    1  MOL     H32    32   0.0600000    1.0080
   33        HC    1  MOL     H33    33   0.0600000    1.0080
   34        HC    1  MOL     H34    34   0.0600000    1.0080
   35        HC    1  MOL     H35    35   0.0600000    1.0080
   36        HC    1  MOL     H36    36   0.0600000    1.0080
   37         H    1  MOL     H37    37   0.3000000    1.0080
   38       HAE    1  MOL     H38    38   0.0000000    1.0080
   39         C    1  MOL     C39    39   0.5000000   12.0115
   40         O    1  MOL     O40    40  -0.5000000   15.9994
   41        CT    1  MOL     C41    41  -0.1200000   12.0115
   42        CT    1  MOL     C42    42  -0.1200000   12.0115
   43        CT    1  MOL     C43    43  -0.1200000   12.0115
   44        CT    1  MOL     C44    44  -0.1200000   12.0115
   45        CT    1  MOL     C45    45  -0.1200000   12.0115
   46        CT    1  MOL     C46    46  -0.1200000   12.0115
   47        CT    1  MOL     C47    47  -0.1200000   12.0115
   48        CT    1  MOL     C48    48  -0.1200000   12.0115
   49        CT    1  MOL     C49    49  -0.1200000   12.0115
   50        CT    1  MOL     C50    50  -0.1200000   12.0115
   51        CT    1  MOL     C51    51   0.0800000   12.0115
   52         N    1  MOL     N52    52  -0.5000000   14.0067
   53        HC    1  MOL     H53    53   0.0600000    1.0080
   54        HC    1  MOL     H54    54   0.0600000    1.0080
   55        HC    1  MOL     H55    55   0.0600000    1.0080
   56        HC    1  MOL     H56    56   0.0600000    1.0080
   57        HC    1  MOL     H57    57   0.0600000    1.0080
   58        HC    1  MOL     H58    58   0.0600000    1.0080
   59        HC    1  MOL     H59    59   0.0600000    1.0080
   60        HC    1  MOL     H60    60   0.0600000    1.0080
   61        HC    1  MOL     H61    61   0.0600000    1.0080
   62        HC    1  MOL     H62    62   0.0600000    1.0080
   63        HC    1  MOL     H63    63   0.0600000    1.0080
   64        HC    1  MOL     H64    64   0.0600000    1.0080
   65        HC    1  MOL     H65    65   0.0600000    1.0080
   66        HC    1  MOL     H66    66   0.0600000    1.0080
   67        HC    1  MOL     H67    67   0.0600000    1.0080
   68        HC    1  MOL     H68    68   0.0600000    1.0080
   69        HC    1  MOL     H69    69   0.0600000    1.0080
   70        HC    1  MOL     H70    70   0.0600000    1.0080
   71        HC    1  MOL     H71    71   0.0600000    1.0080
   72        HC    1  MOL     H72    72   0.0600000    1.0080
   73        HC    1  MOL     H73    73   0.0600000    1.0080
   74        HC    1  MOL     H74    74   0.0600000    1.0080
   75         H    1  MOL     H75    75   0.3000000    1.0080
   76         C    1  MOL     C76    76   0.5000000   12.0115
   77         O    1  MOL     O77    77  -0.5000000   15.9994
   78        CT    1  MOL     C78    78  -0.1200000   12.0115
   79        CT    1  MOL     C79    79  -0.1200000   12.0115
   80        CT    1  MOL     C80    80  -0.1200000   12.0115
   81        CT    1  MOL     C81    81  -0.1200000   12.0115
   82        CT    1  MOL     C82    82  -0.1200000   12.0115
   83        CT    1  MOL     C83    83  -0.1200000   12.0115
   84        CT    1  MOL     C84    84  -0.1200000   12.0115
   85        CT    1  MOL     C85    85  -0.1200000   12.0115
   86        CT    1  MOL     C86    86  -0.1200000   12.0115
   87        CT    1  MOL     C87    87  -0.1200000   12.0115
   88        CT    1  MOL     C88    88   0.0800000   12.0115
   89         N    1  MOL     N89    89  -0.5000000   14.0067
   90        HC    1  MOL     H90    90   0.0600000    1.0080
   91        HC    1  MOL     H91    91   0.0600000    1.0080
   92        HC    1  MOL     H92    92   0.0600000    1.0080
   93        HC    1  MOL     H93    93   0.0600000    1.0080
   94        HC    1  MOL     H94    94   0.0600000    1.0080
   95        HC    1  MOL     H95    95   0.0600000    1.0080
   96        HC    1  MOL     H96    96   0.0600000    1.0080
   97        HC    1  MOL     H97    97   0.0600000    1.0080
   98        HC    1  MOL     H98    98   0.0600000    1.0080
   99        HC    1  MOL     H99    99   0.0600000    1.0080
  100        HC    1  MOL    H100   100   0.0600000    1.0080
  101        HC    1  MOL    H101   101   0.0600000    1.0080
  102        HC    1  MOL    H102   102   0.0600000    1.0080
  103        HC    1  MOL    H103   103   0.0600000    1.0080
  104        HC    1  MOL    H104   104   0.0600000    1.0080
  105        HC    1  MOL    H105   105   0.0600000    1.0080
  106        HC    1  MOL    H106   106   0.0600000    1.0080
  107        HC    1  MOL    H107   107   0.0600000    1.0080
  108        HC    1  MOL    H108   108   0.0600000    1.0080
  109        HC    1  MOL    H109   109   0.0600000    1.0080
  110        HC    1  MOL    H110   110   0.0600000    1.0080
  111        HC    1  MOL    H111   111   0.0600000    1.0080
  112         H    1  MOL    H112   112   0.3000000    1.0080
  113         C    1  MOL    C113   113   0.5000000   12.0115
  114         O    1  MOL    O114   114  -0.5000000   15.9994
  115        CT    1  MOL    C115   115  -0.1200000   12.0115
  116        CT    1  MOL    C116   116  -0.1200000   12.0115
  117        CT    1  MOL    C117   117  -0.1200000   12.0115
  118        CT    1  MOL    C118   118  -0.1200000   12.0115
  119        CT    1  MOL    C119   119  -0.1200000   12.0115
  120        CT    1  MOL    C120   120  -0.1200000   12.0115
  121        CT    1  MOL    C121   121  -0.1200000   12.0115
  122        CT    1  MOL    C122   122  -0.1200000   12.0115
  123        CT    1  MOL    C123   123  -0.1200000   12.0115
  124        CT    1  MOL    C124   124  -0.1200000   12.0115
  125        CT    1  MOL    C125   125   0.0800000   12.0115
  126         N    1  MOL    N126   126  -0.5000000   14.0067
  127        HC    1  MOL    H127   127   0.0600000    1.0080
  128        HC    1  MOL    H128   128   0.0600000    1.0080
  129        HC    1  MOL    H129   129   0.0600000    1.0080
  130        HC    1  MOL    H130   130   0.0600000    1.0080
  131        HC    1  MOL    H131   131   0.0600000    1.0080
  132        HC    1  MOL    H132   132   0.0600000    1.0080
  133        HC    1  MOL    H133   133   0.0600000    1.0080
  134        HC    1  MOL    H134   134   0.0600000    1.0080
  135        HC    1  MOL    H135   135   0.0600000    1.0080
  136        HC    1  MOL    H136   136   0.0600000    1.0080
  137        HC    1  MOL    H137   137   0.0600000    1.0080
  138        HC    1  MOL    H138   138   0.0600000    1.0080
  139        HC    1  MOL    H139   139   0.0600000    1.0080
  140        HC    1  MOL    H140   140   0.0600000    1.0080
  141        HC    1  MOL    H141   141   0.0600000    1.0080
  142        HC    1  MOL    H142   142   0.0600000    1.0080
  143        HC    1  MOL    H143   143   0.0600000    1.0080
  144        HC    1  MOL    H144   144   0.0600000    1.0080
  145        HC    1  MOL    H145   145   0.0600000    1.0080
  146        HC    1  MOL    H146   146   0.0600000    1.0080
  147        HC    1  MOL    H147   147   0.0600000    1.0080
  148        HC    1  MOL    H148   148   0.0600000    1.0080
  149         H    1  MOL    H149   149   0.3000000    1.0080
  150         C    1  MOL    C150   150   0.5000000   12.0115
  151         O    1  MOL    O151   151  -0.5000000   15.9994
  152        CT    1  MOL    C152   152  -0.1200000   12.0115
  153        CT    1  MOL    C153   153  -0.1200000   12.0115
  154        CT    1  MOL    C154   154  -0.1200000   12.0115
  155        CT    1  MOL    C155   155  -0.1200000   12.0115
  156        CT    1  MOL    C156   156  -0.1200000   12.0115
  157        CT    1  MOL    C157   157  -0.1200000   12.0115
  158        CT    1  MOL    C158   158  -0.1200000   12.0115
  159        CT    1  MOL    C159   159  -0.1200000   12.0115
  160        CT    1  MOL    C160   160  -0.1200000   12.0115
  161        CT    1  MOL    C161   161  -0.1200000   12.0115
  162        CT    1  MOL    C162   162   0.0800000   12.0115
  163         N    1  MOL    N163   163  -0.5000000   14.0067
  164        HC    1  MOL    H164   164   0.0600000    1.0080
  165        HC    1  MOL    H165   165   0.0600000    1.0080
  166        HC    1  MOL    H166   166   0.0600000    1.0080
  167        HC    1  MOL    H167   167   0.0600000    1.0080
  168        HC    1  MOL    H168   168   0.0600000    1.0080
  169        HC    1  MOL    H169   169   0.0600000    1.0080
  170        HC    1  MOL    H170   170   0.0600000    1.0080
  171        HC    1  MOL    H171   171   0.0600000    1.0080
  172        HC    1  MOL    H172   172   0.0600000    1.0080
  173        HC    1  MOL    H173   173   0.0600000    1.0080
  174        HC    1  MOL    H174   174   0.0600000    1.0080
  175        HC    1  MOL    H175   175   0.0600000    1.0080
  176        HC    1  MOL    H176   176   0.0600000    1.0080
  177        HC    1  MOL    H177   177   0.0600000    1.0080
  178        HC    1  MOL    H178   178   0.0600000    1.0080
  179        HC    1  MOL    H179   179   0.0600000    1.0080
  180        HC    1  MOL    H180   180   0.0600000    1.0080
  181        HC    1  MOL    H181   181   0.0600000    1.0080
  182        HC    1  MOL    H182   182   0.0600000    1.0080
  183        HC    1  MOL    H183   183   0.0600000    1.0080
  184        HC    1  MOL    H184   184   0.0600000    1.0080
  185        HC    1  MOL    H185   185   0.0600000    1.0080
  186         H    1  MOL    H186   186   0.3000000    1.0080
  187         C    1  MOL    C187   187   0.5000000   12.0115
  188         O    1  MOL    O188   188  -0.5000000   15.9994
  189        CT    1  MOL    C189   189  -0.1200000   12.0115
  190        CT    1  MOL    C190   190  -0.1200000   12.0115
  191        CT    1  MOL    C191   191  -0.1200000   12.0115
  192        CT    1  MOL    C192   192  -0.1200000   12.0115
  193        CT    1  MOL    C193   193  -0.1200000   12.0115
  194        CT    1  MOL    C194   194  -0.1200000   12.0115
  195        CT    1  MOL    C195   195  -0.1200000   12.0115
  196        CT    1  MOL    C196   196  -0.1200000   12.0115
  197        CT    1  MOL    C197   197  -0.1200000   12.0115
  198        CT    1  MOL    C198   198  -0.1200000   12.0115
  199        CT    1  MOL    C199   199   0.0800000   12.0115
  200         N    1  MOL    N200   200  -0.5000000   14.0067
  201        HC    1  MOL    H201   201   0.0600000    1.0080
  202        HC    1  MOL    H202   202   0.0600000    1.0080
  203        HC    1  MOL    H203   203   0.0600000    1.0080
  204        HC    1  MOL    H204   204   0.0600000    1.0080
  205        HC    1  MOL    H205   205   0.0600000    1.0080
  206        HC    1  MOL    H206   206   0.0600000    1.0080
  207        HC    1  MOL    H207   207   0.0600000    1.0080
  208        HC    1  MOL    H208   208   0.0600000    1.0080
  209        HC    1  MOL    H209   209   0.0600000    1.0080
  210        HC    1  MOL    H210   210   0.0600000    1.0080
  211        HC    1  MOL    H211   211   0.0600000    1.0080
  212        HC    1  MOL    H212   212   0.0600000    1.0080
  213        HC    1  MOL    H213   213   0.0600000    1.0080
  214        HC    1  MOL    H214   214   0.0600000    1.0080
  215        HC    1  MOL    H215   215   0.0600000    1.0080
  216        HC    1  MOL    H216   216   0.0600000    1.0080
  217        HC    1  MOL    H217   217   0.0600000    1.0080
  218        HC    1  MOL    H218   218   0.0600000    1.0080
  219        HC    1  MOL    H219   219   0.0600000    1.0080
  220        HC    1  MOL    H220   220   0.0600000    1.0080
  221        HC    1  MOL    H221   221   0.0600000    1.0080
  222        HC    1  MOL    H222   222   0.0600000    1.0080
  223         H    1  MOL    H223   223   0.3000000    1.0080
  224         C    1  MOL    C224   224   0.5000000   12.0115
  225         O    1  MOL    O225   225  -0.5000000   15.9994
  226        CT    1  MOL    C226   226  -0.1200000   12.0115
  227        CT    1  MOL    C227   227  -0.1200000   12.0115
  228        CT    1  MOL    C228   228  -0.1200000   12.0115
  229        CT    1  MOL    C229   229  -0.1200000   12.0115
  230        CT    1  MOL    C230   230  -0.1200000   12.0115
  231        CT    1  MOL    C231   231  -0.1200000   12.0115
  232        CT    1  MOL    C232   232  -0.1200000   12.0115
  233        CT    1  MOL    C233   233  -0.1200000   12.0115
  234        CT    1  MOL    C234   234  -0.1200000   12.0115
  235        CT    1  MOL    C235   235  -0.1200000   12.0115
  236        CT    1  MOL    C236   236   0.0800000   12.0115
  237         N    1  MOL    N237   237  -0.5000000   14.0067
  238        HC    1  MOL    H238   238   0.0600000    1.0080
  239        HC    1  MOL    H239   239   0.0600000    1.0080
  240        HC    1  MOL    H240   240   0.0600000    1.0080
  241        HC    1  MOL    H241   241   0.0600000    1.0080
  242        HC    1  MOL    H242   242   0.0600000    1.0080
  243        HC    1  MOL    H243   243   0.0600000    1.0080
  244        HC    1  MOL    H244   244   0.0600000    1.0080
  245        HC    1  MOL    H245   245   0.0600000    1.0080
  246        HC    1  MOL    H246   246   0.0600000    1.0080
  247        HC    1  MOL    H247   247   0.0600000    1.0080
  248        HC    1  MOL    H248   248   0.0600000    1.0080
  249        HC    1  MOL    H249   249   0.0600000    1.0080
  250        HC    1  MOL    H250   250   0.0600000    1.0080
  251        HC    1  MOL    H251   251   0.0600000    1.0080
  252        HC    1  MOL    H252   252   0.0600000    1.0080
  253        HC    1  MOL    H253   253   0.0600000    1.0080
  254        HC    1  MOL    H254   254   0.0600000    1.0080
  255        HC    1  MOL    H255   255   0.0600000    1.0080
  256        HC    1  MOL    H256   256   0.0600000    1.0080
  257        HC    1  MOL    H257   257   0.0600000    1.0080
  258        HC    1  MOL    H258   258   0.0600000    1.0080
  259        HC    1  MOL    H259   259   0.0600000    1.0080
  260         H    1  MOL    H260   260   0.3000000    1.0080
  261         C    1  MOL    C261   261   0.5000000   12.0115
  262         O    1  MOL    O262   262  -0.5000000   15.9994
  263        CT    1  MOL    C263   263  -0.1200000   12.0115
  264        CT    1  MOL    C264   264  -0.1200000   12.0115
  265        CT    1  MOL    C265   265  -0.1200000   12.0115
  266        CT    1  MOL    C266   266  -0.1200000   12.0115
  267        CT    1  MOL    C267   267  -0.1200000   12.0115
  268        CT    1  MOL    C268   268  -0.1200000   12.0115
  269        CT    1  MOL    C269   269  -0.1200000   12.0115
  270        CT    1  MOL    C270   270  -0.1200000   12.0115
  271        CT    1  MOL    C271   271  -0.1200000   12.0115
  272        CT    1  MOL    C272   272  -0.1200000   12.0115
  273        CT    1  MOL    C273   273   0.0800000   12.0115
  274         N    1  MOL    N274   274  -0.5000000   14.0067
  275        HC    1  MOL    H275   275   0.0600000    1.0080
  276        HC    1  MOL    H276   276   0.0600000    1.0080
  277        HC    1  MOL    H277   277   0.0600000    1.0080
  278        HC    1  MOL    H278   278   0.0600000    1.0080
  279        HC    1  MOL    H279   279   0.0600000    1.0080
  280        HC    1  MOL    H280   280   0.0600000    1.0080
  281        HC    1  MOL    H281   281   0.0600000    1.0080
  282        HC    1  MOL    H282   282   0.0600000    1.0080
  283        HC    1  MOL    H283   283   0.0600000    1.0080
  284        HC    1  MOL    H284   284   0.0600000    1.0080
  285        HC    1  MOL    H285   285   0.0600000    1.0080
  286        HC    1  MOL    H286   286   0.0600000    1.0080
  287        HC    1  MOL    H287   287   0.0600000    1.0080
  288        HC    1  MOL    H288   288   0.0600000    1.0080
  289        HC    1  MOL    H289   289   0.0600000    1.0080
  290        HC    1  MOL    H290   290   0.0600000    1.0080
  291        HC    1  MOL    H291   291   0.0600000    1.0080
  292        HC    1  MOL    H292   292   0.0600000    1.0080
  293        HC    1  MOL    H293   293   0.0600000    1.0080
  294        HC    1  MOL    H294   294   0.0600000    1.0080
  295        HC    1  MOL    H295   295   0.0600000    1.0080
  296        HC    1  MOL    H296   296   0.0600000    1.0080
  297         H    1  MOL    H297   297   0.3000000    1.0080
  298         C    1  MOL    C298   298   0.5000000   12.0115
  299         O    1  MOL    O299   299  -0.5000000   15.9994
  300        CT    1  MOL    C300   300  -0.1200000   12.0115
  301        CT    1  MOL    C301   301  -0.1200000   12.0115
  302        CT    1  MOL    C302   302  -0.1200000   12.0115
  303        CT    1  MOL    C303   303  -0.1200000   12.0115
  304        CT    1  MOL    C304   304  -0.1200000   12.0115
  305        CT    1  MOL    C305   305  -0.1200000   12.0115
  306        CT    1  MOL    C306   306  -0.1200000   12.0115
  307        CT    1  MOL    C307   307  -0.1200000   12.0115
  308        CT    1  MOL    C308   308  -0.1200000   12.0115
  309        CT    1  MOL    C309   309  -0.1200000   12.0115
  310        CT    1  MOL    C310   310   0.0800000   12.0115
  311         N    1  MOL    N311   311  -0.5000000   14.0067
  312        HC    1  MOL    H312   312   0.0600000    1.0080
  313        HC    1  MOL    H313   313   0.0600000    1.0080
  314        HC    1  MOL    H314   314   0.0600000    1.0080
  315        HC    1  MOL    H315   315   0.0600000    1.0080
  316        HC    1  MOL    H316   316   0.0600000    1.0080
  317        HC    1  MOL    H317   317   0.0600000    1.0080
  318        HC    1  MOL    H318   318   0.0600000    1.0080
  319        HC    1  MOL    H319   319   0.0600000    1.0080
  320        HC    1  MOL    H320   320   0.0600000    1.0080
  321        HC    1  MOL    H321   321   0.0600000    1.0080
  322        HC    1  MOL    H322   322   0.0600000    1.0080
  323        HC    1  MOL    H323   323   0.0600000    1.0080
  324        HC    1  MOL    H324   324   0.0600000    1.0080
  325        HC    1  MOL    H325   325   0.0600000    1.0080
  326        HC    1  MOL    H326   326   0.0600000    1.0080
  327        HC    1  MOL    H327   327   0.0600000    1.0080
  328        HC    1  MOL    H328   328   0.0600000    1.0080
  329        HC    1  MOL    H329   329   0.0600000    1.0080
  330        HC    1  MOL    H330   330   0.0600000    1.0080
  331        HC    1  MOL    H331   331   0.0600000    1.0080
  332        HC    1  MOL    H332   332   0.0600000    1.0080
  333        HC    1  MOL    H333   333   0.0600000    1.0080
  334         H    1  MOL    H334   334   0.3000000    1.0080
  335         C    1  MOL    C335   335   0.5000000   12.0115
  336         O    1  MOL    O336   336  -0.5000000   15.9994
  337        CT    1  MOL    C337   337  -0.1200000   12.0115
  338        CT    1  MOL    C338   338  -0.1200000   12.0115
  339        CT    1  MOL    C339   339  -0.1200000   12.0115
  340        CT    1  MOL    C340   340  -0.1200000   12.0115
  341        CT    1  MOL    C341   341  -0.1200000   12.0115
  342        CT    1  MOL    C342   342  -0.1200000   12.0115
  343        CT    1  MOL    C343   343  -0.1200000   12.0115
  344        CT    1  MOL    C344   344  -0.1200000   12.0115
  345        CT    1  MOL    C345   345  -0.1200000   12.0115
  346        CT    1  MOL    C346   346  -0.1200000   12.0115
  347        CT    1  MOL    C347   347   0.0800000   12.0115
  348         N    1  MOL    N348   348  -0.5000000   14.0067
  349        HC    1  MOL    H349   349   0.0600000    1.0080
  350        HC    1  MOL    H350   350   0.0600000    1.0080
  351        HC    1  MOL    H351   351   0.0600000    1.0080
  352        HC    1  MOL    H352   352   0.0600000    1.0080
  353        HC    1  MOL    H353   353   0.0600000    1.0080
  354        HC    1  MOL    H354   354   0.0600000    1.0080
  355        HC    1  MOL    H355   355   0.0600000    1.0080
  356        HC    1  MOL    H356   356   0.0600000    1.0080
  357        HC    1  MOL    H357   357   0.0600000    1.0080
  358        HC    1  MOL    H358   358   0.0600000    1.0080
  359        HC    1  MOL    H359   359   0.0600000    1.0080
  360        HC    1  MOL    H360   360   0.0600000    1.0080
  361        HC    1  MOL    H361   361   0.0600000    1.0080
  362        HC    1  MOL    H362   362   0.0600000    1.0080
  363        HC    1  MOL    H363   363   0.0600000    1.0080
  364        HC    1  MOL    H364   364   0.0600000    1.0080
  365        HC    1  MOL    H365   365   0.0600000    1.0080
  366        HC    1  MOL    H366   366   0.0600000    1.0080
  367        HC    1  MOL    H367   367   0.0600000    1.0080
  368        HC    1  MOL    H368   368   0.0600000    1.0080
  369        HC    1  MOL    H369   369   0.0600000    1.0080
  370        HC    1  MOL    H370   370   0.0600000    1.0080
  371         H    1  MOL    H371   371   0.3000000    1.0080
  372         C    1  MOL    C372   372   0.5000000   12.0115
  373         O    1  MOL    O373   373  -0.5000000   15.9994
  374        CT    1  MOL    C374   374  -0.1200000   12.0115
  375        CT    1  MOL    C375   375  -0.1200000   12.0115
  376        CT    1  MOL    C376   376  -0.1200000   12.0115
  377        CT    1  MOL    C377   377  -0.1200000   12.0115
  378        CT    1  MOL    C378   378  -0.1200000   12.0115
  379        CT    1  MOL    C379   379  -0.1200000   12.0115
  380        CT    1  MOL    C380   380  -0.1200000   12.0115
  381        CT    1  MOL    C381   381  -0.1200000   12.0115
  382        CT    1  MOL    C382   382  -0.1200000   12.0115
  383        CT    1  MOL    C383   383  -0.1200000   12.0115
  384        CT    1  MOL    C384   384   0.0800000   12.0115
  385         N    1  MOL    N385   385  -0.5000000   14.0067
  386        HC    1  MOL    H386   386   0.0600000    1.0080
  387        HC    1  MOL    H387   387   0.0600000    1.0080
  388        HC    1  MOL    H388   388   0.0600000    1.0080
  389        HC    1  MOL    H389   389   0.0600000    1.0080
  390        HC    1  MOL    H390   390   0.0600000    1.0080
  391        HC    1  MOL    H391   391   0.0600000    1.0080
  392        HC    1  MOL    H392   392   0.0600000    1.0080
  393        HC    1  MOL    H393   393   0.0600000    1.0080
  394        HC    1  MOL    H394   394   0.0600000    1.0080
  395        HC    1  MOL    H395   395   0.0600000    1.0080
  396        HC    1  MOL    H396   396   0.0600000    1.0080
  397        HC    1  MOL    H397   397   0.0600000    1.0080
  398        HC    1  MOL    H398   398   0.0600000    1.0080
  399        HC    1  MOL    H399   399   0.0600000    1.0080
  400        HC    1  MOL    H400   400   0.0600000    1.0080
  401        HC    1  MOL    H401   401   0.0600000    1.0080
  402        HC    1  MOL    H402   402   0.0600000    1.0080
  403        HC    1  MOL    H403   403   0.0600000    1.0080
  404        HC    1  MOL    H404   404   0.0600000    1.0080
  405        HC    1  MOL    H405   405   0.0600000    1.0080
  406        HC    1  MOL    H406   406   0.0600000    1.0080
  407        HC    1  MOL    H407   407   0.0600000    1.0080
  408         H    1  MOL    H408   408   0.3000000    1.0080
  409         C    1  MOL    C409   409   0.5000000   12.0115
  410         O    1  MOL    O410   410  -0.5000000   15.9994
  411        CT    1  MOL    C411   411  -0.1200000   12.0115
  412        CT    1  MOL    C412   412  -0.1200000   12.0115
  413        CT    1  MOL    C413   413  -0.1200000   12.0115
  414        CT    1  MOL    C414   414  -0.1200000   12.0115
  415        CT    1  MOL    C415   415  -0.1200000   12.0115
  416        CT    1  MOL    C416   416  -0.1200000   12.0115
  417        CT    1  MOL    C417   417  -0.1200000   12.0115
  418        CT    1  MOL    C418   418  -0.1200000   12.0115
  419        CT    1  MOL    C419   419  -0.1200000   12.0115
  420        CT    1  MOL    C420   420  -0.1200000   12.0115
  421        CT    1  MOL    C421   421   0.0800000   12.0115
  422         N    1  MOL    N422   422  -0.5000000   14.0067
  423        HC    1  MOL    H423   423   0.0600000    1.0080
  424        HC    1  MOL    H424   424   0.0600000    1.0080
  425        HC    1  MOL    H425   425   0.0600000    1.0080
  426        HC    1  MOL    H426   426   0.0600000    1.0080
  427        HC    1  MOL    H427   427   0.0600000    1.0080
  428        HC    1  MOL    H428   428   0.0600000    1.0080
  429        HC    1  MOL    H429   429   0.0600000    1.0080
  430        HC    1  MOL    H430   430   0.0600000    1.0080
  431        HC    1  MOL    H431   431   0.0600000    1.0080
  432        HC    1  MOL    H432   432   0.0600000    1.0080
  433        HC    1  MOL    H433   433   0.0600000    1.0080
  434        HC    1  MOL    H434   434   0.0600000    1.0080
  435        HC    1  MOL    H435   435   0.0600000    1.0080
  436        HC    1  MOL    H436   436   0.0600000    1.0080
  437        HC    1  MOL    H437   437   0.0600000    1.0080
  438        HC    1  MOL    H438   438   0.0600000    1.0080
  439        HC    1  MOL    H439   439   0.0600000    1.0080
  440        HC    1  MOL    H440   440   0.0600000    1.0080
  441        HC    1  MOL    H441   441   0.0600000    1.0080
  442        HC    1  MOL    H442   442   0.0600000    1.0080
  443        HC    1  MOL    H443   443   0.0600000    1.0080
  444        HC    1  MOL    H444   444   0.0600000    1.0080
  445         H    1  MOL    H445   445   0.3000000    1.0080
  446         C    1  MOL    C446   446   0.5000000   12.0115
  447         O    1  MOL    O447   447  -0.5000000   15.9994
  448        CT    1  MOL    C448   448  -0.1200000   12.0115
  449        CT    1  MOL    C449   449  -0.1200000   12.0115
  450        CT    1  MOL    C450   450  -0.1200000   12.0115
  451        CT    1  MOL    C451   451  -0.1200000   12.0115
  452        CT    1  MOL    C452   452  -0.1200000   12.0115
  453        CT    1  MOL    C453   453  -0.1200000   12.0115
  454        CT    1  MOL    C454   454  -0.1200000   12.0115
  455        CT    1  MOL    C455   455  -0.1200000   12.0115
  456        CT    1  MOL    C456   456  -0.1200000   12.0115
  457        CT    1  MOL    C457   457  -0.1200000   12.0115
  458        CT    1  MOL    C458   458   0.0800000   12.0115
  459         N    1  MOL    N459   459  -0.5000000   14.0067
  460        HC    1  MOL    H460   460   0.0600000    1.0080
  461        HC    1  MOL    H461   461   0.0600000    1.0080
  462        HC    1  MOL    H462   462   0.0600000    1.0080
  463        HC    1  MOL    H463   463   0.0600000    1.0080
  464        HC    1  MOL    H464   464   0.0600000    1.0080
  465        HC    1  MOL    H465   465   0.0600000    1.0080
  466        HC    1  MOL    H466   466   0.0600000    1.0080
  467        HC    1  MOL    H467   467   0.0600000    1.0080
  468        HC    1  MOL    H468   468   0.0600000    1.0080
  469        HC    1  MOL    H469   469   0.0600000    1.0080
  470        HC    1  MOL    H470   470   0.0600000    1.0080
  471        HC    1  MOL    H471   471   0.0600000    1.0080
  472        HC    1  MOL    H472   472   0.0600000    1.0080
  473        HC    1  MOL    H473   473   0.0600000    1.0080
  474        HC    1  MOL    H474   474   0.0600000    1.0080
  475        HC    1  MOL    H475   475   0.0600000    1.0080
  476        HC    1  MOL    H476   476   0.0600000    1.0080
  477        HC    1  MOL    H477   477   0.0600000    1.0080
  478        HC    1  MOL    H478   478   0.0600000    1.0080
  479        HC    1  MOL    H479   479   0.0600000    1.0080
  480        HC    1  MOL    H480   480   0.0600000    1.0080
  481        HC    1  MOL    H481   481   0.0600000    1.0080
  482         H    1  MOL    H482   482   0.3000000    1.0080
  483         C    1  MOL    C483   483   0.5000000   12.0115
  484         O    1  MOL    O484   484  -0.5000000   15.9994
  485        CT    1  MOL    C485   485  -0.1200000   12.0115
  486        CT    1  MOL    C486   486  -0.1200000   12.0115
  487        CT    1  MOL    C487   487  -0.1200000   12.0115
  488        CT    1  MOL    C488   488  -0.1200000   12.0115
  489        CT    1  MOL    C489   489  -0.1200000   12.0115
  490        CT    1  MOL    C490   490  -0.1200000   12.0115
  491        CT    1  MOL    C491   491  -0.1200000   12.0115
  492        CT    1  MOL    C492   492  -0.1200000   12.0115
  493        CT    1  MOL    C493   493  -0.1200000   12.0115
  494        CT    1  MOL    C494   494  -0.1200000   12.0115
  495        CT    1  MOL    C495   495   0.0800000   12.0115
  496         N    1  MOL    N496   496  -0.5000000   14.0067
  497        HC    1  MOL    H497   497   0.0600000    1.0080
  498        HC    1  MOL    H498   498   0.0600000    1.0080
  499        HC    1  MOL    H499   499   0.0600000    1.0080
  500        HC    1  MOL    H500   500   0.0600000    1.0080
  501        HC    1  MOL    H501   501   0.0600000    1.0080
  502        HC    1  MOL    H502   502   0.0600000    1.0080
  503        HC    1  MOL    H503   503   0.0600000    1.0080
  504        HC    1  MOL    H504   504   0.0600000    1.0080
  505        HC    1  MOL    H505   505   0.0600000    1.0080
  506        HC    1  MOL    H506   506   0.0600000    1.0080
  507        HC    1  MOL    H507   507   0.0600000    1.0080
  508        HC    1  MOL    H508   508   0.0600000    1.0080
  509        HC    1  MOL    H509   509   0.0600000    1.0080
  510        HC    1  MOL    H510   510   0.0600000    1.0080
  511        HC    1  MOL    H511   511   0.0600000    1.0080
  512        HC    1  MOL    H512   512   0.0600000    1.0080
  513        HC    1  MOL    H513   513   0.0600000    1.0080
  514        HC    1  MOL    H514   514   0.0600000    1.0080
  515        HC    1  MOL    H515   515   0.0600000    1.0080
  516        HC    1  MOL    H516   516   0.0600000    1.0080
  517        HC    1  MOL    H517   517   0.0600000    1.0080
  518        HC    1  MOL    H518   518   0.0600000    1.0080
  519         H    1  MOL    H519   519   0.3000000    1.0080
  520         C    1  MOL    C520   520   0.5000000   12.0115
  521         O    1  MOL    O521   521  -0.5000000   15.9994
  522        CT    1  MOL    C522   522  -0.1200000   12.0115
  523        CT    1  MOL    C523   523  -0.1200000   12.0115
  524        CT    1  MOL    C524   524  -0.1200000   12.0115
  525        CT    1  MOL    C525   525  -0.1200000   12.0115
  526        CT    1  MOL    C526   526  -0.1200000   12.0115
  527        CT    1  MOL    C527   527  -0.1200000   12.0115
  528        CT    1  MOL    C528   528  -0.1200000   12.0115
  529        CT    1  MOL    C529   529  -0.1200000   12.0115
  530        CT    1  MOL    C530   530  -0.1200000   12.0115
  531        CT    1  MOL    C531   531  -0.1200000   12.0115
  532        CT    1  MOL    C532   532   0.0800000   12.0115
  533         N    1  MOL    N533   533  -0.5000000   14.0067
  534        HC    1  MOL    H534   534   0.0600000    1.0080
  535        HC    1  MOL    H535   535   0.0600000    1.0080
  536        HC    1  MOL    H536   536   0.0600000    1.0080
  537        HC    1  MOL    H537   537   0.0600000    1.0080
  538        HC    1  MOL    H538   538   0.0600000    1.0080
  539        HC    1  MOL    H539   539   0.0600000    1.0080
  540        HC    1  MOL    H540   540   0.0600000    1.0080
  541        HC    1  MOL    H541   541   0.0600000    1.0080
  542        HC    1  MOL    H542   542   0.0600000    1.0080
  543        HC    1  MOL    H543   543   0.0600000    1.0080
  544        HC    1  MOL    H544   544   0.0600000    1.0080
  545        HC    1  MOL    H545   545   0.0600000    1.0080
  546        HC    1  MOL    H546   546   0.0600000    1.0080
  547        HC    1  MOL    H547   547   0.0600000    1.0080
  548        HC    1  MOL    H548   548   0.0600000    1.0080
  549        HC    1  MOL    H549   549   0.0600000    1.0080
  550        HC    1  MOL    H550   550   0.0600000    1.0080
  551        HC    1  MOL    H551   551   0.0600000    1.0080
  552        HC    1  MOL    H552   552   0.0600000    1.0080
  553        HC    1  MOL    H553   553   0.0600000    1.0080
  554        HC    1  MOL    H554   554   0.0600000    1.0080
  555        HC    1  MOL    H555   555   0.0600000    1.0080
  556         H    1  MOL    H556   556   0.3000000    1.0080
  557         C    1  MOL    C557   557   0.5000000   12.0115
  558         O    1  MOL    O558   558  -0.5000000   15.9994
  559        CT    1  MOL    C559   559  -0.1200000   12.0115
  560        CT    1  MOL    C560   560  -0.1200000   12.0115
  561        CT    1  MOL    C561   561  -0.1200000   12.0115
  562        CT    1  MOL    C562   562  -0.1200000   12.0115
  563        CT    1  MOL    C563   563  -0.1200000   12.0115
  564        CT    1  MOL    C564   564  -0.1200000   12.0115
  565        CT    1  MOL    C565   565  -0.1200000   12.0115
  566        CT    1  MOL    C566   566  -0.1200000   12.0115
  567        CT    1  MOL    C567   567  -0.1200000   12.0115
  568        CT    1  MOL    C568   568  -0.1200000   12.0115
  569        CT    1  MOL    C569   569   0.0800000   12.0115
  570         N    1  MOL    N570   570  -0.5000000   14.0067
  571        HC    1  MOL    H571   571   0.0600000    1.0080
  572        HC    1  MOL    H572   572   0.0600000    1.0080
  573        HC    1  MOL    H573   573   0.0600000    1.0080
  574        HC    1  MOL    H574   574   0.0600000    1.0080
  575        HC    1  MOL    H575   575   0.0600000    1.0080
  576        HC    1  MOL    H576   576   0.0600000    1.0080
  577        HC    1  MOL    H577   577   0.0600000    1.0080
  578        HC    1  MOL    H578   578   0.0600000    1.0080
  579        HC    1  MOL    H579   579   0.0600000    1.0080
  580        HC    1  MOL    H580   580   0.0600000    1.0080
  581        HC    1  MOL    H581   581   0.0600000    1.0080
  582        HC    1  MOL    H582   582   0.0600000    1.0080
  583        HC    1  MOL    H583   583   0.0600000    1.0080
  584        HC    1  MOL    H584   584   0.0600000    1.0080
  585        HC    1  MOL    H585   585   0.0600000    1.0080
  586        HC    1  MOL    H586   586   0.0600000    1.0080
  587        HC    1  MOL    H587   587   0.0600000    1.0080
  588        HC    1  MOL    H588   588   0.0600000    1.0080
  589        HC    1  MOL    H589   589   0.0600000    1.0080
  590        HC    1  MOL    H590   590   0.0600000    1.0080
  591        HC    1  MOL    H591   591   0.0600000    1.0080
  592        HC    1  MOL    H592   592   0.0600000    1.0080
  593         H    1  MOL    H593   593   0.3000000    1.0080
  594         C    1  MOL    C594   594   0.5000000   12.0115
  595         O    1  MOL    O595   595  -0.5000000   15.9994
  596        CT    1  MOL    C596   596  -0.1200000   12.0115
  597        CT    1  MOL    C597   597  -0.1200000   12.0115
  598        CT    1  MOL    C598   598  -0.1200000   12.0115
  599        CT    1  MOL    C599   599  -0.1200000   12.0115
  600        CT    1  MOL    C600   600  -0.1200000   12.0115
  601        CT    1  MOL    C601   601  -0.1200000   12.0115
  602        CT    1  MOL    C602   602  -0.1200000   12.0115
  603        CT    1  MOL    C603   603  -0.1200000   12.0115
  604        CT    1  MOL    C604   604  -0.1200000   12.0115
  605        CT    1  MOL    C605   605  -0.1200000   12.0115
  606        CT    1  MOL    C606   606   0.0800000   12.0115
  607         N    1  MOL    N607   607  -0.5000000   14.0067
  608        HC    1  MOL    H608   608   0.0600000    1.0080
  609        HC    1  MOL    H609   609   0.0600000    1.0080
  610        HC    1  MOL    H610   610   0.0600000    1.0080
  611        HC    1  MOL    H611   611   0.0600000    1.0080
  612        HC    1  MOL    H612   612   0.0600000    1.0080
  613        HC    1  MOL    H613   613   0.0600000    1.0080
  614        HC    1  MOL    H614   614   0.0600000    1.0080
  615        HC    1  MOL    H615   615   0.0600000    1.0080
  616        HC    1  MOL    H616   616   0.0600000    1.0080
  617        HC    1  MOL    H617   617   0.0600000    1.0080
  618        HC    1  MOL    H618   618   0.0600000    1.0080
  619        HC    1  MOL    H619   619   0.0600000    1.0080
  620        HC    1  MOL    H620   620   0.0600000    1.0080
  621        HC    1  MOL    H621   621   0.0600000    1.0080
  622        HC    1  MOL    H622   622   0.0600000    1.0080
  623        HC    1  MOL    H623   623   0.0600000    1.0080
  624        HC    1  MOL    H624   624   0.0600000    1.0080
  625        HC    1  MOL    H625   625   0.0600000    1.0080
  626        HC    1  MOL    H626   626   0.0600000    1.0080
  627        HC    1  MOL    H627   627   0.0600000    1.0080
  628        HC    1  MOL    H628   628   0.0600000    1.0080
  629        HC    1  MOL    H629   629   0.0600000    1.0080
  630         H    1  MOL    H630   630   0.3000000    1.0080
  631         C    1  MOL    C631   631   0.5000000   12.0115
  632         O    1  MOL    O632   632  -0.5000000   15.9994
  633        CT    1  MOL    C633   633  -0.1200000   12.0115
  634        CT    1  MOL    C634   634  -0.1200000   12.0115
  635        CT    1  MOL    C635   635  -0.1200000   12.0115
  636        CT    1  MOL    C636   636  -0.1200000   12.0115
  637        CT    1  MOL    C637   637  -0.1200000   12.0115
  638        CT    1  MOL    C638   638  -0.1200000   12.0115
  639        CT    1  MOL    C639   639  -0.1200000   12.0115
  640        CT    1  MOL    C640   640  -0.1200000   12.0115
  641        CT    1  MOL    C641   641  -0.1200000   12.0115
  642        CT    1  MOL    C642   642  -0.1200000   12.0115
  643        CT    1  MOL    C643   643   0.0800000   12.0115
  644         N    1  MOL    N644   644  -0.5000000   14.0067
  645        HC    1  MOL    H645   645   0.0600000    1.0080
  646        HC    1  MOL    H646   646   0.0600000    1.0080
  647        HC    1  MOL    H647   647   0.0600000    1.0080
  648        HC    1  MOL    H648   648   0.0600000    1.0080
  649        HC    1  MOL    H649   649   0.0600000    1.0080
  650        HC    1  MOL    H650   650   0.0600000    1.0080
  651        HC    1  MOL    H651   651   0.0600000    1.0080
  652        HC    1  MOL    H652   652   0.0600000    1.0080
  653        HC    1  MOL    H653   653   0.0600000    1.0080
  654        HC    1  MOL    H654   654   0.0600000    1.0080
  655        HC    1  MOL    H655   655   0.0600000    1.0080
  656        HC    1  MOL    H656   656   0.0600000    1.0080
  657        HC    1  MOL    H657   657   0.0600000    1.0080
  658        HC    1  MOL    H658   658   0.0600000    1.0080
  659        HC    1  MOL    H659   659   0.0600000    1.0080
  660        HC    1  MOL    H660   660   0.0600000    1.0080
  661        HC    1  MOL    H661   661   0.0600000    1.0080
  662        HC    1  MOL    H662   662   0.0600000    1.0080
  663        HC    1  MOL    H663   663   0.0600000    1.0080
  664        HC    1  MOL    H664   664   0.0600000    1.0080
  665        HC    1  MOL    H665   665   0.0600000    1.0080
  666        HC    1  MOL    H666   666   0.0600000    1.0080
  667         H    1  MOL    H667   667   0.3000000    1.0080
  668         C    1  MOL    C668   668   0.5000000   12.0115
  669         O    1  MOL    O669   669  -0.5000000   15.9994
  670        CT    1  MOL    C670   670  -0.1200000   12.0115
  671        CT    1  MOL    C671   671  -0.1200000   12.0115
  672        CT    1  MOL    C672   672  -0.1200000   12.0115
  673        CT    1  MOL    C673   673  -0.1200000   12.0115
  674        CT    1  MOL    C674   674  -0.1200000   12.0115
  675        CT    1  MOL    C675   675  -0.1200000   12.0115
  676        CT    1  MOL    C676   676  -0.1200000   12.0115
  677        CT    1  MOL    C677   677  -0.1200000   12.0115
  678        CT    1  MOL    C678   678  -0.1200000   12.0115
  679        CT    1  MOL    C679   679  -0.1200000   12.0115
  680        CT    1  MOL    C680   680   0.0800000   12.0115
  681         N    1  MOL    N681   681  -0.5000000   14.0067
  682        HC    1  MOL    H682   682   0.0600000    1.0080
  683        HC    1  MOL    H683   683   0.0600000    1.0080
  684        HC    1  MOL    H684   684   0.0600000    1.0080
  685        HC    1  MOL    H685   685   0.0600000    1.0080
  686        HC    1  MOL    H686   686   0.0600000    1.0080
  687        HC    1  MOL    H687   687   0.0600000    1.0080
  688        HC    1  MOL    H688   688   0.0600000    1.0080
  689        HC    1  MOL    H689   689   0.0600000    1.0080
  690        HC    1  MOL    H690   690   0.0600000    1.0080
  691        HC    1  MOL    H691   691   0.0600000    1.0080
  692        HC    1  MOL    H692   692   0.0600000    1.0080
  693        HC    1  MOL    H693   693   0.0600000    1.0080
  694        HC    1  MOL    H694   694   0.0600000    1.0080
  695        HC    1  MOL    H695   695   0.0600000    1.0080
  696        HC    1  MOL    H696   696   0.0600000    1.0080
  697        HC    1  MOL    H697   697   0.0600000    1.0080
  698        HC    1  MOL    H698   698   0.0600000    1.0080
  699        HC    1  MOL    H699   699   0.0600000    1.0080
  700        HC    1  MOL    H700   700   0.0600000    1.0080
  701        HC    1  MOL    H701   701   0.0600000    1.0080
  702        HC    1  MOL    H702   702   0.0600000    1.0080
  703        HC    1  MOL    H703   703   0.0600000    1.0080
  704         H    1  MOL    H704   704   0.3000000    1.0080
  705         C    1  MOL    C705   705   0.5000000   12.0115
  706         O    1  MOL    O706   706  -0.5000000   15.9994
  707        CT    1  MOL    C707   707  -0.1200000   12.0115
  708        CT    1  MOL    C708   708  -0.1200000   12.0115
  709        CT    1  MOL    C709   709  -0.1200000   12.0115
  710        CT    1  MOL    C710   710  -0.1200000   12.0115
  711        CT    1  MOL    C711   711  -0.1200000   12.0115
  712        CT    1  MOL    C712   712  -0.1200000   12.0115
  713        CT    1  MOL    C713   713  -0.1200000   12.0115
  714        CT    1  MOL    C714   714  -0.1200000   12.0115
  715        CT    1  MOL    C715   715  -0.1200000   12.0115
  716        CT    1  MOL    C716   716  -0.1200000   12.0115
  717        CT    1  MOL    C717   717   0.0600000   12.0115
  718        NT    1  MOL    N718   718  -0.9000000   14.0067
  719        HC    1  MOL    H719   719   0.0600000    1.0080
  720        HC    1  MOL    H720   720   0.0600000    1.0080
  721        HC    1  MOL    H721   721   0.0600000    1.0080
  722        HC    1  MOL    H722   722   0.0600000    1.0080
  723        HC    1  MOL    H723   723   0.0600000    1.0080
  724        HC    1  MOL    H724   724   0.0600000    1.0080
  725        HC    1  MOL    H725   725   0.0600000    1.0080
  726        HC    1  MOL    H726   726   0.0600000    1.0080
  727        HC    1  MOL    H727   727   0.0600000    1.0080
  728        HC    1  MOL    H728   728   0.0600000    1.0080
  729        HC    1  MOL    H729   729   0.0600000    1.0080
  730        HC    1  MOL    H730   730   0.0600000    1.0080
  731        HC    1  MOL    H731   731   0.0600000    1.0080
  732        HC    1  MOL    H732   732   0.0600000    1.0080
  733        HC    1  MOL    H733   733   0.0600000    1.0080
  734        HC    1  MOL    H734   734   0.0600000    1.0080
  735        HC    1  MOL    H735   735   0.0600000    1.0080
  736        HC    1  MOL    H736   736   0.0600000    1.0080
  737        HC    1  MOL    H737   737   0.0600000    1.0080
  738        HC    1  MOL    H738   738   0.0600000    1.0080
  739      HANI    1  MOL    H739   739   0.0600000    1.0080
  740      HANI    1  MOL    H740   740   0.0600000    1.0080
  741         H    1  MOL    H741   741   0.3600000    1.0080
  742         H    1  MOL    H742   742   0.3600000    1.0080

[ bonds ]
      1      2   1      0.1229 476976.0000
      1      3   1      0.1522 265265.6000
      1     38   1      0.1090 284512.0000
      3      4   1      0.1529 224262.4000
      3     15   1      0.1090 284512.0000
      3     16   1      0.1090 284512.0000
      4      5   1      0.1529 224262.4000
      4     17   1      0.1090 284512.0000
      4     18   1      0.1090 284512.0000
      5      6   1      0.1529 224262.4000
      5     19   1      0.1090 284512.0000
      5     20   1      0.1090 284512.0000
      6      7   1      0.1529 224262.4000
      6     21   1      0.1090 284512.0000
      6     22   1      0.1090 284512.0000
      7      8   1      0.1529 224262.4000
      7     23   1      0.1090 284512.0000
      7     24   1      0.1090 284512.0000
      8      9   1      0.1529 224262.4000
      8     25   1      0.1090 284512.0000
      8     26   1      0.1090 284512.0000
      9     10   1      0.1529 224262.4000
      9     27   1      0.1090 284512.0000
      9     28   1      0.1090 284512.0000
     10     11   1      0.1529 224262.4000
     10     29   1      0.1090 284512.0000
     10     30   1      0.1090 284512.0000
     11     12   1      0.1529 224262.4000
     11     31   1      0.1090 284512.0000
     11     32   1      0.1090 284512.0000
     12     13   1      0.1529 224262.4000
     12     33   1      0.1090 284512.0000
     12     34   1      0.1090 284512.0000
     13     14   1      0.1449 282001.6000
     13     35   1      0.1090 284512.0000
     13     36   1      0.1090 284512.0000
     14     37   1      0.1010 363171.2000
     14     39   1      0.1335 410032.0000
     39     40   1      0.1229 476976.0000
     39     41   1      0.1522 265265.6000
     41     42   1      0.1529 224262.4000
     41     53   1      0.1090 284512.0000
     41     54   1      0.1090 284512.0000
     42     43   1      0.1529 224262.4000
     42     55   1      0.1090 284512.0000
     42     56   1      0.1090 284512.0000
     43     44   1      0.1529 224262.4000
     43     57   1      0.1090 284512.0000
     43     58   1      0.1090 284512.0000
     44     45   1      0.1529 224262.4000
     44     59   1      0.1090 284512.0000
     44     60   1      0.1090 284512.0000
     45     46   1      0.1529 224262.4000
     45     61   1      0.1090 284512.0000
     45     62   1      0.1090 284512.0000
     46     47   1      0.1529 224262.4000
     46     63   1      0.1090 284512.0000
     46     64   1      0.1090 284512.0000
     47     48   1      0.1529 224262.4000
     47     65   1      0.1090 284512.0000
     47     66   1      0.1090 284512.0000
     48     49   1      0.1529 224262.4000
     48     67   1      0.1090 284512.0000
     48     68   1      0.1090 284512.0000
     49     50   1      0.1529 224262.4000
     49     69   1      0.1090 284512.0000
     49     70   1      0.1090 284512.0000
     50     51   1      0.1529 224262.4000
     50     71   1      0.1090 284512.0000
     50     72   1      0.1090 284512.0000
     51     52   1      0.1449 282001.6000
     51     73   1      0.1090 284512.0000
     51     74   1      0.1090 284512.0000
     52     75   1      0.1010 363171.2000
     52     76   1      0.1335 410032.0000
     76     77   1      0.1229 476976.0000
     76     78   1      0.1522 265265.6000
     78     79   1      0.1529 224262.4000
     78     90   1      0.1090 284512.0000
     78     91   1      0.1090 284512.0000
     79     80   1      0.1529 224262.4000
     79     92   1      0.1090 284512.0000
     79     93   1      0.1090 284512.0000
     80     81   1      0.1529 224262.4000
     80     94   1      0.1090 284512.0000
     80     95   1      0.1090 284512.0000
     81     82   1      0.1529 224262.4000
     81     96   1      0.1090 284512.0000
     81     97   1      0.1090 284512.0000
     82     83   1      0.1529 224262.4000
     82     98   1      0.1090 284512.0000
     82     99   1      0.1090 284512.0000
     83     84   1      0.1529 224262.4000
     83    100   1      0.1090 284512.0000
     83    101   1      0.1090 284512.0000
     84     85   1      0.1529 224262.4000
     84    102   1      0.1090 284512.0000
     84    103   1      0.1090 284512.0000
     85     86   1      0.1529 224262.4000
     85    104   1      0.1090 284512.0000
     85    105   1      0.1090 284512.0000
     86     87   1      0.1529 224262.4000
     86    106   1      0.1090 284512.0000
     86    107   1      0.1090 284512.0000
     87     88   1      0.1529 224262.4000
     87    108   1      0.1090 284512.0000
     87    109   1      0.1090 284512.0000
     88     89   1      0.1449 282001.6000
     88    110   1      0.1090 284512.0000
     88    111   1      0.1090 284512.0000
     89    112   1      0.1010 363171.2000
     89    113   1      0.1335 410032.0000
    113    114   1      0.1229 476976.0000
    113    115   1      0.1522 265265.6000
    115    116   1      0.1529 224262.4000
    115    127   1      0.1090 284512.0000
    115    128   1      0.1090 284512.0000
    116    117   1      0.1529 224262.4000
    116    129   1      0.1090 284512.0000
    116    130   1      0.1090 284512.0000
    117    118   1      0.1529 224262.4000
    117    131   1      0.1090 284512.0000
    117    132   1      0.1090 284512.0000
    118    119   1      0.1529 224262.4000
    118    133   1      0.1090 284512.0000
    118    134   1      0.1090 284512.0000
    119    120   1      0.1529 224262.4000
    119    135   1      0.1090 284512.0000
    119    136   1      0.1090 284512.0000
    120    121   1      0.1529 224262.4000
    120    137   1      0.1090 284512.0000
    120    138   1      0.1090 284512.0000
    121    122   1      0.1529 224262.4000
    121    139   1      0.1090 284512.0000
    121    140   1      0.1090 284512.0000
    122    123   1      0.1529 224262.4000
    122    141   1      0.1090 284512.0000
    122    142   1      0.1090 284512.0000
    123    124   1      0.1529 224262.4000
    123    143   1      0.1090 284512.0000
    123    144   1      0.1090 284512.0000
    124    125   1      0.1529 224262.4000
    124    145   1      0.1090 284512.0000
    124    146   1      0.1090 284512.0000
    125    126   1      0.1449 282001.6000
    125    147   1      0.1090 284512.0000
    125    148   1      0.1090 284512.0000
    126    149   1      0.1010 363171.2000
    126    150   1      0.1335 410032.0000
    150    151   1      0.1229 476976.0000
    150    152   1      0.1522 265265.6000
    152    153   1      0.1529 224262.4000
    152    164   1      0.1090 284512.0000
    152    165   1      0.1090 284512.0000
    153    154   1      0.1529 224262.4000
    153    166   1      0.1090 284512.0000
    153    167   1      0.1090 284512.0000
    154    155   1      0.1529 224262.4000
    154    168   1      0.1090 284512.0000
    154    169   1      0.1090 284512.0000
    155    156   1      0.1529 224262.4000
    155    170   1      0.1090 284512.0000
    155    171   1      0.1090 284512.0000
    156    157   1      0.1529 224262.4000
    156    172   1      0.1090 284512.0000
    156    173   1      0.1090 284512.0000
    157    158   1      0.1529 224262.4000
    157    174   1      0.1090 284512.0000
    157    175   1      0.1090 284512.0000
    158    159   1      0.1529 224262.4000
    158    176   1      0.1090 284512.0000
    158    177   1      0.1090 284512.0000
    159    160   1      0.1529 224262.4000
    159    178   1      0.1090 284512.0000
    159    179   1      0.1090 284512.0000
    160    161   1      0.1529 224262.4000
    160    180   1      0.1090 284512.0000
    160    181   1      0.1090 284512.0000
    161    162   1      0.1529 224262.4000
    161    182   1      0.1090 284512.0000
    161    183   1      0.1090 284512.0000
    162    163   1      0.1449 282001.6000
    162    184   1      0.1090 284512.0000
    162    185   1      0.1090 284512.0000
    163    186   1      0.1010 363171.2000
    163    187   1      0.1335 410032.0000
    187    188   1      0.1229 476976.0000
    187    189   1      0.1522 265265.6000
    189    190   1      0.1529 224262.4000
    189    201   1      0.1090 284512.0000
    189    202   1      0.1090 284512.0000
    190    191   1      0.1529 224262.4000
    190    203   1      0.1090 284512.0000
    190    204   1      0.1090 284512.0000
    191    192   1      0.1529 224262.4000
    191    205   1      0.1090 284512.0000
    191    206   1      0.1090 284512.0000
    192    193   1      0.1529 224262.4000
    192    207   1      0.1090 284512.0000
    192    208   1      0.1090 284512.0000
    193    194   1      0.1529 224262.4000
    193    209   1      0.1090 284512.0000
    193    210   1      0.1090 284512.0000
    194    195   1      0.1529 224262.4000
    194    211   1      0.1090 284512.0000
    194    212   1      0.1090 284512.0000
    195    196   1      0.1529 224262.4000
    195    213   1      0.1090 284512.0000
    195    214   1      0.1090 284512.0000
    196    197   1      0.1529 224262.4000
    196    215   1      0.1090 284512.0000
    196    216   1      0.1090 284512.0000
    197    198   1      0.1529 224262.4000
    197    217   1      0.1090 284512.0000
    197    218   1      0.1090 284512.0000
    198    199   1      0.1529 224262.4000
    198    219   1      0.1090 284512.0000
    198    220   1      0.1090 284512.0000
    199    200   1      0.1449 282001.6000
    199    221   1      0.1090 284512.0000
    199    222   1      0.1090 284512.0000
    200    223   1      0.1010 363171.2000
    200    224   1      0.1335 410032.0000
    224    225   1      0.1229 476976.0000
    224    226   1      0.1522 265265.6000
    226    227   1      0.1529 224262.4000
    226    238   1      0.1090 284512.0000
    226    239   1      0.1090 284512.0000
    227    228   1      0.1529 224262.4000
    227    240   1      0.1090 284512.0000
    227    241   1      0.1090 284512.0000
    228    229   1      0.1529 224262.4000
    228    242   1      0.1090 284512.0000
    228    243   1      0.1090 284512.0000
    229    230   1      0.1529 224262.4000
    229    244   1      0.1090 284512.0000
    229    245   1      0.1090 284512.0000
    230    231   1      0.1529 224262.4000
    230    246   1      0.1090 284512.0000
    230    247   1      0.1090 284512.0000
    231    232   1      0.1529 224262.4000
    231    248   1      0.1090 284512.0000
    231    249   1      0.1090 284512.0000
    232    233   1      0.1529 224262.4000
    232    250   1      0.1090 284512.0000
    232    251   1      0.1090 284512.0000
    233    234   1      0.1529 224262.4000
    233    252   1      0.1090 284512.0000
    233    253   1      0.1090 284512.0000
    234    235   1      0.1529 224262.4000
    234    254   1      0.1090 284512.0000
    234    255   1      0.1090 284512.0000
    235    236   1      0.1529 224262.4000
    235    256   1      0.1090 284512.0000
    235    257   1      0.1090 284512.0000
    236    237   1      0.1449 282001.6000
    236    258   1      0.1090 284512.0000
    236    259   1      0.1090 284512.0000
    237    260   1      0.1010 363171.2000
    237    261   1      0.1335 410032.0000
    261    262   1      0.1229 476976.0000
    261    263   1      0.1522 265265.6000
    263    264   1      0.1529 224262.4000
    263    275   1      0.1090 284512.0000
    263    276   1      0.1090 284512.0000
    264    265   1      0.1529 224262.4000
    264    277   1      0.1090 284512.0000
    264    278   1      0.1090 284512.0000
    265    266   1      0.1529 224262.4000
    265    279   1      0.1090 284512.0000
    265    280   1      0.1090 284512.0000
    266    267   1      0.1529 224262.4000
    266    281   1      0.1090 284512.0000
    266    282   1      0.1090 284512.0000
    267    268   1      0.1529 224262.4000
    267    283   1      0.1090 284512.0000
    267    284   1      0.1090 284512.0000
    268    269   1      0.1529 224262.4000
    268    285   1      0.1090 284512.0000
    268    286   1      0.1090 284512.0000
    269    270   1      0.1529 224262.4000
    269    287   1      0.1090 284512.0000
    269    288   1      0.1090 284512.0000
    270    271   1      0.1529 224262.4000
    270    289   1      0.1090 284512.0000
    270    290   1      0.1090 284512.0000
    271    272   1      0.1529 224262.4000
    271    291   1      0.1090 284512.0000
    271    292   1      0.1090 284512.0000
    272    273   1      0.1529 224262.4000
    272    293   1      0.1090 284512.0000
    272    294   1      0.1090 284512.0000
    273    274   1      0.1449 282001.6000
    273    295   1      0.1090 284512.0000
    273    296   1      0.1090 284512.0000
    274    297   1      0.1010 363171.2000
    274    298   1      0.1335 410032.0000
    298    299   1      0.1229 476976.0000
    298    300   1      0.1522 265265.6000
    300    301   1      0.1529 224262.4000
    300    312   1      0.1090 284512.0000
    300    313   1      0.1090 284512.0000
    301    302   1      0.1529 224262.4000
    301    314   1      0.1090 284512.0000
    301    315   1      0.1090 284512.0000
    302    303   1      0.1529 224262.4000
    302    316   1      0.1090 284512.0000
    302    317   1      0.1090 284512.0000
    303    304   1      0.1529 224262.4000
    303    318   1      0.1090 284512.0000
    303    319   1      0.1090 284512.0000
    304    305   1      0.1529 224262.4000
    304    320   1      0.1090 284512.0000
    304    321   1      0.1090 284512.0000
    305    306   1      0.1529 224262.4000
    305    322   1      0.1090 284512.0000
    305    323   1      0.1090 284512.0000
    306    307   1      0.1529 224262.4000
    306    324   1      0.1090 284512.0000
    306    325   1      0.1090 284512.0000
    307    308   1      0.1529 224262.4000
    307    326   1      0.1090 284512.0000
    307    327   1      0.1090 284512.0000
    308    309   1      0.1529 224262.4000
    308    328   1      0.1090 284512.0000
    308    329   1      0.1090 284512.0000
    309    310   1      0.1529 224262.4000
    309    330   1      0.1090 284512.0000
    309    331   1      0.1090 284512.0000
    310    311   1      0.1449 282001.6000
    310    332   1      0.1090 284512.0000
    310    333   1      0.1090 284512.0000
    311    334   1      0.1010 363171.2000
    311    335   1      0.1335 410032.0000
    335    336   1      0.1229 476976.0000
    335    337   1      0.1522 265265.6000
    337    338   1      0.1529 224262.4000
    337    349   1      0.1090 284512.0000
    337    350   1      0.1090 284512.0000
    338    339   1      0.1529 224262.4000
    338    351   1      0.1090 284512.0000
    338    352   1      0.1090 284512.0000
    339    340   1      0.1529 224262.4000
    339    353   1      0.1090 284512.0000
    339    354   1      0.1090 284512.0000
    340    341   1      0.1529 224262.4000
    340    355   1      0.1090 284512.0000
    340    356   1      0.1090 284512.0000
    341    342   1      0.1529 224262.4000
    341    357   1      0.1090 284512.0000
    341    358   1      0.1090 284512.0000
    342    343   1      0.1529 224262.4000
    342    359   1      0.1090 284512.0000
    342    360   1      0.1090 284512.0000
    343    344   1      0.1529 224262.4000
    343    361   1      0.1090 284512.0000
    343    362   1      0.1090 284512.0000
    344    345   1      0.1529 224262.4000
    344    363   1      0.1090 284512.0000
    344    364   1      0.1090 284512.0000
    345    346   1      0.1529 224262.4000
    345    365   1      0.1090 284512.0000
    345    366   1      0.1090 284512.0000
    346    347   1      0.1529 224262.4000
    346    367   1      0.1090 284512.0000
    346    368   1      0.1090 284512.0000
    347    348   1      0.1449 282001.6000
    347    369   1      0.1090 284512.0000
    347    370   1      0.1090 284512.0000
    348    371   1      0.1010 363171.2000
    348    372   1      0.1335 410032.0000
    372    373   1      0.1229 476976.0000
    372    374   1      0.1522 265265.6000
    374    375   1      0.1529 224262.4000
    374    386   1      0.1090 284512.0000
    374    387   1      0.1090 284512.0000
    375    376   1      0.1529 224262.4000
    375    388   1      0.1090 284512.0000
    375    389   1      0.1090 284512.0000
    376    377   1      0.1529 224262.4000
    376    390   1      0.1090 284512.0000
    376    391   1      0.1090 284512.0000
    377    378   1      0.1529 224262.4000
    377    392   1      0.1090 284512.0000
    377    393   1      0.1090 284512.0000
    378    379   1      0.1529 224262.4000
    378    394   1      0.1090 284512.0000
    378    395   1      0.1090 284512.0000
    379    380   1      0.1529 224262.4000
    379    396   1      0.1090 284512.0000
    379    397   1      0.1090 284512.0000
    380    381   1      0.1529 224262.4000
    380    398   1      0.1090 284512.0000
    380    399   1      0.1090 284512.0000
    381    382   1      0.1529 224262.4000
    381    400   1      0.1090 284512.0000
    381    401   1      0.1090 284512.0000
    382    383   1      0.1529 224262.4000
    382    402   1      0.1090 284512.0000
    382    403   1      0.1090 284512.0000
    383    384   1      0.1529 224262.4000
    383    404   1      0.1090 284512.0000
    383    405   1      0.1090 284512.0000
    384    385   1      0.1449 282001.6000
    384    406   1      0.1090 284512.0000
    384    407   1      0.1090 284512.0000
    385    408   1      0.1010 363171.2000
    385    409   1      0.1335 410032.0000
    409    410   1      0.1229 476976.0000
    409    411   1      0.1522 265265.6000
    411    412   1      0.1529 224262.4000
    411    423   1      0.1090 284512.0000
    411    424   1      0.1090 284512.0000
    412    413   1      0.1529 224262.4000
    412    425   1      0.1090 284512.0000
    412    426   1      0.1090 284512.0000
    413    414   1      0.1529 224262.4000
    413    427   1      0.1090 284512.0000
    413    428   1      0.1090 284512.0000
    414    415   1      0.1529 224262.4000
    414    429   1      0.1090 284512.0000
    414    430   1      0.1090 284512.0000
    415    416   1      0.1529 224262.4000
    415    431   1      0.1090 284512.0000
    415    432   1      0.1090 284512.0000
    416    417   1      0.1529 224262.4000
    416    433   1      0.1090 284512.0000
    416    434   1      0.1090 284512.0000
    417    418   1      0.1529 224262.4000
    417    435   1      0.1090 284512.0000
    417    436   1      0.1090 284512.0000
    418    419   1      0.1529 224262.4000
    418    437   1      0.1090 284512.0000
    418    438   1      0.1090 284512.0000
    419    420   1      0.1529 224262.4000
    419    439   1      0.1090 284512.0000
    419    440   1      0.1090 284512.0000
    420    421   1      0.1529 224262.4000
    420    441   1      0.1090 284512.0000
    420    442   1      0.1090 284512.0000
    421    422   1      0.1449 282001.6000
    421    443   1      0.1090 284512.0000
    421    444   1      0.1090 284512.0000
    422    445   1      0.1010 363171.2000
    422    446   1      0.1335 410032.0000
    446    447   1      0.1229 476976.0000
    446    448   1      0.1522 265265.6000
    448    449   1      0.1529 224262.4000
    448    460   1      0.1090 284512.0000
    448    461   1      0.1090 284512.0000
    449    450   1      0.1529 224262.4000
    449    462   1      0.1090 284512.0000
    449    463   1      0.1090 284512.0000
    450    451   1      0.1529 224262.4000
    450    464   1      0.1090 284512.0000
    450    465   1      0.1090 284512.0000
    451    452   1      0.1529 224262.4000
    451    466   1      0.1090 284512.0000
    451    467   1      0.1090 284512.0000
    452    453   1      0.1529 224262.4000
    452    468   1      0.1090 284512.0000
    452    469   1      0.1090 284512.0000
    453    454   1      0.1529 224262.4000
    453    470   1      0.1090 284512.0000
    453    471   1      0.1090 284512.0000
    454    455   1      0.1529 224262.4000
    454    472   1      0.1090 284512.0000
    454    473   1      0.1090 284512.0000
    455    456   1      0.1529 224262.4000
    455    474   1      0.1090 284512.0000
    455    475   1      0.1090 284512.0000
    456    457   1      0.1529 224262.4000
    456    476   1      0.1090 284512.0000
    456    477   1      0.1090 284512.0000
    457    458   1      0.1529 224262.4000
    457    478   1      0.1090 284512.0000
    457    479   1      0.1090 284512.0000
    458    459   1      0.1449 282001.6000
    458    480   1      0.1090 284512.0000
    458    481   1      0.1090 284512.0000
    459    482   1      0.1010 363171.2000
    459    483   1      0.1335 410032.0000
    483    484   1      0.1229 476976.0000
    483    485   1      0.1522 265265.6000
    485    486   1      0.1529 224262.4000
    485    497   1      0.1090 284512.0000
    485    498   1      0.1090 284512.0000
    486    487   1      0.1529 224262.4000
    486    499   1      0.1090 284512.0000
    486    500   1      0.1090 284512.0000
    487    488   1      0.1529 224262.4000
    487    501   1      0.1090 284512.0000
    487    502   1      0.1090 284512.0000
    488    489   1      0.1529 224262.4000
    488    503   1      0.1090 284512.0000
    488    504   1      0.1090 284512.0000
    489    490   1      0.1529 224262.4000
    489    505   1      0.1090 284512.0000
    489    506   1      0.1090 284512.0000
    490    491   1      0.1529 224262.4000
    490    507   1      0.1090 284512.0000
    490    508   1      0.1090 284512.0000
    491    492   1      0.1529 224262.4000
    491    509   1      0.1090 284512.0000
    491    510   1      0.1090 284512.0000
    492    493   1      0.1529 224262.4000
    492    511   1      0.1090 284512.0000
    492    512   1      0.1090 284512.0000
    493    494   1      0.1529 224262.4000
    493    513   1      0.1090 284512.0000
    493    514   1      0.1090 284512.0000
    494    495   1      0.1529 224262.4000
    494    515   1      0.1090 284512.0000
    494    516   1      0.1090 284512.0000
    495    496   1      0.1449 282001.6000
    495    517   1      0.1090 284512.0000
    495    518   1      0.1090 284512.0000
    496    519   1      0.1010 363171.2000
    496    520   1      0.1335 410032.0000
    520    521   1      0.1229 476976.0000
    520    522   1      0.1522 265265.6000
    522    523   1      0.1529 224262.4000
    522    534   1      0.1090 284512.0000
    522    535   1      0.1090 284512.0000
    523    524   1      0.1529 224262.4000
    523    536   1      0.1090 284512.0000
    523    537   1      0.1090 284512.0000
    524    525   1      0.1529 224262.4000
    524    538   1      0.1090 284512.0000
    524    539   1      0.1090 284512.0000
    525    526   1      0.1529 224262.4000
    525    540   1      0.1090 284512.0000
    525    541   1      0.1090 284512.0000
    526    527   1      0.1529 224262.4000
    526    542   1      0.1090 284512.0000
    526    543   1      0.1090 284512.0000
    527    528   1      0.1529 224262.4000
    527    544   1      0.1090 284512.0000
    527    545   1      0.1090 284512.0000
    528    529   1      0.1529 224262.4000
    528    546   1      0.1090 284512.0000
    528    547   1      0.1090 284512.0000
    529    530   1      0.1529 224262.4000
    529    548   1      0.1090 284512.0000
    529    549   1      0.1090 284512.0000
    530    531   1      0.1529 224262.4000
    530    550   1      0.1090 284512.0000
    530    551   1      0.1090 284512.0000
    531    532   1      0.1529 224262.4000
    531    552   1      0.1090 284512.0000
    531    553   1      0.1090 284512.0000
    532    533   1      0.1449 282001.6000
    532    554   1      0.1090 284512.0000
    532    555   1      0.1090 284512.0000
    533    556   1      0.1010 363171.2000
    533    557   1      0.1335 410032.0000
    557    558   1      0.1229 476976.0000
    557    559   1      0.1522 265265.6000
    559    560   1      0.1529 224262.4000
    559    571   1      0.1090 284512.0000
    559    572   1      0.1090 284512.0000
    560    561   1      0.1529 224262.4000
    560    573   1      0.1090 284512.0000
    560    574   1      0.1090 284512.0000
    561    562   1      0.1529 224262.4000
    561    575   1      0.1090 284512.0000
    561    576   1      0.1090 284512.0000
    562    563   1      0.1529 224262.4000
    562    577   1      0.1090 284512.0000
    562    578   1      0.1090 284512.0000
    563    564   1      0.1529 224262.4000
    563    579   1      0.1090 284512.0000
    563    580   1      0.1090 284512.0000
    564    565   1      0.1529 224262.4000
    564    581   1      0.1090 284512.0000
    564    582   1      0.1090 284512.0000
    565    566   1      0.1529 224262.4000
    565    583   1      0.1090 284512.0000
    565    584   1      0.1090 284512.0000
    566    567   1      0.1529 224262.4000
    566    585   1      0.1090 284512.0000
    566    586   1      0.1090 284512.0000
    567    568   1      0.1529 224262.4000
    567    587   1      0.1090 284512.0000
    567    588   1      0.1090 284512.0000
    568    569   1      0.1529 224262.4000
    568    589   1      0.1090 284512.0000
    568    590   1      0.1090 284512.0000
    569    570   1      0.1449 282001.6000
    569    591   1      0.1090 284512.0000
    569    592   1      0.1090 284512.0000
    570    593   1      0.1010 363171.2000
    570    594   1      0.1335 410032.0000
    594    595   1      0.1229 476976.0000
    594    596   1      0.1522 265265.6000
    596    597   1      0.1529 224262.4000
    596    608   1      0.1090 284512.0000
    596    609   1      0.1090 284512.0000
    597    598   1      0.1529 224262.4000
    597    610   1      0.1090 284512.0000
    597    611   1      0.1090 284512.0000
    598    599   1      0.1529 224262.4000
    598    612   1      0.1090 284512.0000
    598    613   1      0.1090 284512.0000
    599    600   1      0.1529 224262.4000
    599    614   1      0.1090 284512.0000
    599    615   1      0.1090 284512.0000
    600    601   1      0.1529 224262.4000
    600    616   1      0.1090 284512.0000
    600    617   1      0.1090 284512.0000
    601    602   1      0.1529 224262.4000
    601    618   1      0.1090 284512.0000
    601    619   1      0.1090 284512.0000
    602    603   1      0.1529 224262.4000
    602    620   1      0.1090 284512.0000
    602    621   1      0.1090 284512.0000
    603    604   1      0.1529 224262.4000
    603    622   1      0.1090 284512.0000
    603    623   1      0.1090 284512.0000
    604    605   1      0.1529 224262.4000
    604    624   1      0.1090 284512.0000
    604    625   1      0.1090 284512.0000
    605    606   1      0.1529 224262.4000
    605    626   1      0.1090 284512.0000
    605    627   1      0.1090 284512.0000
    606    607   1      0.1449 282001.6000
    606    628   1      0.1090 284512.0000
    606    629   1      0.1090 284512.0000
    607    630   1      0.1010 363171.2000
    607    631   1      0.1335 410032.0000
    631    632   1      0.1229 476976.0000
    631    633   1      0.1522 265265.6000
    633    634   1      0.1529 224262.4000
    633    645   1      0.1090 284512.0000
    633    646   1      0.1090 284512.0000
    634    635   1      0.1529 224262.4000
    634    647   1      0.1090 284512.0000
    634    648   1      0.1090 284512.0000
    635    636   1      0.1529 224262.4000
    635    649   1      0.1090 284512.0000
    635    650   1      0.1090 284512.0000
    636    637   1      0.1529 224262.4000
    636    651   1      0.1090 284512.0000
    636    652   1      0.1090 284512.0000
    637    638   1      0.1529 224262.4000
    637    653   1      0.1090 284512.0000
    637    654   1      0.1090 284512.0000
    638    639   1      0.1529 224262.4000
    638    655   1      0.1090 284512.0000
    638    656   1      0.1090 284512.0000
    639    640   1      0.1529 224262.4000
    639    657   1      0.1090 284512.0000
    639    658   1      0.1090 284512.0000
    640    641   1      0.1529 224262.4000
    640    659   1      0.1090 284512.0000
    640    660   1      0.1090 284512.0000
    641    642   1      0.1529 224262.4000
    641    661   1      0.1090 284512.0000
    641    662   1      0.1090 284512.0000
    642    643   1      0.1529 224262.4000
    642    663   1      0.1090 284512.0000
    642    664   1      0.1090 284512.0000
    643    644   1      0.1449 282001.6000
    643    665   1      0.1090 284512.0000
    643    666   1      0.1090 284512.0000
    644    667   1      0.1010 363171.2000
    644    668   1      0.1335 410032.0000
    668    669   1      0.1229 476976.0000
    668    670   1      0.1522 265265.6000
    670    671   1      0.1529 224262.4000
    670    682   1      0.1090 284512.0000
    670    683   1      0.1090 284512.0000
    671    672   1      0.1529 224262.4000
    671    684   1      0.1090 284512.0000
    671    685   1      0.1090 284512.0000
    672    673   1      0.1529 224262.4000
    672    686   1      0.1090 284512.0000
    672    687   1      0.1090 284512.0000
    673    674   1      0.1529 224262.4000
    673    688   1      0.1090 284512.0000
    673    689   1      0.1090 284512.0000
    674    675   1      0.1529 224262.4000
    674    690   1      0.1090 284512.0000
    674    691   1      0.1090 284512.0000
    675    676   1      0.1529 224262.4000
    675    692   1      0.1090 284512.0000
    675    693   1      0.1090 284512.0000
    676    677   1      0.1529 224262.4000
    676    694   1      0.1090 284512.0000
    676    695   1      0.1090 284512.0000
    677    678   1      0.1529 224262.4000
    677    696   1      0.1090 284512.0000
    677    697   1      0.1090 284512.0000
    678    679   1      0.1529 224262.4000
    678    698   1      0.1090 284512.0000
    678    699   1      0.1090 284512.0000
    679    680   1      0.1529 224262.4000
    679    700   1      0.1090 284512.0000
    679    701   1      0.1090 284512.0000
    680    681   1      0.1449 282001.6000
    680    702   1      0.1090 284512.0000
    680    703   1      0.1090 284512.0000
    681    704   1      0.1010 363171.2000
    681    705   1      0.1335 410032.0000
    705    706   1      0.1229 476976.0000
    705    707   1      0.1522 265265.6000
    707    708   1      0.1529 224262.4000
    707    719   1      0.1090 284512.0000
    707    720   1      0.1090 284512.0000
    708    709   1      0.1529 224262.4000
    708    721   1      0.1090 284512.0000
    708    722   1      0.1090 284512.0000
    709    710   1      0.1529 224262.4000
    709    723   1      0.1090 284512.0000
    709    724   1      0.1090 284512.0000
    710    711   1      0.1529 224262.4000
    710    725   1      0.1090 284512.0000
    710    726   1      0.1090 284512.0000
    711    712   1      0.1529 224262.4000
    711    727   1      0.1090 284512.0000
    711    728   1      0.1090 284512.0000
    712    713   1      0.1529 224262.4000
    712    729   1      0.1090 284512.0000
    712    730   1      0.1090 284512.0000
    713    714   1      0.1529 224262.4000
    713    731   1      0.1090 284512.0000
    713    732   1      0.1090 284512.0000
    714    715   1      0.1529 224262.4000
    714    733   1      0.1090 284512.0000
    714    734   1      0.1090 284512.0000
    715    716   1      0.1529 224262.4000
    715    735   1      0.1090 284512.0000
    715    736   1      0.1090 284512.0000
    716    717   1      0.1529 224262.4000
    716    737   1      0.1090 284512.0000
    716    738   1      0.1090 284512.0000
    717    718   1      0.1448 319657.6000
    717    739   1      0.1090 284512.0000
    717    740   1      0.1090 284512.0000
    718    741   1      0.1010 363171.2000
    718    742   1      0.1010 363171.2000

[ pairs ]
; ai   aj   funct   fudge_QQ  charge_i   charge_j   c6    c12
      2      4   2   0.50000    -0.4500000   -0.1200000   1.095425e-03  1.218041e-06
      2     15   2   0.50000    -0.4500000    0.0600000   1.726228e-04  6.344822e-08
      2     16   2   0.50000    -0.4500000    0.0600000   1.726228e-04  6.344822e-08
     38      4   2   0.50000     0.0000000   -0.1200000   1.599888e-04  9.721644e-08
     38     15   2   0.50000     0.0000000    0.0600000   2.521187e-05  5.064042e-09
     38     16   2   0.50000     0.0000000    0.0600000   2.521187e-05  5.064042e-09
      1      5   2   0.50000     0.4500000   -0.1200000   1.575021e-03  3.561100e-06
      1     17   2   0.50000     0.4500000    0.0600000   3.869820e-04  3.188634e-07
      1     18   2   0.50000     0.4500000    0.0600000   3.869820e-04  3.188634e-07
     15      5   2   0.50000     0.0600000   -0.1200000   1.599888e-04  9.721644e-08
     15     17   2   0.50000     0.0600000    0.0600000   3.930919e-05  8.704828e-09
     15     18   2   0.50000     0.0600000    0.0600000   3.930919e-05  8.704828e-09
     16      5   2   0.50000     0.0600000   -0.1200000   1.599888e-04  9.721644e-08
     16     17   2   0.50000     0.0600000    0.0600000   3.930919e-05  8.704828e-09
     16     18   2   0.50000     0.0600000    0.0600000   3.930919e-05  8.704828e-09
      3      6   2   0.50000    -0.1200000   -0.1200000   1.015252e-03  1.866303e-06
      3     19   2   0.50000    -0.1200000    0.0600000   2.494471e-04  1.671101e-07
      3     20   2   0.50000    -0.1200000    0.0600000   2.494471e-04  1.671101e-07
     17      6   2   0.50000     0.0600000   -0.1200000   2.494471e-04  1.671101e-07
     17     19   2   0.50000     0.0600000    0.0600000   6.128906e-05  1.496315e-08
     17     20   2   0.50000     0.0600000    0.0600000   6.128906e-05  1.496315e-08
     18      6   2   0.50000     0.0600000   -0.1200000   2.494471e-04  1.671101e-07
     18     19   2   0.50000     0.0600000    0.0600000   6.128906e-05  1.496315e-08
     18     20   2   0.50000     0.0600000    0.0600000   6.128906e-05  1.496315e-08
      4      7   2   0.50000    -0.1200000   -0.1200000   1.015252e-03  1.866303e-06
      4     21   2   0.50000    -0.1200000    0.0600000   2.494471e-04  1.671101e-07
      4     22   2   0.50000    -0.1200000    0.0600000   2.494471e-04  1.671101e-07
     19      7   2   0.50000     0.0600000   -0.1200000   2.494471e-04  1.671101e-07
     19     21   2   0.50000     0.0600000    0.0600000   6.128906e-05  1.496315e-08
     19     22   2   0.50000     0.0600000    0.0600000   6.128906e-05  1.496315e-08
     20      7   2   0.50000     0.0600000   -0.1200000   2.494471e-04  1.671101e-07
     20     21   2   0.50000     0.0600000    0.0600000   6.128906e-05  1.496315e-08
     20     22   2   0.50000     0.0600000    0.0600000   6.128906e-05  1.496315e-08
      5      8   2   0.50000    -0.1200000   -0.1200000   1.015252e-03  1.866303e-06
      5     23   2   0.50000    -0.1200000    0.0600000   2.494471e-04  1.671101e-07
      5     24   2   0.50000    -0.1200000    0.0600000   2.494471e-04  1.671101e-07
     21      8   2   0.50000     0.0600000   -0.1200000   2.494471e-04  1.671101e-07
     21     23   2   0.50000     0.0600000    0.0600000   6.128906e-05  1.496315e-08
     21     24   2   0.50000     0.0600000    0.0600000   6.128906e-05  1.496315e-08
     22      8   2   0.50000     0.0600000   -0.1200000   2.494471e-04  1.671101e-07
     22     23   2   0.50000     0.0600000    0.0600000   6.128906e-05  1.496315e-08
     22     24   2   0.50000     0.0600000    0.0600000   6.128906e-05  1.496315e-08
      6      9   2   0.50000    -0.1200000   -0.1200000   1.015252e-03  1.866303e-06
      6     25   2   0.50000    -0.1200000    0.0600000   2.494471e-04  1.671101e-07
      6     26   2   0.50000    -0.1200000    0.0600000   2.494471e-04  1.671101e-07
     23      9   2   0.50000     0.0600000   -0.1200000   2.494471e-04  1.671101e-07
     23     25   2   0.50000     0.0600000    0.0600000   6.128906e-05  1.496315e-08
     23     26   2   0.50000     0.0600000    0.0600000   6.128906e-05  1.496315e-08
     24      9   2   0.50000     0.0600000   -0.1200000   2.494471e-04  1.671101e-07
     24     25   2   0.50000     0.0600000    0.0600000   6.128906e-05  1.496315e-08
     24     26   2   0.50000     0.0600000    0.0600000   6.128906e-05  1.496315e-08
      7     10   2   0.50000    -0.1200000   -0.1200000   1.015252e-03  1.866303e-06
      7     27   2   0.50000    -0.1200000    0.0600000   2.494471e-04  1.671101e-07
      7     28   2   0.50000    -0.1200000    0.0600000   2.494471e-04  1.671101e-07
     25     10   2   0.50000     0.0600000   -0.1200000   2.494471e-04  1.671101e-07
     25     27   2   0.50000     0.0600000    0.0600000   6.128906e-05  1.496315e-08
     25     28   2   0.50000     0.0600000    0.0600000   6.128906e-05  1.496315e-08
     26     10   2   0.50000     0.0600000   -0.1200000   2.494471e-04  1.671101e-07
     26     27   2   0.50000     0.0600000    0.0600000   6.128906e-05  1.496315e-08
     26     28   2   0.50000     0.0600000    0.0600000   6.128906e-05  1.496315e-08
      8     11   2   0.50000    -0.1200000   -0.1200000   1.015252e-03  1.866303e-06
      8     29   2   0.50000    -0.1200000    0.0600000   2.494471e-04  1.671101e-07
      8     30   2   0.50000    -0.1200000    0.0600000   2.494471e-04  1.671101e-07
     27     11   2   0.50000     0.0600000   -0.1200000   2.494471e-04  1.671101e-07
     27     29   2   0.50000     0.0600000    0.0600000   6.128906e-05  1.496315e-08
     27     30   2   0.50000     0.0600000    0.0600000   6.128906e-05  1.496315e-08
     28     11   2   0.50000     0.0600000   -0.1200000   2.494471e-04  1.671101e-07
     28     29   2   0.50000     0.0600000    0.0600000   6.128906e-05  1.496315e-08
     28     30   2   0.50000     0.0600000    0.0600000   6.128906e-05  1.496315e-08
      9     12   2   0.50000    -0.1200000   -0.1200000   1.015252e-03  1.866303e-06
      9     31   2   0.50000    -0.1200000    0.0600000   2.494471e-04  1.671101e-07
      9     32   2   0.50000    -0.1200000    0.0600000   2.494471e-04  1.671101e-07
     29     12   2   0.50000     0.0600000   -0.1200000   2.494471e-04  1.671101e-07
     29     31   2   0.50000     0.0600000    0.0600000   6.128906e-05  1.496315e-08
     29     32   2   0.50000     0.0600000    0.0600000   6.128906e-05  1.496315e-08
     30     12   2   0.50000     0.0600000   -0.1200000   2.494471e-04  1.671101e-07
     30     31   2   0.50000     0.0600000    0.0600000   6.128906e-05  1.496315e-08
     30     32   2   0.50000     0.0600000    0.0600000   6.128906e-05  1.496315e-08
     10     13   2   0.50000    -0.1200000    0.0800000   1.015252e-03  1.866303e-06
     10     33   2   0.50000    -0.1200000    0.0600000   2.494471e-04  1.671101e-07
     10     34   2   0.50000    -0.1200000    0.0600000   2.494471e-04  1.671101e-07
     31     13   2   0.50000     0.0600000    0.0800000   2.494471e-04  1.671101e-07
     31     33   2   0.50000     0.0600000    0.0600000   6.128906e-05  1.496315e-08
     31     34   2   0.50000     0.0600000    0.0600000   6.128906e-05  1.496315e-08
     32     13   2   0.50000     0.0600000    0.0800000   2.494471e-04  1.671101e-07
     32     33   2   0.50000     0.0600000    0.0600000   6.128906e-05  1.496315e-08
     32     34   2   0.50000     0.0600000    0.0600000   6.128906e-05  1.496315e-08
     11     14   2   0.50000    -0.1200000   -0.5000000   1.304585e-03  1.920112e-06
     11     35   2   0.50000    -0.1200000    0.0600000   2.494471e-04  1.671101e-07
     11     36   2   0.50000    -0.1200000    0.0600000   2.494471e-04  1.671101e-07
     33     14   2   0.50000     0.0600000   -0.5000000   3.205360e-04  1.719281e-07
     33     35   2   0.50000     0.0600000    0.0600000   6.128906e-05  1.496315e-08
     33     36   2   0.50000     0.0600000    0.0600000   6.128906e-05  1.496315e-08
     34     14   2   0.50000     0.0600000   -0.5000000   3.205360e-04  1.719281e-07
     34     35   2   0.50000     0.0600000    0.0600000   6.128906e-05  1.496315e-08
     34     36   2   0.50000     0.0600000    0.0600000   6.128906e-05  1.496315e-08
     12     37   2   0.50000    -0.1200000    0.3000000   1.995577e-06  1.069504e-11
     12     39   2   0.50000    -0.1200000    0.5000000   1.575021e-03  3.561100e-06
     35     37   2   0.50000     0.0600000    0.3000000   4.903125e-07  9.576416e-13
     35     39   2   0.50000     0.0600000    0.5000000   3.869820e-04  3.188634e-07
     36     37   2   0.50000     0.0600000    0.3000000   4.903125e-07  9.576416e-13
     36     39   2   0.50000     0.0600000    0.5000000   3.869820e-04  3.188634e-07
     13     40   2   0.50000     0.0800000   -0.5000000   1.095425e-03  1.218041e-06
     13     41   2   0.50000     0.0800000   -0.1200000   1.015252e-03  1.866303e-06
     37     40   2   0.50000     0.3000000   -0.5000000   2.153164e-06  6.980110e-12
     37     41   2   0.50000     0.3000000   -0.1200000   1.995577e-06  1.069504e-11
     14     42   2   0.50000    -0.5000000   -0.1200000   1.304585e-03  1.920112e-06
     14     53   2   0.50000    -0.5000000    0.0600000   3.205360e-04  1.719281e-07
     14     54   2   0.50000    -0.5000000    0.0600000   3.205360e-04  1.719281e-07
     40     42   2   0.50000    -0.5000000   -0.1200000   1.095425e-03  1.218041e-06
     40     53   2   0.50000    -0.5000000    0.0600000   2.691455e-04  1.090642e-07
     40     54   2   0.50000    -0.5000000    0.0600000   2.691455e-04  1.090642e-07
     39     43   2   0.50000     0.5000000   -0.1200000   1.575021e-03  3.561100e-06
     39     55   2   0.50000     0.5000000    0.0600000   3.869820e-04  3.188634e-07
     39     56   2   0.50000     0.5000000    0.0600000   3.869820e-04  3.188634e-07
     53     43   2   0.50000     0.0600000   -0.1200000   2.494471e-04  1.671101e-07
     53     55   2   0.50000     0.0600000    0.0600000   6.128906e-05  1.496315e-08
     53     56   2   0.50000     0.0600000    0.0600000   6.128906e-05  1.496315e-08
     54     43   2   0.50000     0.0600000   -0.1200000   2.494471e-04  1.671101e-07
     54     55   2   0.50000     0.0600000    0.0600000   6.128906e-05  1.496315e-08
     54     56   2   0.50000     0.0600000    0.0600000   6.128906e-05  1.496315e-08
     41     44   2   0.50000    -0.1200000   -0.1200000   1.015252e-03  1.866303e-06
     41     57   2   0.50000    -0.1200000    0.0600000   2.494471e-04  1.671101e-07
     41     58   2   0.50000    -0.1200000    0.0600000   2.494471e-04  1.671101e-07
     55     44   2   0.50000     0.0600000   -0.1200000   2.494471e-04  1.671101e-07
     55     57   2   0.50000     0.0600000    0.0600000   6.128906e-05  1.496315e-08
     55     58   2   0.50000     0.0600000    0.0600000   6.128906e-05  1.496315e-08
     56     44   2   0.50000     0.0600000   -0.1200000   2.494471e-04  1.671101e-07
     56     57   2   0.50000     0.0600000    0.0600000   6.128906e-05  1.496315e-08
     56     58   2   0.50000     0.0600000    0.0600000   6.128906e-05  1.496315e-08
     42     45   2   0.50000    -0.1200000   -0.1200000   1.015252e-03  1.866303e-06
     42     59   2   0.50000    -0.1200000    0.0600000   2.494471e-04  1.671101e-07
     42     60   2   0.50000    -0.1200000    0.0600000   2.494471e-04  1.671101e-07
     57     45   2   0.50000     0.0600000   -0.1200000   2.494471e-04  1.671101e-07
     57     59   2   0.50000     0.0600000    0.0600000   6.128906e-05  1.496315e-08
     57     60   2   0.50000     0.0600000    0.0600000   6.128906e-05  1.496315e-08
     58     45   2   0.50000     0.0600000   -0.1200000   2.494471e-04  1.671101e-07
     58     59   2   0.50000     0.0600000    0.0600000   6.128906e-05  1.496315e-08
     58     60   2   0.50000     0.0600000    0.0600000   6.128906e-05  1.496315e-08
     43     46   2   0.50000    -0.1200000   -0.1200000   1.015252e-03  1.866303e-06
     43     61   2   0.50000    -0.1200000    0.0600000   2.494471e-04  1.671101e-07
     43     62   2   0.50000    -0.1200000    0.0600000   2.494471e-04  1.671101e-07
     59     46   2   0.50000     0.0600000   -0.1200000   2.494471e-04  1.671101e-07
     59     61   2   0.50000     0.0600000    0.0600000   6.128906e-05  1.496315e-08
     59     62   2   0.50000     0.0600000    0.0600000   6.128906e-05  1.496315e-08
     60     46   2   0.50000     0.0600000   -0.1200000   2.494471e-04  1.671101e-07
     60     61   2   0.50000     0.0600000    0.0600000   6.128906e-05  1.496315e-08
     60     62   2   0.50000     0.0600000    0.0600000   6.128906e-05  1.496315e-08
     44     47   2   0.50000    -0.1200000   -0.1200000   1.015252e-03  1.866303e-06
     44     63   2   0.50000    -0.1200000    0.0600000   2.494471e-04  1.671101e-07
     44     64   2   0.50000    -0.1200000    0.0600000   2.494471e-04  1.671101e-07
     61     47   2   0.50000     0.0600000   -0.1200000   2.494471e-04  1.671101e-07
     61     63   2   0.50000     0.0600000    0.0600000   6.128906e-05  1.496315e-08
     61     64   2   0.50000     0.0600000    0.0600000   6.128906e-05  1.496315e-08
     62     47   2   0.50000     0.0600000   -0.1200000   2.494471e-04  1.671101e-07
     62     63   2   0.50000     0.0600000    0.0600000   6.128906e-05  1.496315e-08
     62     64   2   0.50000     0.0600000    0.0600000   6.128906e-05  1.496315e-08
     45     48   2   0.50000    -0.1200000   -0.1200000   1.015252e-03  1.866303e-06
     45     65   2   0.50000    -0.1200000    0.0600000   2.494471e-04  1.671101e-07
     45     66   2   0.50000    -0.1200000    0.0600000   2.494471e-04  1.671101e-07
     63     48   2   0.50000     0.0600000   -0.1200000   2.494471e-04  1.671101e-07
     63     65   2   0.50000     0.0600000    0.0600000   6.128906e-05  1.496315e-08
     63     66   2   0.50000     0.0600000    0.0600000   6.128906e-05  1.496315e-08
     64     48   2   0.50000     0.0600000   -0.1200000   2.494471e-04  1.671101e-07
     64     65   2   0.50000     0.0600000    0.0600000   6.128906e-05  1.496315e-08
     64     66   2   0.50000     0.0600000    0.0600000   6.128906e-05  1.496315e-08
     46     49   2   0.50000    -0.1200000   -0.1200000   1.015252e-03  1.866303e-06
     46     67   2   0.50000    -0.1200000    0.0600000   2.494471e-04  1.671101e-07
     46     68   2   0.50000    -0.1200000    0.0600000   2.494471e-04  1.671101e-07
     65     49   2   0.50000     0.0600000   -0.1200000   2.494471e-04  1.671101e-07
     65     67   2   0.50000     0.0600000    0.0600000   6.128906e-05  1.496315e-08
     65     68   2   0.50000     0.0600000    0.0600000   6.128906e-05  1.496315e-08
     66     49   2   0.50000     0.0600000   -0.1200000   2.494471e-04  1.671101e-07
     66     67   2   0.50000     0.0600000    0.0600000   6.128906e-05  1.496315e-08
     66     68   2   0.50000     0.0600000    0.0600000   6.128906e-05  1.496315e-08
     47     50   2   0.50000    -0.1200000   -0.1200000   1.015252e-03  1.866303e-06
     47     69   2   0.50000    -0.1200000    0.0600000   2.494471e-04  1.671101e-07
     47     70   2   0.50000    -0.1200000    0.0600000   2.494471e-04  1.671101e-07
     67     50   2   0.50000     0.0600000   -0.1200000   2.494471e-04  1.671101e-07
     67     69   2   0.50000     0.0600000    0.0600000   6.128906e-05  1.496315e-08
     67     70   2   0.50000     0.0600000    0.0600000   6.128906e-05  1.496315e-08
     68     50   2   0.50000     0.0600000   -0.1200000   2.494471e-04  1.671101e-07
     68     69   2   0.50000     0.0600000    0.0600000   6.128906e-05  1.496315e-08
     68     70   2   0.50000     0.0600000    0.0600000   6.128906e-05  1.496315e-08
     48     51   2   0.50000    -0.1200000    0.0800000   1.015252e-03  1.866303e-06
     48     71   2   0.50000    -0.1200000    0.0600000   2.494471e-04  1.671101e-07
     48     72   2   0.50000    -0.1200000    0.0600000   2.494471e-04  1.671101e-07
     69     51   2   0.50000     0.0600000    0.0800000   2.494471e-04  1.671101e-07
     69     71   2   0.50000     0.0600000    0.0600000   6.128906e-05  1.496315e-08
     69     72   2   0.50000     0.0600000    0.0600000   6.128906e-05  1.496315e-08
     70     51   2   0.50000     0.0600000    0.0800000   2.494471e-04  1.671101e-07
     70     71   2   0.50000     0.0600000    0.0600000   6.128906e-05  1.496315e-08
     70     72   2   0.50000     0.0600000    0.0600000   6.128906e-05  1.496315e-08
     49     52   2   0.50000    -0.1200000   -0.5000000   1.304585e-03  1.920112e-06
     49     73   2   0.50000    -0.1200000    0.0600000   2.494471e-04  1.671101e-07
     49     74   2   0.50000    -0.1200000    0.0600000   2.494471e-04  1.671101e-07
     71     52   2   0.50000     0.0600000   -0.5000000   3.205360e-04  1.719281e-07
     71     73   2   0.50000     0.0600000    0.0600000   6.128906e-05  1.496315e-08
     71     74   2   0.50000     0.0600000    0.0600000   6.128906e-05  1.496315e-08
     72     52   2   0.50000     0.0600000   -0.5000000   3.205360e-04  1.719281e-07
     72     73   2   0.50000     0.0600000    0.0600000   6.128906e-05  1.496315e-08
     72     74   2   0.50000     0.0600000    0.0600000   6.128906e-05  1.496315e-08
     50     75   2   0.50000    -0.1200000    0.3000000   1.995577e-06  1.069504e-11
     50     76   2   0.50000    -0.1200000    0.5000000   1.575021e-03  3.561100e-06
     73     75   2   0.50000     0.0600000    0.3000000   4.903125e-07  9.576416e-13
     73     76   2   0.50000     0.0600000    0.5000000   3.869820e-04  3.188634e-07
     74     75   2   0.50000     0.0600000    0.3000000   4.903125e-07  9.576416e-13
     74     76   2   0.50000     0.0600000    0.5000000   3.869820e-04  3.188634e-07
     51     77   2   0.50000     0.0800000   -0.5000000   1.095425e-03  1.218041e-06
     51     78   2   0.50000     0.0800000   -0.1200000   1.015252e-03  1.866303e-06
     75     77   2   0.50000     0.3000000   -0.5000000   2.153164e-06  6.980110e-12
     75     78   2   0.50000     0.3000000   -0.1200000   1.995577e-06  1.069504e-11
     52     79   2   0.50000    -0.5000000   -0.1200000   1.304585e-03  1.920112e-06
     52     90   2   0.50000    -0.5000000    0.0600000   3.205360e-04  1.719281e-07
     52     91   2   0.50000    -0.5000000    0.0600000   3.205360e-04  1.719281e-07
     77     79   2   0.50000    -0.5000000   -0.1200000   1.095425e-03  1.218041e-06
     77     90   2   0.50000    -0.5000000    0.0600000   2.691455e-04  1.090642e-07
     77     91   2   0.50000    -0.5000000    0.0600000   2.691455e-04  1.090642e-07
     76     80   2   0.50000     0.5000000   -0.1200000   1.575021e-03  3.561100e-06
     76     92   2   0.50000     0.5000000    0.0600000   3.869820e-04  3.188634e-07
     76     93   2   0.50000     0.5000000    0.0600000   3.869820e-04  3.188634e-07
     90     80   2   0.50000     0.0600000   -0.1200000   2.494471e-04  1.671101e-07
     90     92   2   0.50000     0.0600000    0.0600000   6.128906e-05  1.496315e-08
     90     93   2   0.50000     0.0600000    0.0600000   6.128906e-05  1.496315e-08
     91     80   2   0.50000     0.0600000   -0.1200000   2.494471e-04  1.671101e-07
     91     92   2   0.50000     0.0600000    0.0600000   6.128906e-05  1.496315e-08
     91     93   2   0.50000     0.0600000    0.0600000   6.128906e-05  1.496315e-08
     78     81   2   0.50000    -0.1200000   -0.1200000   1.015252e-03  1.866303e-06
     78     94   2   0.50000    -0.1200000    0.0600000   2.494471e-04  1.671101e-07
     78     95   2   0.50000    -0.1200000    0.0600000   2.494471e-04  1.671101e-07
     92     81   2   0.50000     0.0600000   -0.1200000   2.494471e-04  1.671101e-07
     92     94   2   0.50000     0.0600000    0.0600000   6.128906e-05  1.496315e-08
     92     95   2   0.50000     0.0600000    0.0600000   6.128906e-05  1.496315e-08
     93     81   2   0.50000     0.0600000   -0.1200000   2.494471e-04  1.671101e-07
     93     94   2   0.50000     0.0600000    0.0600000   6.128906e-05  1.496315e-08
     93     95   2   0.50000     0.0600000    0.0600000   6.128906e-05  1.496315e-08
     79     82   2   0.50000    -0.1200000   -0.1200000   1.015252e-03  1.866303e-06
     79     96   2   0.50000    -0.1200000    0.0600000   2.494471e-04  1.671101e-07
     79     97   2   0.50000    -0.1200000    0.0600000   2.494471e-04  1.671101e-07
     94     82   2   0.50000     0.0600000   -0.1200000   2.494471e-04  1.671101e-07
     94     96   2   0.50000     0.0600000    0.0600000   6.128906e-05  1.496315e-08
     94     97   2   0.50000     0.0600000    0.0600000   6.128906e-05  1.496315e-08
     95     82   2   0.50000     0.0600000   -0.1200000   2.494471e-04  1.671101e-07
     95     96   2   0.50000     0.0600000    0.0600000   6.128906e-05  1.496315e-08
     95     97   2   0.50000     0.0600000    0.0600000   6.128906e-05  1.496315e-08
     80     83   2   0.50000    -0.1200000   -0.1200000   1.015252e-03  1.866303e-06
     80     98   2   0.50000    -0.1200000    0.0600000   2.494471e-04  1.671101e-07
     80     99   2   0.50000    -0.1200000    0.0600000   2.494471e-04  1.671101e-07
     96     83   2   0.50000     0.0600000   -0.1200000   2.494471e-04  1.671101e-07
     96     98   2   0.50000     0.0600000    0.0600000   6.128906e-05  1.496315e-08
     96     99   2   0.50000     0.0600000    0.0600000   6.128906e-05  1.496315e-08
     97     83   2   0.50000     0.0600000   -0.1200000   2.494471e-04  1.671101e-07
     97     98   2   0.50000     0.0600000    0.0600000   6.128906e-05  1.496315e-08
     97     99   2   0.50000     0.0600000    0.0600000   6.128906e-05  1.496315e-08
     81     84   2   0.50000    -0.1200000   -0.1200000   1.015252e-03  1.866303e-06
     81    100   2   0.50000    -0.1200000    0.0600000   2.494471e-04  1.671101e-07
     81    101   2   0.50000    -0.1200000    0.0600000   2.494471e-04  1.671101e-07
     98     84   2   0.50000     0.0600000   -0.1200000   2.494471e-04  1.671101e-07
     98    100   2   0.50000     0.0600000    0.0600000   6.128906e-05  1.496315e-08
     98    101   2   0.50000     0.0600000    0.0600000   6.128906e-05  1.496315e-08
     99     84   2   0.50000     0.0600000   -0.1200000   2.494471e-04  1.671101e-07
     99    100   2   0.50000     0.0600000    0.0600000   6.128906e-05  1.496315e-08
     99    101   2   0.50000     0.0600000    0.0600000   6.128906e-05  1.496315e-08
     82     85   2   0.50000    -0.1200000   -0.1200000   1.015252e-03  1.866303e-06
     82    102   2   0.50000    -0.1200000    0.0600000   2.494471e-04  1.671101e-07
     82    103   2   0.50000    -0.1200000    0.0600000   2.494471e-04  1.671101e-07
    100     85   2   0.50000     0.0600000   -0.1200000   2.494471e-04  1.671101e-07
    100    102   2   0.50000     0.0600000    0.0600000   6.128906e-05  1.496315e-08
    100    103   2   0.50000     0.0600000    0.0600000   6.128906e-05  1.496315e-08
    101     85   2   0.50000     0.0600000   -0.1200000   2.494471e-04  1.671101e-07
    101    102   2   0.50000     0.0600000    0.0600000   6.128906e-05  1.496315e-08
    101    103   2   0.50000     0.0600000    0.0600000   6.128906e-05  1.496315e-08
     83     86   2   0.50000    -0.1200000   -0.1200000   1.015252e-03  1.866303e-06
     83    104   2   0.50000    -0.1200000    0.0600000   2.494471e-04  1.671101e-07
     83    105   2   0.50000    -0.1200000    0.0600000   2.494471e-04  1.671101e-07
    102     86   2   0.50000     0.0600000   -0.1200000   2.494471e-04  1.671101e-07
    102    104   2   0.50000     0.0600000    0.0600000   6.128906e-05  1.496315e-08
    102    105   2   0.50000     0.0600000    0.0600000   6.128906e-05  1.496315e-08
    103     86   2   0.50000     0.0600000   -0.1200000   2.494471e-04  1.671101e-07
    103    104   2   0.50000     0.0600000    0.0600000   6.128906e-05  1.496315e-08
    103    105   2   0.50000     0.0600000    0.0600000   6.128906e-05  1.496315e-08
     84     87   2   0.50000    -0.1200000   -0.1200000   1.015252e-03  1.866303e-06
     84    106   2   0.50000    -0.1200000    0.0600000   2.494471e-04  1.671101e-07
     84    107   2   0.50000    -0.1200000    0.0600000   2.494471e-04  1.671101e-07
    104     87   2   0.50000     0.0600000   -0.1200000   2.494471e-04  1.671101e-07
    104    106   2   0.50000     0.0600000    0.0600000   6.128906e-05  1.496315e-08
    104    107   2   0.50000     0.0600000    0.0600000   6.128906e-05  1.496315e-08
    105     87   2   0.50000     0.0600000   -0.1200000   2.494471e-04  1.671101e-07
    105    106   2   0.50000     0.0600000    0.0600000   6.128906e-05  1.496315e-08
    105    107   2   0.50000     0.0600000    0.0600000   6.128906e-05  1.496315e-08
     85     88   2   0.50000    -0.1200000    0.0800000   1.015252e-03  1.866303e-06
     85    108   2   0.50000    -0.1200000    0.0600000   2.494471e-04  1.671101e-07
     85    109   2   0.50000    -0.1200000    0.0600000   2.494471e-04  1.671101e-07
    106     88   2   0.50000     0.0600000    0.0800000   2.494471e-04  1.671101e-07
    106    108   2   0.50000     0.0600000    0.0600000   6.128906e-05  1.496315e-08
    106    109   2   0.50000     0.0600000    0.0600000   6.128906e-05  1.496315e-08
    107     88   2   0.50000     0.0600000    0.0800000   2.494471e-04  1.671101e-07
    107    108   2   0.50000     0.0600000    0.0600000   6.128906e-05  1.496315e-08
    107    109   2   0.50000     0.0600000    0.0600000   6.128906e-05  1.496315e-08
     86     89   2   0.50000    -0.1200000   -0.5000000   1.304585e-03  1.920112e-06
     86    110   2   0.50000    -0.1200000    0.0600000   2.494471e-04  1.671101e-07
     86    111   2   0.50000    -0.1200000    0.0600000   2.494471e-04  1.671101e-07
    108     89   2   0.50000     0.0600000   -0.5000000   3.205360e-04  1.719281e-07
    108    110   2   0.50000     0.0600000    0.0600000   6.128906e-05  1.496315e-08
    108    111   2   0.50000     0.0600000    0.0600000   6.128906e-05  1.496315e-08
    109     89   2   0.50000     0.0600000   -0.5000000   3.205360e-04  1.719281e-07
    109    110   2   0.50000     0.0600000    0.0600000   6.128906e-05  1.496315e-08
    109    111   2   0.50000     0.0600000    0.0600000   6.128906e-05  1.496315e-08
     87    112   2   0.50000    -0.1200000    0.3000000   1.995577e-06  1.069504e-11
     87    113   2   0.50000    -0.1200000    0.5000000   1.575021e-03  3.561100e-06
    110    112   2   0.50000     0.0600000    0.3000000   4.903125e-07  9.576416e-13
    110    113   2   0.50000     0.0600000    0.5000000   3.869820e-04  3.188634e-07
    111    112   2   0.50000     0.0600000    0.3000000   4.903125e-07  9.576416e-13
    111    113   2   0.50000     0.0600000    0.5000000   3.869820e-04  3.188634e-07
     88    114   2   0.50000     0.0800000   -0.5000000   1.095425e-03  1.218041e-06
     88    115   2   0.50000     0.0800000   -0.1200000   1.015252e-03  1.866303e-06
    112    114   2   0.50000     0.3000000   -0.5000000   2.153164e-06  6.980110e-12
    112    115   2   0.50000     0.3000000   -0.1200000   1.995577e-06  1.069504e-11
     89    116   2   0.50000    -0.5000000   -0.1200000   1.304585e-03  1.920112e-06
     89    127   2   0.50000    -0.5000000    0.0600000   3.205360e-04  1.719281e-07
     89    128   2   0.50000    -0.5000000    0.0600000   3.205360e-04  1.719281e-07
    114    116   2   0.50000    -0.5000000   -0.1200000   1.095425e-03  1.218041e-06
    114    127   2   0.50000    -0.5000000    0.0600000   2.691455e-04  1.090642e-07
    114    128   2   0.50000    -0.5000000    0.0600000   2.691455e-04  1.090642e-07
    113    117   2   0.50000     0.5000000   -0.1200000   1.575021e-03  3.561100e-06
    113    129   2   0.50000     0.5000000    0.0600000   3.869820e-04  3.188634e-07
    113    130   2   0.50000     0.5000000    0.0600000   3.869820e-04  3.188634e-07
    127    117   2   0.50000     0.0600000   -0.1200000   2.494471e-04  1.671101e-07
    127    129   2   0.50000     0.0600000    0.0600000   6.128906e-05  1.496315e-08
    127    130   2   0.50000     0.0600000    0.0600000   6.128906e-05  1.496315e-08
    128    117   2   0.50000     0.0600000   -0.1200000   2.494471e-04  1.671101e-07
    128    129   2   0.50000     0.0600000    0.0600000   6.128906e-05  1.496315e-08
    128    130   2   0.50000     0.0600000    0.0600000   6.128906e-05  1.496315e-08
    115    118   2   0.50000    -0.1200000   -0.1200000   1.015252e-03  1.866303e-06
    115    131   2   0.50000    -0.1200000    0.0600000   2.494471e-04  1.671101e-07
    115    132   2   0.50000    -0.1200000    0.0600000   2.494471e-04  1.671101e-07
    129    118   2   0.50000     0.0600000   -0.1200000   2.494471e-04  1.671101e-07
    129    131   2   0.50000     0.0600000    0.0600000   6.128906e-05  1.496315e-08
    129    132   2   0.50000     0.0600000    0.0600000   6.128906e-05  1.496315e-08
    130    118   2   0.50000     0.0600000   -0.1200000   2.494471e-04  1.671101e-07
    130    131   2   0.50000     0.0600000    0.0600000   6.128906e-05  1.496315e-08
    130    132   2   0.50000     0.0600000    0.0600000   6.128906e-05  1.496315e-08
    116    119   2   0.50000    -0.1200000   -0.1200000   1.015252e-03  1.866303e-06
    116    133   2   0.50000    -0.1200000    0.0600000   2.494471e-04  1.671101e-07
    116    134   2   0.50000    -0.1200000    0.0600000   2.494471e-04  1.671101e-07
    131    119   2   0.50000     0.0600000   -0.1200000   2.494471e-04  1.671101e-07
    131    133   2   0.50000     0.0600000    0.0600000   6.128906e-05  1.496315e-08
    131    134   2   0.50000     0.0600000    0.0600000   6.128906e-05  1.496315e-08
    132    119   2   0.50000     0.0600000   -0.1200000   2.494471e-04  1.671101e-07
    132    133   2   0.50000     0.0600000    0.0600000   6.128906e-05  1.496315e-08
    132    134   2   0.50000     0.0600000    0.0600000   6.128906e-05  1.496315e-08
    117    120   2   0.50000    -0.1200000   -0.1200000   1.015252e-03  1.866303e-06
    117    135   2   0.50000    -0.1200000    0.0600000   2.494471e-04  1.671101e-07
    117    136   2   0.50000    -0.1200000    0.0600000   2.494471e-04  1.671101e-07
    133    120   2   0.50000     0.0600000   -0.1200000   2.494471e-04  1.671101e-07
    133    135   2   0.50000     0.0600000    0.0600000   6.128906e-05  1.496315e-08
    133    136   2   0.50000     0.0600000    0.0600000   6.128906e-05  1.496315e-08
    134    120   2   0.50000     0.0600000   -0.1200000   2.494471e-04  1.671101e-07
    134    135   2   0.50000     0.0600000    0.0600000   6.128906e-05  1.496315e-08
    134    136   2   0.50000     0.0600000    0.0600000   6.128906e-05  1.496315e-08
    118    121   2   0.50000    -0.1200000   -0.1200000   1.015252e-03  1.866303e-06
    118    137   2   0.50000    -0.1200000    0.0600000   2.494471e-04  1.671101e-07
    118    138   2   0.50000    -0.1200000    0.0600000   2.494471e-04  1.671101e-07
    135    121   2   0.50000     0.0600000   -0.1200000   2.494471e-04  1.671101e-07
    135    137   2   0.50000     0.0600000    0.0600000   6.128906e-05  1.496315e-08
    135    138   2   0.50000     0.0600000    0.0600000   6.128906e-05  1.496315e-08
    136    121   2   0.50000     0.0600000   -0.1200000   2.494471e-04  1.671101e-07
    136    137   2   0.50000     0.0600000    0.0600000   6.128906e-05  1.496315e-08
    136    138   2   0.50000     0.0600000    0.0600000   6.128906e-05  1.496315e-08
    119    122   2   0.50000    -0.1200000   -0.1200000   1.015252e-03  1.866303e-06
    119    139   2   0.50000    -0.1200000    0.0600000   2.494471e-04  1.671101e-07
    119    140   2   0.50000    -0.1200000    0.0600000   2.494471e-04  1.671101e-07
    137    122   2   0.50000     0.0600000   -0.1200000   2.494471e-04  1.671101e-07
    137    139   2   0.50000     0.0600000    0.0600000   6.128906e-05  1.496315e-08
    137    140   2   0.50000     0.0600000    0.0600000   6.128906e-05  1.496315e-08
    138    122   2   0.50000     0.0600000   -0.1200000   2.494471e-04  1.671101e-07
    138    139   2   0.50000     0.0600000    0.0600000   6.128906e-05  1.496315e-08
    138    140   2   0.50000     0.0600000    0.0600000   6.128906e-05  1.496315e-08
    120    123   2   0.50000    -0.1200000   -0.1200000   1.015252e-03  1.866303e-06
    120    141   2   0.50000    -0.1200000    0.0600000   2.494471e-04  1.671101e-07
    120    142   2   0.50000    -0.1200000    0.0600000   2.494471e-04  1.671101e-07
    139    123   2   0.50000     0.0600000   -0.1200000   2.494471e-04  1.671101e-07
    139    141   2   0.50000     0.0600000    0.0600000   6.128906e-05  1.496315e-08
    139    142   2   0.50000     0.0600000    0.0600000   6.128906e-05  1.496315e-08
    140    123   2   0.50000     0.0600000   -0.1200000   2.494471e-04  1.671101e-07
    140    141   2   0.50000     0.0600000    0.0600000   6.128906e-05  1.496315e-08
    140    142   2   0.50000     0.0600000    0.0600000   6.128906e-05  1.496315e-08
    121    124   2   0.50000    -0.1200000   -0.1200000   1.015252e-03  1.866303e-06
    121    143   2   0.50000    -0.1200000    0.0600000   2.494471e-04  1.671101e-07
    121    144   2   0.50000    -0.1200000    0.0600000   2.494471e-04  1.671101e-07
    141    124   2   0.50000     0.0600000   -0.1200000   2.494471e-04  1.671101e-07
    141    143   2   0.50000     0.0600000    0.0600000   6.128906e-05  1.496315e-08
    141    144   2   0.50000     0.0600000    0.0600000   6.128906e-05  1.496315e-08
    142    124   2   0.50000     0.0600000   -0.1200000   2.494471e-04  1.671101e-07
    142    143   2   0.50000     0.0600000    0.0600000   6.128906e-05  1.496315e-08
    142    144   2   0.50000     0.0600000    0.0600000   6.128906e-05  1.496315e-08
    122    125   2   0.50000    -0.1200000    0.0800000   1.015252e-03  1.866303e-06
    122    145   2   0.50000    -0.1200000    0.0600000   2.494471e-04  1.671101e-07
    122    146   2   0.50000    -0.1200000    0.0600000   2.494471e-04  1.671101e-07
    143    125   2   0.50000     0.0600000    0.0800000   2.494471e-04  1.671101e-07
    143    145   2   0.50000     0.0600000    0.0600000   6.128906e-05  1.496315e-08
    143    146   2   0.50000     0.0600000    0.0600000   6.128906e-05  1.496315e-08
    144    125   2   0.50000     0.0600000    0.0800000   2.494471e-04  1.671101e-07
    144    145   2   0.50000     0.0600000    0.0600000   6.128906e-05  1.496315e-08
    144    146   2   0.50000     0.0600000    0.0600000   6.128906e-05  1.496315e-08
    123    126   2   0.50000    -0.1200000   -0.5000000   1.304585e-03  1.920112e-06
    123    147   2   0.50000    -0.1200000    0.0600000   2.494471e-04  1.671101e-07
    123    148   2   0.50000    -0.1200000    0.0600000   2.494471e-04  1.671101e-07
    145    126   2   0.50000     0.0600000   -0.5000000   3.205360e-04  1.719281e-07
    145    147   2   0.50000     0.0600000    0.0600000   6.128906e-05  1.496315e-08
    145    148   2   0.50000     0.0600000    0.0600000   6.128906e-05  1.496315e-08
    146    126   2   0.50000     0.0600000   -0.5000000   3.205360e-04  1.719281e-07
    146    147   2   0.50000     0.0600000    0.0600000   6.128906e-05  1.496315e-08
    146    148   2   0.50000     0.0600000    0.0600000   6.128906e-05  1.496315e-08
    124    149   2   0.50000    -0.1200000    0.3000000   1.995577e-06  1.069504e-11
    124    150   2   0.50000    -0.1200000    0.5000000   1.575021e-03  3.561100e-06
    147    149   2   0.50000     0.0600000    0.3000000   4.903125e-07  9.576416e-13
    147    150   2   0.50000     0.0600000    0.5000000   3.869820e-04  3.188634e-07
    148    149   2   0.50000     0.0600000    0.3000000   4.903125e-07  9.576416e-13
    148    150   2   0.50000     0.0600000    0.5000000   3.869820e-04  3.188634e-07
    125    151   2   0.50000     0.0800000   -0.5000000   1.095425e-03  1.218041e-06
    125    152   2   0.50000     0.0800000   -0.1200000   1.015252e-03  1.866303e-06
    149    151   2   0.50000     0.3000000   -0.5000000   2.153164e-06  6.980110e-12
    149    152   2   0.50000     0.3000000   -0.1200000   1.995577e-06  1.069504e-11
    126    153   2   0.50000    -0.5000000   -0.1200000   1.304585e-03  1.920112e-06
    126    164   2   0.50000    -0.5000000    0.0600000   3.205360e-04  1.719281e-07
    126    165   2   0.50000    -0.5000000    0.0600000   3.205360e-04  1.719281e-07
    151    153   2   0.50000    -0.5000000   -0.1200000   1.095425e-03  1.218041e-06
    151    164   2   0.50000    -0.5000000    0.0600000   2.691455e-04  1.090642e-07
    151    165   2   0.50000    -0.5000000    0.0600000   2.691455e-04  1.090642e-07
    150    154   2   0.50000     0.5000000   -0.1200000   1.575021e-03  3.561100e-06
    150    166   2   0.50000     0.5000000    0.0600000   3.869820e-04  3.188634e-07
    150    167   2   0.50000     0.5000000    0.0600000   3.869820e-04  3.188634e-07
    164    154   2   0.50000     0.0600000   -0.1200000   2.494471e-04  1.671101e-07
    164    166   2   0.50000     0.0600000    0.0600000   6.128906e-05  1.496315e-08
    164    167   2   0.50000     0.0600000    0.0600000   6.128906e-05  1.496315e-08
    165    154   2   0.50000     0.0600000   -0.1200000   2.494471e-04  1.671101e-07
    165    166   2   0.50000     0.0600000    0.0600000   6.128906e-05  1.496315e-08
    165    167   2   0.50000     0.0600000    0.0600000   6.128906e-05  1.496315e-08
    152    155   2   0.50000    -0.1200000   -0.1200000   1.015252e-03  1.866303e-06
    152    168   2   0.50000    -0.1200000    0.0600000   2.494471e-04  1.671101e-07
    152    169   2   0.50000    -0.1200000    0.0600000   2.494471e-04  1.671101e-07
    166    155   2   0.50000     0.0600000   -0.1200000   2.494471e-04  1.671101e-07
    166    168   2   0.50000     0.0600000    0.0600000   6.128906e-05  1.496315e-08
    166    169   2   0.50000     0.0600000    0.0600000   6.128906e-05  1.496315e-08
    167    155   2   0.50000     0.0600000   -0.1200000   2.494471e-04  1.671101e-07
    167    168   2   0.50000     0.0600000    0.0600000   6.128906e-05  1.496315e-08
    167    169   2   0.50000     0.0600000    0.0600000   6.128906e-05  1.496315e-08
    153    156   2   0.50000    -0.1200000   -0.1200000   1.015252e-03  1.866303e-06
    153    170   2   0.50000    -0.1200000    0.0600000   2.494471e-04  1.671101e-07
    153    171   2   0.50000    -0.1200000    0.0600000   2.494471e-04  1.671101e-07
    168    156   2   0.50000     0.0600000   -0.1200000   2.494471e-04  1.671101e-07
    168    170   2   0.50000     0.0600000    0.0600000   6.128906e-05  1.496315e-08
    168    171   2   0.50000     0.0600000    0.0600000   6.128906e-05  1.496315e-08
    169    156   2   0.50000     0.0600000   -0.1200000   2.494471e-04  1.671101e-07
    169    170   2   0.50000     0.0600000    0.0600000   6.128906e-05  1.496315e-08
    169    171   2   0.50000     0.0600000    0.0600000   6.128906e-05  1.496315e-08
    154    157   2   0.50000    -0.1200000   -0.1200000   1.015252e-03  1.866303e-06
    154    172   2   0.50000    -0.1200000    0.0600000   2.494471e-04  1.671101e-07
    154    173   2   0.50000    -0.1200000    0.0600000   2.494471e-04  1.671101e-07
    170    157   2   0.50000     0.0600000   -0.1200000   2.494471e-04  1.671101e-07
    170    172   2   0.50000     0.0600000    0.0600000   6.128906e-05  1.496315e-08
    170    173   2   0.50000     0.0600000    0.0600000   6.128906e-05  1.496315e-08
    171    157   2   0.50000     0.0600000   -0.1200000   2.494471e-04  1.671101e-07
    171    172   2   0.50000     0.0600000    0.0600000   6.128906e-05  1.496315e-08
    171    173   2   0.50000     0.0600000    0.0600000   6.128906e-05  1.496315e-08
    155    158   2   0.50000    -0.1200000   -0.1200000   1.015252e-03  1.866303e-06
    155    174   2   0.50000    -0.1200000    0.0600000   2.494471e-04  1.671101e-07
    155    175   2   0.50000    -0.1200000    0.0600000   2.494471e-04  1.671101e-07
    172    158   2   0.50000     0.0600000   -0.1200000   2.494471e-04  1.671101e-07
    172    174   2   0.50000     0.0600000    0.0600000   6.128906e-05  1.496315e-08
    172    175   2   0.50000     0.0600000    0.0600000   6.128906e-05  1.496315e-08
    173    158   2   0.50000     0.0600000   -0.1200000   2.494471e-04  1.671101e-07
    173    174   2   0.50000     0.0600000    0.0600000   6.128906e-05  1.496315e-08
    173    175   2   0.50000     0.0600000    0.0600000   6.128906e-05  1.496315e-08
    156    159   2   0.50000    -0.1200000   -0.1200000   1.015252e-03  1.866303e-06
    156    176   2   0.50000    -0.1200000    0.0600000   2.494471e-04  1.671101e-07
    156    177   2   0.50000    -0.1200000    0.0600000   2.494471e-04  1.671101e-07
    174    159   2   0.50000     0.0600000   -0.1200000   2.494471e-04  1.671101e-07
    174    176   2   0.50000     0.0600000    0.0600000   6.128906e-05  1.496315e-08
    174    177   2   0.50000     0.0600000    0.0600000   6.128906e-05  1.496315e-08
    175    159   2   0.50000     0.0600000   -0.1200000   2.494471e-04  1.671101e-07
    175    176   2   0.50000     0.0600000    0.0600000   6.128906e-05  1.496315e-08
    175    177   2   0.50000     0.0600000    0.0600000   6.128906e-05  1.496315e-08
    157    160   2   0.50000    -0.1200000   -0.1200000   1.015252e-03  1.866303e-06
    157    178   2   0.50000    -0.1200000    0.0600000   2.494471e-04  1.671101e-07
    157    179   2   0.50000    -0.1200000    0.0600000   2.494471e-04  1.671101e-07
    176    160   2   0.50000     0.0600000   -0.1200000   2.494471e-04  1.671101e-07
    176    178   2   0.50000     0.0600000    0.0600000   6.128906e-05  1.496315e-08
    176    179   2   0.50000     0.0600000    0.0600000   6.128906e-05  1.496315e-08
    177    160   2   0.50000     0.0600000   -0.1200000   2.494471e-04  1.671101e-07
    177    178   2   0.50000     0.0600000    0.0600000   6.128906e-05  1.496315e-08
    177    179   2   0.50000     0.0600000    0.0600000   6.128906e-05  1.496315e-08
    158    161   2   0.50000    -0.1200000   -0.1200000   1.015252e-03  1.866303e-06
    158    180   2   0.50000    -0.1200000    0.0600000   2.494471e-04  1.671101e-07
    158    181   2   0.50000    -0.1200000    0.0600000   2.494471e-04  1.671101e-07
    178    161   2   0.50000     0.0600000   -0.1200000   2.494471e-04  1.671101e-07
    178    180   2   0.50000     0.0600000    0.0600000   6.128906e-05  1.496315e-08
    178    181   2   0.50000     0.0600000    0.0600000   6.128906e-05  1.496315e-08
    179    161   2   0.50000     0.0600000   -0.1200000   2.494471e-04  1.671101e-07
    179    180   2   0.50000     0.0600000    0.0600000   6.128906e-05  1.496315e-08
    179    181   2   0.50000     0.0600000    0.0600000   6.128906e-05  1.496315e-08
    159    162   2   0.50000    -0.1200000    0.0800000   1.015252e-03  1.866303e-06
    159    182   2   0.50000    -0.1200000    0.0600000   2.494471e-04  1.671101e-07
    159    183   2   0.50000    -0.1200000    0.0600000   2.494471e-04  1.671101e-07
    180    162   2   0.50000     0.0600000    0.0800000   2.494471e-04  1.671101e-07
    180    182   2   0.50000     0.0600000    0.0600000   6.128906e-05  1.496315e-08
    180    183   2   0.50000     0.0600000    0.0600000   6.128906e-05  1.496315e-08
    181    162   2   0.50000     0.0600000    0.0800000   2.494471e-04  1.671101e-07
    181    182   2   0.50000     0.0600000    0.0600000   6.128906e-05  1.496315e-08
    181    183   2   0.50000     0.0600000    0.0600000   6.128906e-05  1.496315e-08
    160    163   2   0.50000    -0.1200000   -0.5000000   1.304585e-03  1.920112e-06
    160    184   2   0.50000    -0.1200000    0.0600000   2.494471e-04  1.671101e-07
    160    185   2   0.50000    -0.1200000    0.0600000   2.494471e-04  1.671101e-07
    182    163   2   0.50000     0.0600000   -0.5000000   3.205360e-04  1.719281e-07
    182    184   2   0.50000     0.0600000    0.0600000   6.128906e-05  1.496315e-08
    182    185   2   0.50000     0.0600000    0.0600000   6.128906e-05  1.496315e-08
    183    163   2   0.50000     0.0600000   -0.5000000   3.205360e-04  1.719281e-07
    183    184   2   0.50000     0.0600000    0.0600000   6.128906e-05  1.496315e-08
    183    185   2   0.50000     0.0600000    0.0600000   6.128906e-05  1.496315e-08
    161    186   2   0.50000    -0.1200000    0.3000000   1.995577e-06  1.069504e-11
    161    187   2   0.50000    -0.1200000    0.5000000   1.575021e-03  3.561100e-06
    184    186   2   0.50000     0.0600000    0.3000000   4.903125e-07  9.576416e-13
    184    187   2   0.50000     0.0600000    0.5000000   3.869820e-04  3.188634e-07
    185    186   2   0.50000     0.0600000    0.3000000   4.903125e-07  9.576416e-13
    185    187   2   0.50000     0.0600000    0.5000000   3.869820e-04  3.188634e-07
    162    188   2   0.50000     0.0800000   -0.5000000   1.095425e-03  1.218041e-06
    162    189   2   0.50000     0.0800000   -0.1200000   1.015252e-03  1.866303e-06
    186    188   2   0.50000     0.3000000   -0.5000000   2.153164e-06  6.980110e-12
    186    189   2   0.50000     0.3000000   -0.1200000   1.995577e-06  1.069504e-11
    163    190   2   0.50000    -0.5000000   -0.1200000   1.304585e-03  1.920112e-06
    163    201   2   0.50000    -0.5000000    0.0600000   3.205360e-04  1.719281e-07
    163    202   2   0.50000    -0.5000000    0.0600000   3.205360e-04  1.719281e-07
    188    190   2   0.50000    -0.5000000   -0.1200000   1.095425e-03  1.218041e-06
    188    201   2   0.50000    -0.5000000    0.0600000   2.691455e-04  1.090642e-07
    188    202   2   0.50000    -0.5000000    0.0600000   2.691455e-04  1.090642e-07
    187    191   2   0.50000     0.5000000   -0.1200000   1.575021e-03  3.561100e-06
    187    203   2   0.50000     0.5000000    0.0600000   3.869820e-04  3.188634e-07
    187    204   2   0.50000     0.5000000    0.0600000   3.869820e-04  3.188634e-07
    201    191   2   0.50000     0.0600000   -0.1200000   2.494471e-04  1.671101e-07
    201    203   2   0.50000     0.0600000    0.0600000   6.128906e-05  1.496315e-08
    201    204   2   0.50000     0.0600000    0.0600000   6.128906e-05  1.496315e-08
    202    191   2   0.50000     0.0600000   -0.1200000   2.494471e-04  1.671101e-07
    202    203   2   0.50000     0.0600000    0.0600000   6.128906e-05  1.496315e-08
    202    204   2   0.50000     0.0600000    0.0600000   6.128906e-05  1.496315e-08
    189    192   2   0.50000    -0.1200000   -0.1200000   1.015252e-03  1.866303e-06
    189    205   2   0.50000    -0.1200000    0.0600000   2.494471e-04  1.671101e-07
    189    206   2   0.50000    -0.1200000    0.0600000   2.494471e-04  1.671101e-07
    203    192   2   0.50000     0.0600000   -0.1200000   2.494471e-04  1.671101e-07
    203    205   2   0.50000     0.0600000    0.0600000   6.128906e-05  1.496315e-08
    203    206   2   0.50000     0.0600000    0.0600000   6.128906e-05  1.496315e-08
    204    192   2   0.50000     0.0600000   -0.1200000   2.494471e-04  1.671101e-07
    204    205   2   0.50000     0.0600000    0.0600000   6.128906e-05  1.496315e-08
    204    206   2   0.50000     0.0600000    0.0600000   6.128906e-05  1.496315e-08
    190    193   2   0.50000    -0.1200000   -0.1200000   1.015252e-03  1.866303e-06
    190    207   2   0.50000    -0.1200000    0.0600000   2.494471e-04  1.671101e-07
    190    208   2   0.50000    -0.1200000    0.0600000   2.494471e-04  1.671101e-07
    205    193   2   0.50000     0.0600000   -0.1200000   2.494471e-04  1.671101e-07
    205    207   2   0.50000     0.0600000    0.0600000   6.128906e-05  1.496315e-08
    205    208   2   0.50000     0.0600000    0.0600000   6.128906e-05  1.496315e-08
    206    193   2   0.50000     0.0600000   -0.1200000   2.494471e-04  1.671101e-07
    206    207   2   0.50000     0.0600000    0.0600000   6.128906e-05  1.496315e-08
    206    208   2   0.50000     0.0600000    0.0600000   6.128906e-05  1.496315e-08
    191    194   2   0.50000    -0.1200000   -0.1200000   1.015252e-03  1.866303e-06
    191    209   2   0.50000    -0.1200000    0.0600000   2.494471e-04  1.671101e-07
    191    210   2   0.50000    -0.1200000    0.0600000   2.494471e-04  1.671101e-07
    207    194   2   0.50000     0.0600000   -0.1200000   2.494471e-04  1.671101e-07
    207    209   2   0.50000     0.0600000    0.0600000   6.128906e-05  1.496315e-08
    207    210   2   0.50000     0.0600000    0.0600000   6.128906e-05  1.496315e-08
    208    194   2   0.50000     0.0600000   -0.1200000   2.494471e-04  1.671101e-07
    208    209   2   0.50000     0.0600000    0.0600000   6.128906e-05  1.496315e-08
    208    210   2   0.50000     0.0600000    0.0600000   6.128906e-05  1.496315e-08
    192    195   2   0.50000    -0.1200000   -0.1200000   1.015252e-03  1.866303e-06
    192    211   2   0.50000    -0.1200000    0.0600000   2.494471e-04  1.671101e-07
    192    212   2   0.50000    -0.1200000    0.0600000   2.494471e-04  1.671101e-07
    209    195   2   0.50000     0.0600000   -0.1200000   2.494471e-04  1.671101e-07
    209    211   2   0.50000     0.0600000    0.0600000   6.128906e-05  1.496315e-08
    209    212   2   0.50000     0.0600000    0.0600000   6.128906e-05  1.496315e-08
    210    195   2   0.50000     0.0600000   -0.1200000   2.494471e-04  1.671101e-07
    210    211   2   0.50000     0.0600000    0.0600000   6.128906e-05  1.496315e-08
    210    212   2   0.50000     0.0600000    0.0600000   6.128906e-05  1.496315e-08
    193    196   2   0.50000    -0.1200000   -0.1200000   1.015252e-03  1.866303e-06
    193    213   2   0.50000    -0.1200000    0.0600000   2.494471e-04  1.671101e-07
    193    214   2   0.50000    -0.1200000    0.0600000   2.494471e-04  1.671101e-07
    211    196   2   0.50000     0.0600000   -0.1200000   2.494471e-04  1.671101e-07
    211    213   2   0.50000     0.0600000    0.0600000   6.128906e-05  1.496315e-08
    211    214   2   0.50000     0.0600000    0.0600000   6.128906e-05  1.496315e-08
    212    196   2   0.50000     0.0600000   -0.1200000   2.494471e-04  1.671101e-07
    212    213   2   0.50000     0.0600000    0.0600000   6.128906e-05  1.496315e-08
    212    214   2   0.50000     0.0600000    0.0600000   6.128906e-05  1.496315e-08
    194    197   2   0.50000    -0.1200000   -0.1200000   1.015252e-03  1.866303e-06
    194    215   2   0.50000    -0.1200000    0.0600000   2.494471e-04  1.671101e-07
    194    216   2   0.50000    -0.1200000    0.0600000   2.494471e-04  1.671101e-07
    213    197   2   0.50000     0.0600000   -0.1200000   2.494471e-04  1.671101e-07
    213    215   2   0.50000     0.0600000    0.0600000   6.128906e-05  1.496315e-08
    213    216   2   0.50000     0.0600000    0.0600000   6.128906e-05  1.496315e-08
    214    197   2   0.50000     0.0600000   -0.1200000   2.494471e-04  1.671101e-07
    214    215   2   0.50000     0.0600000    0.0600000   6.128906e-05  1.496315e-08
    214    216   2   0.50000     0.0600000    0.0600000   6.128906e-05  1.496315e-08
    195    198   2   0.50000    -0.1200000   -0.1200000   1.015252e-03  1.866303e-06
    195    217   2   0.50000    -0.1200000    0.0600000   2.494471e-04  1.671101e-07
    195    218   2   0.50000    -0.1200000    0.0600000   2.494471e-04  1.671101e-07
    215    198   2   0.50000     0.0600000   -0.1200000   2.494471e-04  1.671101e-07
    215    217   2   0.50000     0.0600000    0.0600000   6.128906e-05  1.496315e-08
    215    218   2   0.50000     0.0600000    0.0600000   6.128906e-05  1.496315e-08
    216    198   2   0.50000     0.0600000   -0.1200000   2.494471e-04  1.671101e-07
    216    217   2   0.50000     0.0600000    0.0600000   6.128906e-05  1.496315e-08
    216    218   2   0.50000     0.0600000    0.0600000   6.128906e-05  1.496315e-08
    196    199   2   0.50000    -0.1200000    0.0800000   1.015252e-03  1.866303e-06
    196    219   2   0.50000    -0.1200000    0.0600000   2.494471e-04  1.671101e-07
    196    220   2   0.50000    -0.1200000    0.0600000   2.494471e-04  1.671101e-07
    217    199   2   0.50000     0.0600000    0.0800000   2.494471e-04  1.671101e-07
    217    219   2   0.50000     0.0600000    0.0600000   6.128906e-05  1.496315e-08
    217    220   2   0.50000     0.0600000    0.0600000   6.128906e-05  1.496315e-08
    218    199   2   0.50000     0.0600000    0.0800000   2.494471e-04  1.671101e-07
    218    219   2   0.50000     0.0600000    0.0600000   6.128906e-05  1.496315e-08
    218    220   2   0.50000     0.0600000    0.0600000   6.128906e-05  1.496315e-08
    197    200   2   0.50000    -0.1200000   -0.5000000   1.304585e-03  1.920112e-06
    197    221   2   0.50000    -0.1200000    0.0600000   2.494471e-04  1.671101e-07
    197    222   2   0.50000    -0.1200000    0.0600000   2.494471e-04  1.671101e-07
    219    200   2   0.50000     0.0600000   -0.5000000   3.205360e-04  1.719281e-07
    219    221   2   0.50000     0.0600000    0.0600000   6.128906e-05  1.496315e-08
    219    222   2   0.50000     0.0600000    0.0600000   6.128906e-05  1.496315e-08
    220    200   2   0.50000     0.0600000   -0.5000000   3.205360e-04  1.719281e-07
    220    221   2   0.50000     0.0600000    0.0600000   6.128906e-05  1.496315e-08
    220    222   2   0.50000     0.0600000    0.0600000   6.128906e-05  1.496315e-08
    198    223   2   0.50000    -0.1200000    0.3000000   1.995577e-06  1.069504e-11
    198    224   2   0.50000    -0.1200000    0.5000000   1.575021e-03  3.561100e-06
    221    223   2   0.50000     0.0600000    0.3000000   4.903125e-07  9.576416e-13
    221    224   2   0.50000     0.0600000    0.5000000   3.869820e-04  3.188634e-07
    222    223   2   0.50000     0.0600000    0.3000000   4.903125e-07  9.576416e-13
    222    224   2   0.50000     0.0600000    0.5000000   3.869820e-04  3.188634e-07
    199    225   2   0.50000     0.0800000   -0.5000000   1.095425e-03  1.218041e-06
    199    226   2   0.50000     0.0800000   -0.1200000   1.015252e-03  1.866303e-06
    223    225   2   0.50000     0.3000000   -0.5000000   2.153164e-06  6.980110e-12
    223    226   2   0.50000     0.3000000   -0.1200000   1.995577e-06  1.069504e-11
    200    227   2   0.50000    -0.5000000   -0.1200000   1.304585e-03  1.920112e-06
    200    238   2   0.50000    -0.5000000    0.0600000   3.205360e-04  1.719281e-07
    200    239   2   0.50000    -0.5000000    0.0600000   3.205360e-04  1.719281e-07
    225    227   2   0.50000    -0.5000000   -0.1200000   1.095425e-03  1.218041e-06
    225    238   2   0.50000    -0.5000000    0.0600000   2.691455e-04  1.090642e-07
    225    239   2   0.50000    -0.5000000    0.0600000   2.691455e-04  1.090642e-07
    224    228   2   0.50000     0.5000000   -0.1200000   1.575021e-03  3.561100e-06
    224    240   2   0.50000     0.5000000    0.0600000   3.869820e-04  3.188634e-07
    224    241   2   0.50000     0.5000000    0.0600000   3.869820e-04  3.188634e-07
    238    228   2   0.50000     0.0600000   -0.1200000   2.494471e-04  1.671101e-07
    238    240   2   0.50000     0.0600000    0.0600000   6.128906e-05  1.496315e-08
    238    241   2   0.50000     0.0600000    0.0600000   6.128906e-05  1.496315e-08
    239    228   2   0.50000     0.0600000   -0.1200000   2.494471e-04  1.671101e-07
    239    240   2   0.50000     0.0600000    0.0600000   6.128906e-05  1.496315e-08
    239    241   2   0.50000     0.0600000    0.0600000   6.128906e-05  1.496315e-08
    226    229   2   0.50000    -0.1200000   -0.1200000   1.015252e-03  1.866303e-06
    226    242   2   0.50000    -0.1200000    0.0600000   2.494471e-04  1.671101e-07
    226    243   2   0.50000    -0.1200000    0.0600000   2.494471e-04  1.671101e-07
    240    229   2   0.50000     0.0600000   -0.1200000   2.494471e-04  1.671101e-07
    240    242   2   0.50000     0.0600000    0.0600000   6.128906e-05  1.496315e-08
    240    243   2   0.50000     0.0600000    0.0600000   6.128906e-05  1.496315e-08
    241    229   2   0.50000     0.0600000   -0.1200000   2.494471e-04  1.671101e-07
    241    242   2   0.50000     0.0600000    0.0600000   6.128906e-05  1.496315e-08
    241    243   2   0.50000     0.0600000    0.0600000   6.128906e-05  1.496315e-08
    227    230   2   0.50000    -0.1200000   -0.1200000   1.015252e-03  1.866303e-06
    227    244   2   0.50000    -0.1200000    0.0600000   2.494471e-04  1.671101e-07
    227    245   2   0.50000    -0.1200000    0.0600000   2.494471e-04  1.671101e-07
    242    230   2   0.50000     0.0600000   -0.1200000   2.494471e-04  1.671101e-07
    242    244   2   0.50000     0.0600000    0.0600000   6.128906e-05  1.496315e-08
    242    245   2   0.50000     0.0600000    0.0600000   6.128906e-05  1.496315e-08
    243    230   2   0.50000     0.0600000   -0.1200000   2.494471e-04  1.671101e-07
    243    244   2   0.50000     0.0600000    0.0600000   6.128906e-05  1.496315e-08
    243    245   2   0.50000     0.0600000    0.0600000   6.128906e-05  1.496315e-08
    228    231   2   0.50000    -0.1200000   -0.1200000   1.015252e-03  1.866303e-06
    228    246   2   0.50000    -0.1200000    0.0600000   2.494471e-04  1.671101e-07
    228    247   2   0.50000    -0.1200000    0.0600000   2.494471e-04  1.671101e-07
    244    231   2   0.50000     0.0600000   -0.1200000   2.494471e-04  1.671101e-07
    244    246   2   0.50000     0.0600000    0.0600000   6.128906e-05  1.496315e-08
    244    247   2   0.50000     0.0600000    0.0600000   6.128906e-05  1.496315e-08
    245    231   2   0.50000     0.0600000   -0.1200000   2.494471e-04  1.671101e-07
    245    246   2   0.50000     0.0600000    0.0600000   6.128906e-05  1.496315e-08
    245    247   2   0.50000     0.0600000    0.0600000   6.128906e-05  1.496315e-08
    229    232   2   0.50000    -0.1200000   -0.1200000   1.015252e-03  1.866303e-06
    229    248   2   0.50000    -0.1200000    0.0600000   2.494471e-04  1.671101e-07
    229    249   2   0.50000    -0.1200000    0.0600000   2.494471e-04  1.671101e-07
    246    232   2   0.50000     0.0600000   -0.1200000   2.494471e-04  1.671101e-07
    246    248   2   0.50000     0.0600000    0.0600000   6.128906e-05  1.496315e-08
    246    249   2   0.50000     0.0600000    0.0600000   6.128906e-05  1.496315e-08
    247    232   2   0.50000     0.0600000   -0.1200000   2.494471e-04  1.671101e-07
    247    248   2   0.50000     0.0600000    0.0600000   6.128906e-05  1.496315e-08
    247    249   2   0.50000     0.0600000    0.0600000   6.128906e-05  1.496315e-08
    230    233   2   0.50000    -0.1200000   -0.1200000   1.015252e-03  1.866303e-06
    230    250   2   0.50000    -0.1200000    0.0600000   2.494471e-04  1.671101e-07
    230    251   2   0.50000    -0.1200000    0.0600000   2.494471e-04  1.671101e-07
    248    233   2   0.50000     0.0600000   -0.1200000   2.494471e-04  1.671101e-07
    248    250   2   0.50000     0.0600000    0.0600000   6.128906e-05  1.496315e-08
    248    251   2   0.50000     0.0600000    0.0600000   6.128906e-05  1.496315e-08
    249    233   2   0.50000     0.0600000   -0.1200000   2.494471e-04  1.671101e-07
    249    250   2   0.50000     0.0600000    0.0600000   6.128906e-05  1.496315e-08
    249    251   2   0.50000     0.0600000    0.0600000   6.128906e-05  1.496315e-08
    231    234   2   0.50000    -0.1200000   -0.1200000   1.015252e-03  1.866303e-06
    231    252   2   0.50000    -0.1200000    0.0600000   2.494471e-04  1.671101e-07
    231    253   2   0.50000    -0.1200000    0.0600000   2.494471e-04  1.671101e-07
    250    234   2   0.50000     0.0600000   -0.1200000   2.494471e-04  1.671101e-07
    250    252   2   0.50000     0.0600000    0.0600000   6.128906e-05  1.496315e-08
    250    253   2   0.50000     0.0600000    0.0600000   6.128906e-05  1.496315e-08
    251    234   2   0.50000     0.0600000   -0.1200000   2.494471e-04  1.671101e-07
    251    252   2   0.50000     0.0600000    0.0600000   6.128906e-05  1.496315e-08
    251    253   2   0.50000     0.0600000    0.0600000   6.128906e-05  1.496315e-08
    232    235   2   0.50000    -0.1200000   -0.1200000   1.015252e-03  1.866303e-06
    232    254   2   0.50000    -0.1200000    0.0600000   2.494471e-04  1.671101e-07
    232    255   2   0.50000    -0.1200000    0.0600000   2.494471e-04  1.671101e-07
    252    235   2   0.50000     0.0600000   -0.1200000   2.494471e-04  1.671101e-07
    252    254   2   0.50000     0.0600000    0.0600000   6.128906e-05  1.496315e-08
    252    255   2   0.50000     0.0600000    0.0600000   6.128906e-05  1.496315e-08
    253    235   2   0.50000     0.0600000   -0.1200000   2.494471e-04  1.671101e-07
    253    254   2   0.50000     0.0600000    0.0600000   6.128906e-05  1.496315e-08
    253    255   2   0.50000     0.0600000    0.0600000   6.128906e-05  1.496315e-08
    233    236   2   0.50000    -0.1200000    0.0800000   1.015252e-03  1.866303e-06
    233    256   2   0.50000    -0.1200000    0.0600000   2.494471e-04  1.671101e-07
    233    257   2   0.50000    -0.1200000    0.0600000   2.494471e-04  1.671101e-07
    254    236   2   0.50000     0.0600000    0.0800000   2.494471e-04  1.671101e-07
    254    256   2   0.50000     0.0600000    0.0600000   6.128906e-05  1.496315e-08
    254    257   2   0.50000     0.0600000    0.0600000   6.128906e-05  1.496315e-08
    255    236   2   0.50000     0.0600000    0.0800000   2.494471e-04  1.671101e-07
    255    256   2   0.50000     0.0600000    0.0600000   6.128906e-05  1.496315e-08
    255    257   2   0.50000     0.0600000    0.0600000   6.128906e-05  1.496315e-08
    234    237   2   0.50000    -0.1200000   -0.5000000   1.304585e-03  1.920112e-06
    234    258   2   0.50000    -0.1200000    0.0600000   2.494471e-04  1.671101e-07
    234    259   2   0.50000    -0.1200000    0.0600000   2.494471e-04  1.671101e-07
    256    237   2   0.50000     0.0600000   -0.5000000   3.205360e-04  1.719281e-07
    256    258   2   0.50000     0.0600000    0.0600000   6.128906e-05  1.496315e-08
    256    259   2   0.50000     0.0600000    0.0600000   6.128906e-05  1.496315e-08
    257    237   2   0.50000     0.0600000   -0.5000000   3.205360e-04  1.719281e-07
    257    258   2   0.50000     0.0600000    0.0600000   6.128906e-05  1.496315e-08
    257    259   2   0.50000     0.0600000    0.0600000   6.128906e-05  1.496315e-08
    235    260   2   0.50000    -0.1200000    0.3000000   1.995577e-06  1.069504e-11
    235    261   2   0.50000    -0.1200000    0.5000000   1.575021e-03  3.561100e-06
    258    260   2   0.50000     0.0600000    0.3000000   4.903125e-07  9.576416e-13
    258    261   2   0.50000     0.0600000    0.5000000   3.869820e-04  3.188634e-07
    259    260   2   0.50000     0.0600000    0.3000000   4.903125e-07  9.576416e-13
    259    261   2   0.50000     0.0600000    0.5000000   3.869820e-04  3.188634e-07
    236    262   2   0.50000     0.0800000   -0.5000000   1.095425e-03  1.218041e-06
    236    263   2   0.50000     0.0800000   -0.1200000   1.015252e-03  1.866303e-06
    260    262   2   0.50000     0.3000000   -0.5000000   2.153164e-06  6.980110e-12
    260    263   2   0.50000     0.3000000   -0.1200000   1.995577e-06  1.069504e-11
    237    264   2   0.50000    -0.5000000   -0.1200000   1.304585e-03  1.920112e-06
    237    275   2   0.50000    -0.5000000    0.0600000   3.205360e-04  1.719281e-07
    237    276   2   0.50000    -0.5000000    0.0600000   3.205360e-04  1.719281e-07
    262    264   2   0.50000    -0.5000000   -0.1200000   1.095425e-03  1.218041e-06
    262    275   2   0.50000    -0.5000000    0.0600000   2.691455e-04  1.090642e-07
    262    276   2   0.50000    -0.5000000    0.0600000   2.691455e-04  1.090642e-07
    261    265   2   0.50000     0.5000000   -0.1200000   1.575021e-03  3.561100e-06
    261    277   2   0.50000     0.5000000    0.0600000   3.869820e-04  3.188634e-07
    261    278   2   0.50000     0.5000000    0.0600000   3.869820e-04  3.188634e-07
    275    265   2   0.50000     0.0600000   -0.1200000   2.494471e-04  1.671101e-07
    275    277   2   0.50000     0.0600000    0.0600000   6.128906e-05  1.496315e-08
    275    278   2   0.50000     0.0600000    0.0600000   6.128906e-05  1.496315e-08
    276    265   2   0.50000     0.0600000   -0.1200000   2.494471e-04  1.671101e-07
    276    277   2   0.50000     0.0600000    0.0600000   6.128906e-05  1.496315e-08
    276    278   2   0.50000     0.0600000    0.0600000   6.128906e-05  1.496315e-08
    263    266   2   0.50000    -0.1200000   -0.1200000   1.015252e-03  1.866303e-06
    263    279   2   0.50000    -0.1200000    0.0600000   2.494471e-04  1.671101e-07
    263    280   2   0.50000    -0.1200000    0.0600000   2.494471e-04  1.671101e-07
    277    266   2   0.50000     0.0600000   -0.1200000   2.494471e-04  1.671101e-07
    277    279   2   0.50000     0.0600000    0.0600000   6.128906e-05  1.496315e-08
    277    280   2   0.50000     0.0600000    0.0600000   6.128906e-05  1.496315e-08
    278    266   2   0.50000     0.0600000   -0.1200000   2.494471e-04  1.671101e-07
    278    279   2   0.50000     0.0600000    0.0600000   6.128906e-05  1.496315e-08
    278    280   2   0.50000     0.0600000    0.0600000   6.128906e-05  1.496315e-08
    264    267   2   0.50000    -0.1200000   -0.1200000   1.015252e-03  1.866303e-06
    264    281   2   0.50000    -0.1200000    0.0600000   2.494471e-04  1.671101e-07
    264    282   2   0.50000    -0.1200000    0.0600000   2.494471e-04  1.671101e-07
    279    267   2   0.50000     0.0600000   -0.1200000   2.494471e-04  1.671101e-07
    279    281   2   0.50000     0.0600000    0.0600000   6.128906e-05  1.496315e-08
    279    282   2   0.50000     0.0600000    0.0600000   6.128906e-05  1.496315e-08
    280    267   2   0.50000     0.0600000   -0.1200000   2.494471e-04  1.671101e-07
    280    281   2   0.50000     0.0600000    0.0600000   6.128906e-05  1.496315e-08
    280    282   2   0.50000     0.0600000    0.0600000   6.128906e-05  1.496315e-08
    265    268   2   0.50000    -0.1200000   -0.1200000   1.015252e-03  1.866303e-06
    265    283   2   0.50000    -0.1200000    0.0600000   2.494471e-04  1.671101e-07
    265    284   2   0.50000    -0.1200000    0.0600000   2.494471e-04  1.671101e-07
    281    268   2   0.50000     0.0600000   -0.1200000   2.494471e-04  1.671101e-07
    281    283   2   0.50000     0.0600000    0.0600000   6.128906e-05  1.496315e-08
    281    284   2   0.50000     0.0600000    0.0600000   6.128906e-05  1.496315e-08
    282    268   2   0.50000     0.0600000   -0.1200000   2.494471e-04  1.671101e-07
    282    283   2   0.50000     0.0600000    0.0600000   6.128906e-05  1.496315e-08
    282    284   2   0.50000     0.0600000    0.0600000   6.128906e-05  1.496315e-08
    266    269   2   0.50000    -0.1200000   -0.1200000   1.015252e-03  1.866303e-06
    266    285   2   0.50000    -0.1200000    0.0600000   2.494471e-04  1.671101e-07
    266    286   2   0.50000    -0.1200000    0.0600000   2.494471e-04  1.671101e-07
    283    269   2   0.50000     0.0600000   -0.1200000   2.494471e-04  1.671101e-07
    283    285   2   0.50000     0.0600000    0.0600000   6.128906e-05  1.496315e-08
    283    286   2   0.50000     0.0600000    0.0600000   6.128906e-05  1.496315e-08
    284    269   2   0.50000     0.0600000   -0.1200000   2.494471e-04  1.671101e-07
    284    285   2   0.50000     0.0600000    0.0600000   6.128906e-05  1.496315e-08
    284    286   2   0.50000     0.0600000    0.0600000   6.128906e-05  1.496315e-08
    267    270   2   0.50000    -0.1200000   -0.1200000   1.015252e-03  1.866303e-06
    267    287   2   0.50000    -0.1200000    0.0600000   2.494471e-04  1.671101e-07
    267    288   2   0.50000    -0.1200000    0.0600000   2.494471e-04  1.671101e-07
    285    270   2   0.50000     0.0600000   -0.1200000   2.494471e-04  1.671101e-07
    285    287   2   0.50000     0.0600000    0.0600000   6.128906e-05  1.496315e-08
    285    288   2   0.50000     0.0600000    0.0600000   6.128906e-05  1.496315e-08
    286    270   2   0.50000     0.0600000   -0.1200000   2.494471e-04  1.671101e-07
    286    287   2   0.50000     0.0600000    0.0600000   6.128906e-05  1.496315e-08
    286    288   2   0.50000     0.0600000    0.0600000   6.128906e-05  1.496315e-08
    268    271   2   0.50000    -0.1200000   -0.1200000   1.015252e-03  1.866303e-06
    268    289   2   0.50000    -0.1200000    0.0600000   2.494471e-04  1.671101e-07
    268    290   2   0.50000    -0.1200000    0.0600000   2.494471e-04  1.671101e-07
    287    271   2   0.50000     0.0600000   -0.1200000   2.494471e-04  1.671101e-07
    287    289   2   0.50000     0.0600000    0.0600000   6.128906e-05  1.496315e-08
    287    290   2   0.50000     0.0600000    0.0600000   6.128906e-05  1.496315e-08
    288    271   2   0.50000     0.0600000   -0.1200000   2.494471e-04  1.671101e-07
    288    289   2   0.50000     0.0600000    0.0600000   6.128906e-05  1.496315e-08
    288    290   2   0.50000     0.0600000    0.0600000   6.128906e-05  1.496315e-08
    269    272   2   0.50000    -0.1200000   -0.1200000   1.015252e-03  1.866303e-06
    269    291   2   0.50000    -0.1200000    0.0600000   2.494471e-04  1.671101e-07
    269    292   2   0.50000    -0.1200000    0.0600000   2.494471e-04  1.671101e-07
    289    272   2   0.50000     0.0600000   -0.1200000   2.494471e-04  1.671101e-07
    289    291   2   0.50000     0.0600000    0.0600000   6.128906e-05  1.496315e-08
    289    292   2   0.50000     0.0600000    0.0600000   6.128906e-05  1.496315e-08
    290    272   2   0.50000     0.0600000   -0.1200000   2.494471e-04  1.671101e-07
    290    291   2   0.50000     0.0600000    0.0600000   6.128906e-05  1.496315e-08
    290    292   2   0.50000     0.0600000    0.0600000   6.128906e-05  1.496315e-08
    270    273   2   0.50000    -0.1200000    0.0800000   1.015252e-03  1.866303e-06
    270    293   2   0.50000    -0.1200000    0.0600000   2.494471e-04  1.671101e-07
    270    294   2   0.50000    -0.1200000    0.0600000   2.494471e-04  1.671101e-07
    291    273   2   0.50000     0.0600000    0.0800000   2.494471e-04  1.671101e-07
    291    293   2   0.50000     0.0600000    0.0600000   6.128906e-05  1.496315e-08
    291    294   2   0.50000     0.0600000    0.0600000   6.128906e-05  1.496315e-08
    292    273   2   0.50000     0.0600000    0.0800000   2.494471e-04  1.671101e-07
    292    293   2   0.50000     0.0600000    0.0600000   6.128906e-05  1.496315e-08
    292    294   2   0.50000     0.0600000    0.0600000   6.128906e-05  1.496315e-08
    271    274   2   0.50000    -0.1200000   -0.5000000   1.304585e-03  1.920112e-06
    271    295   2   0.50000    -0.1200000    0.0600000   2.494471e-04  1.671101e-07
    271    296   2   0.50000    -0.1200000    0.0600000   2.494471e-04  1.671101e-07
    293    274   2   0.50000     0.0600000   -0.5000000   3.205360e-04  1.719281e-07
    293    295   2   0.50000     0.0600000    0.0600000   6.128906e-05  1.496315e-08
    293    296   2   0.50000     0.0600000    0.0600000   6.128906e-05  1.496315e-08
    294    274   2   0.50000     0.0600000   -0.5000000   3.205360e-04  1.719281e-07
    294    295   2   0.50000     0.0600000    0.0600000   6.128906e-05  1.496315e-08
    294    296   2   0.50000     0.0600000    0.0600000   6.128906e-05  1.496315e-08
    272    297   2   0.50000    -0.1200000    0.3000000   1.995577e-06  1.069504e-11
    272    298   2   0.50000    -0.1200000    0.5000000   1.575021e-03  3.561100e-06
    295    297   2   0.50000     0.0600000    0.3000000   4.903125e-07  9.576416e-13
    295    298   2   0.50000     0.0600000    0.5000000   3.869820e-04  3.188634e-07
    296    297   2   0.50000     0.0600000    0.3000000   4.903125e-07  9.576416e-13
    296    298   2   0.50000     0.0600000    0.5000000   3.869820e-04  3.188634e-07
    273    299   2   0.50000     0.0800000   -0.5000000   1.095425e-03  1.218041e-06
    273    300   2   0.50000     0.0800000   -0.1200000   1.015252e-03  1.866303e-06
    297    299   2   0.50000     0.3000000   -0.5000000   2.153164e-06  6.980110e-12
    297    300   2   0.50000     0.3000000   -0.1200000   1.995577e-06  1.069504e-11
    274    301   2   0.50000    -0.5000000   -0.1200000   1.304585e-03  1.920112e-06
    274    312   2   0.50000    -0.5000000    0.0600000   3.205360e-04  1.719281e-07
    274    313   2   0.50000    -0.5000000    0.0600000   3.205360e-04  1.719281e-07
    299    301   2   0.50000    -0.5000000   -0.1200000   1.095425e-03  1.218041e-06
    299    312   2   0.50000    -0.5000000    0.0600000   2.691455e-04  1.090642e-07
    299    313   2   0.50000    -0.5000000    0.0600000   2.691455e-04  1.090642e-07
    298    302   2   0.50000     0.5000000   -0.1200000   1.575021e-03  3.561100e-06
    298    314   2   0.50000     0.5000000    0.0600000   3.869820e-04  3.188634e-07
    298    315   2   0.50000     0.5000000    0.0600000   3.869820e-04  3.188634e-07
    312    302   2   0.50000     0.0600000   -0.1200000   2.494471e-04  1.671101e-07
    312    314   2   0.50000     0.0600000    0.0600000   6.128906e-05  1.496315e-08
    312    315   2   0.50000     0.0600000    0.0600000   6.128906e-05  1.496315e-08
    313    302   2   0.50000     0.0600000   -0.1200000   2.494471e-04  1.671101e-07
    313    314   2   0.50000     0.0600000    0.0600000   6.128906e-05  1.496315e-08
    313    315   2   0.50000     0.0600000    0.0600000   6.128906e-05  1.496315e-08
    300    303   2   0.50000    -0.1200000   -0.1200000   1.015252e-03  1.866303e-06
    300    316   2   0.50000    -0.1200000    0.0600000   2.494471e-04  1.671101e-07
    300    317   2   0.50000    -0.1200000    0.0600000   2.494471e-04  1.671101e-07
    314    303   2   0.50000     0.0600000   -0.1200000   2.494471e-04  1.671101e-07
    314    316   2   0.50000     0.0600000    0.0600000   6.128906e-05  1.496315e-08
    314    317   2   0.50000     0.0600000    0.0600000   6.128906e-05  1.496315e-08
    315    303   2   0.50000     0.0600000   -0.1200000   2.494471e-04  1.671101e-07
    315    316   2   0.50000     0.0600000    0.0600000   6.128906e-05  1.496315e-08
    315    317   2   0.50000     0.0600000    0.0600000   6.128906e-05  1.496315e-08
    301    304   2   0.50000    -0.1200000   -0.1200000   1.015252e-03  1.866303e-06
    301    318   2   0.50000    -0.1200000    0.0600000   2.494471e-04  1.671101e-07
    301    319   2   0.50000    -0.1200000    0.0600000   2.494471e-04  1.671101e-07
    316    304   2   0.50000     0.0600000   -0.1200000   2.494471e-04  1.671101e-07
    316    318   2   0.50000     0.0600000    0.0600000   6.128906e-05  1.496315e-08
    316    319   2   0.50000     0.0600000    0.0600000   6.128906e-05  1.496315e-08
    317    304   2   0.50000     0.0600000   -0.1200000   2.494471e-04  1.671101e-07
    317    318   2   0.50000     0.0600000    0.0600000   6.128906e-05  1.496315e-08
    317    319   2   0.50000     0.0600000    0.0600000   6.128906e-05  1.496315e-08
    302    305   2   0.50000    -0.1200000   -0.1200000   1.015252e-03  1.866303e-06
    302    320   2   0.50000    -0.1200000    0.0600000   2.494471e-04  1.671101e-07
    302    321   2   0.50000    -0.1200000    0.0600000   2.494471e-04  1.671101e-07
    318    305   2   0.50000     0.0600000   -0.1200000   2.494471e-04  1.671101e-07
    318    320   2   0.50000     0.0600000    0.0600000   6.128906e-05  1.496315e-08
    318    321   2   0.50000     0.0600000    0.0600000   6.128906e-05  1.496315e-08
    319    305   2   0.50000     0.0600000   -0.1200000   2.494471e-04  1.671101e-07
    319    320   2   0.50000     0.0600000    0.0600000   6.128906e-05  1.496315e-08
    319    321   2   0.50000     0.0600000    0.0600000   6.128906e-05  1.496315e-08
    303    306   2   0.50000    -0.1200000   -0.1200000   1.015252e-03  1.866303e-06
    303    322   2   0.50000    -0.1200000    0.0600000   2.494471e-04  1.671101e-07
    303    323   2   0.50000    -0.1200000    0.0600000   2.494471e-04  1.671101e-07
    320    306   2   0.50000     0.0600000   -0.1200000   2.494471e-04  1.671101e-07
    320    322   2   0.50000     0.0600000    0.0600000   6.128906e-05  1.496315e-08
    320    323   2   0.50000     0.0600000    0.0600000   6.128906e-05  1.496315e-08
    321    306   2   0.50000     0.0600000   -0.1200000   2.494471e-04  1.671101e-07
    321    322   2   0.50000     0.0600000    0.0600000   6.128906e-05  1.496315e-08
    321    323   2   0.50000     0.0600000    0.0600000   6.128906e-05  1.496315e-08
    304    307   2   0.50000    -0.1200000   -0.1200000   1.015252e-03  1.866303e-06
    304    324   2   0.50000    -0.1200000    0.0600000   2.494471e-04  1.671101e-07
    304    325   2   0.50000    -0.1200000    0.0600000   2.494471e-04  1.671101e-07
    322    307   2   0.50000     0.0600000   -0.1200000   2.494471e-04  1.671101e-07
    322    324   2   0.50000     0.0600000    0.0600000   6.128906e-05  1.496315e-08
    322    325   2   0.50000     0.0600000    0.0600000   6.128906e-05  1.496315e-08
    323    307   2   0.50000     0.0600000   -0.1200000   2.494471e-04  1.671101e-07
    323    324   2   0.50000     0.0600000    0.0600000   6.128906e-05  1.496315e-08
    323    325   2   0.50000     0.0600000    0.0600000   6.128906e-05  1.496315e-08
    305    308   2   0.50000    -0.1200000   -0.1200000   1.015252e-03  1.866303e-06
    305    326   2   0.50000    -0.1200000    0.0600000   2.494471e-04  1.671101e-07
    305    327   2   0.50000    -0.1200000    0.0600000   2.494471e-04  1.671101e-07
    324    308   2   0.50000     0.0600000   -0.1200000   2.494471e-04  1.671101e-07
    324    326   2   0.50000     0.0600000    0.0600000   6.128906e-05  1.496315e-08
    324    327   2   0.50000     0.0600000    0.0600000   6.128906e-05  1.496315e-08
    325    308   2   0.50000     0.0600000   -0.1200000   2.494471e-04  1.671101e-07
    325    326   2   0.50000     0.0600000    0.0600000   6.128906e-05  1.496315e-08
    325    327   2   0.50000     0.0600000    0.0600000   6.128906e-05  1.496315e-08
    306    309   2   0.50000    -0.1200000   -0.1200000   1.015252e-03  1.866303e-06
    306    328   2   0.50000    -0.1200000    0.0600000   2.494471e-04  1.671101e-07
    306    329   2   0.50000    -0.1200000    0.0600000   2.494471e-04  1.671101e-07
    326    309   2   0.50000     0.0600000   -0.1200000   2.494471e-04  1.671101e-07
    326    328   2   0.50000     0.0600000    0.0600000   6.128906e-05  1.496315e-08
    326    329   2   0.50000     0.0600000    0.0600000   6.128906e-05  1.496315e-08
    327    309   2   0.50000     0.0600000   -0.1200000   2.494471e-04  1.671101e-07
    327    328   2   0.50000     0.0600000    0.0600000   6.128906e-05  1.496315e-08
    327    329   2   0.50000     0.0600000    0.0600000   6.128906e-05  1.496315e-08
    307    310   2   0.50000    -0.1200000    0.0800000   1.015252e-03  1.866303e-06
    307    330   2   0.50000    -0.1200000    0.0600000   2.494471e-04  1.671101e-07
    307    331   2   0.50000    -0.1200000    0.0600000   2.494471e-04  1.671101e-07
    328    310   2   0.50000     0.0600000    0.0800000   2.494471e-04  1.671101e-07
    328    330   2   0.50000     0.0600000    0.0600000   6.128906e-05  1.496315e-08
    328    331   2   0.50000     0.0600000    0.0600000   6.128906e-05  1.496315e-08
    329    310   2   0.50000     0.0600000    0.0800000   2.494471e-04  1.671101e-07
    329    330   2   0.50000     0.0600000    0.0600000   6.128906e-05  1.496315e-08
    329    331   2   0.50000     0.0600000    0.0600000   6.128906e-05  1.496315e-08
    308    311   2   0.50000    -0.1200000   -0.5000000   1.304585e-03  1.920112e-06
    308    332   2   0.50000    -0.1200000    0.0600000   2.494471e-04  1.671101e-07
    308    333   2   0.50000    -0.1200000    0.0600000   2.494471e-04  1.671101e-07
    330    311   2   0.50000     0.0600000   -0.5000000   3.205360e-04  1.719281e-07
    330    332   2   0.50000     0.0600000    0.0600000   6.128906e-05  1.496315e-08
    330    333   2   0.50000     0.0600000    0.0600000   6.128906e-05  1.496315e-08
    331    311   2   0.50000     0.0600000   -0.5000000   3.205360e-04  1.719281e-07
    331    332   2   0.50000     0.0600000    0.0600000   6.128906e-05  1.496315e-08
    331    333   2   0.50000     0.0600000    0.0600000   6.128906e-05  1.496315e-08
    309    334   2   0.50000    -0.1200000    0.3000000   1.995577e-06  1.069504e-11
    309    335   2   0.50000    -0.1200000    0.5000000   1.575021e-03  3.561100e-06
    332    334   2   0.50000     0.0600000    0.3000000   4.903125e-07  9.576416e-13
    332    335   2   0.50000     0.0600000    0.5000000   3.869820e-04  3.188634e-07
    333    334   2   0.50000     0.0600000    0.3000000   4.903125e-07  9.576416e-13
    333    335   2   0.50000     0.0600000    0.5000000   3.869820e-04  3.188634e-07
    310    336   2   0.50000     0.0800000   -0.5000000   1.095425e-03  1.218041e-06
    310    337   2   0.50000     0.0800000   -0.1200000   1.015252e-03  1.866303e-06
    334    336   2   0.50000     0.3000000   -0.5000000   2.153164e-06  6.980110e-12
    334    337   2   0.50000     0.3000000   -0.1200000   1.995577e-06  1.069504e-11
    311    338   2   0.50000    -0.5000000   -0.1200000   1.304585e-03  1.920112e-06
    311    349   2   0.50000    -0.5000000    0.0600000   3.205360e-04  1.719281e-07
    311    350   2   0.50000    -0.5000000    0.0600000   3.205360e-04  1.719281e-07
    336    338   2   0.50000    -0.5000000   -0.1200000   1.095425e-03  1.218041e-06
    336    349   2   0.50000    -0.5000000    0.0600000   2.691455e-04  1.090642e-07
    336    350   2   0.50000    -0.5000000    0.0600000   2.691455e-04  1.090642e-07
    335    339   2   0.50000     0.5000000   -0.1200000   1.575021e-03  3.561100e-06
    335    351   2   0.50000     0.5000000    0.0600000   3.869820e-04  3.188634e-07
    335    352   2   0.50000     0.5000000    0.0600000   3.869820e-04  3.188634e-07
    349    339   2   0.50000     0.0600000   -0.1200000   2.494471e-04  1.671101e-07
    349    351   2   0.50000     0.0600000    0.0600000   6.128906e-05  1.496315e-08
    349    352   2   0.50000     0.0600000    0.0600000   6.128906e-05  1.496315e-08
    350    339   2   0.50000     0.0600000   -0.1200000   2.494471e-04  1.671101e-07
    350    351   2   0.50000     0.0600000    0.0600000   6.128906e-05  1.496315e-08
    350    352   2   0.50000     0.0600000    0.0600000   6.128906e-05  1.496315e-08
    337    340   2   0.50000    -0.1200000   -0.1200000   1.015252e-03  1.866303e-06
    337    353   2   0.50000    -0.1200000    0.0600000   2.494471e-04  1.671101e-07
    337    354   2   0.50000    -0.1200000    0.0600000   2.494471e-04  1.671101e-07
    351    340   2   0.50000     0.0600000   -0.1200000   2.494471e-04  1.671101e-07
    351    353   2   0.50000     0.0600000    0.0600000   6.128906e-05  1.496315e-08
    351    354   2   0.50000     0.0600000    0.0600000   6.128906e-05  1.496315e-08
    352    340   2   0.50000     0.0600000   -0.1200000   2.494471e-04  1.671101e-07
    352    353   2   0.50000     0.0600000    0.0600000   6.128906e-05  1.496315e-08
    352    354   2   0.50000     0.0600000    0.0600000   6.128906e-05  1.496315e-08
    338    341   2   0.50000    -0.1200000   -0.1200000   1.015252e-03  1.866303e-06
    338    355   2   0.50000    -0.1200000    0.0600000   2.494471e-04  1.671101e-07
    338    356   2   0.50000    -0.1200000    0.0600000   2.494471e-04  1.671101e-07
    353    341   2   0.50000     0.0600000   -0.1200000   2.494471e-04  1.671101e-07
    353    355   2   0.50000     0.0600000    0.0600000   6.128906e-05  1.496315e-08
    353    356   2   0.50000     0.0600000    0.0600000   6.128906e-05  1.496315e-08
    354    341   2   0.50000     0.0600000   -0.1200000   2.494471e-04  1.671101e-07
    354    355   2   0.50000     0.0600000    0.0600000   6.128906e-05  1.496315e-08
    354    356   2   0.50000     0.0600000    0.0600000   6.128906e-05  1.496315e-08
    339    342   2   0.50000    -0.1200000   -0.1200000   1.015252e-03  1.866303e-06
    339    357   2   0.50000    -0.1200000    0.0600000   2.494471e-04  1.671101e-07
    339    358   2   0.50000    -0.1200000    0.0600000   2.494471e-04  1.671101e-07
    355    342   2   0.50000     0.0600000   -0.1200000   2.494471e-04  1.671101e-07
    355    357   2   0.50000     0.0600000    0.0600000   6.128906e-05  1.496315e-08
    355    358   2   0.50000     0.0600000    0.0600000   6.128906e-05  1.496315e-08
    356    342   2   0.50000     0.0600000   -0.1200000   2.494471e-04  1.671101e-07
    356    357   2   0.50000     0.0600000    0.0600000   6.128906e-05  1.496315e-08
    356    358   2   0.50000     0.0600000    0.0600000   6.128906e-05  1.496315e-08
    340    343   2   0.50000    -0.1200000   -0.1200000   1.015252e-03  1.866303e-06
    340    359   2   0.50000    -0.1200000    0.0600000   2.494471e-04  1.671101e-07
    340    360   2   0.50000    -0.1200000    0.0600000   2.494471e-04  1.671101e-07
    357    343   2   0.50000     0.0600000   -0.1200000   2.494471e-04  1.671101e-07
    357    359   2   0.50000     0.0600000    0.0600000   6.128906e-05  1.496315e-08
    357    360   2   0.50000     0.0600000    0.0600000   6.128906e-05  1.496315e-08
    358    343   2   0.50000     0.0600000   -0.1200000   2.494471e-04  1.671101e-07
    358    359   2   0.50000     0.0600000    0.0600000   6.128906e-05  1.496315e-08
    358    360   2   0.50000     0.0600000    0.0600000   6.128906e-05  1.496315e-08
    341    344   2   0.50000    -0.1200000   -0.1200000   1.015252e-03  1.866303e-06
    341    361   2   0.50000    -0.1200000    0.0600000   2.494471e-04  1.671101e-07
    341    362   2   0.50000    -0.1200000    0.0600000   2.494471e-04  1.671101e-07
    359    344   2   0.50000     0.0600000   -0.1200000   2.494471e-04  1.671101e-07
    359    361   2   0.50000     0.0600000    0.0600000   6.128906e-05  1.496315e-08
    359    362   2   0.50000     0.0600000    0.0600000   6.128906e-05  1.496315e-08
    360    344   2   0.50000     0.0600000   -0.1200000   2.494471e-04  1.671101e-07
    360    361   2   0.50000     0.0600000    0.0600000   6.128906e-05  1.496315e-08
    360    362   2   0.50000     0.0600000    0.0600000   6.128906e-05  1.496315e-08
    342    345   2   0.50000    -0.1200000   -0.1200000   1.015252e-03  1.866303e-06
    342    363   2   0.50000    -0.1200000    0.0600000   2.494471e-04  1.671101e-07
    342    364   2   0.50000    -0.1200000    0.0600000   2.494471e-04  1.671101e-07
    361    345   2   0.50000     0.0600000   -0.1200000   2.494471e-04  1.671101e-07
    361    363   2   0.50000     0.0600000    0.0600000   6.128906e-05  1.496315e-08
    361    364   2   0.50000     0.0600000    0.0600000   6.128906e-05  1.496315e-08
    362    345   2   0.50000     0.0600000   -0.1200000   2.494471e-04  1.671101e-07
    362    363   2   0.50000     0.0600000    0.0600000   6.128906e-05  1.496315e-08
    362    364   2   0.50000     0.0600000    0.0600000   6.128906e-05  1.496315e-08
    343    346   2   0.50000    -0.1200000   -0.1200000   1.015252e-03  1.866303e-06
    343    365   2   0.50000    -0.1200000    0.0600000   2.494471e-04  1.671101e-07
    343    366   2   0.50000    -0.1200000    0.0600000   2.494471e-04  1.671101e-07
    363    346   2   0.50000     0.0600000   -0.1200000   2.494471e-04  1.671101e-07
    363    365   2   0.50000     0.0600000    0.0600000   6.128906e-05  1.496315e-08
    363    366   2   0.50000     0.0600000    0.0600000   6.128906e-05  1.496315e-08
    364    346   2   0.50000     0.0600000   -0.1200000   2.494471e-04  1.671101e-07
    364    365   2   0.50000     0.0600000    0.0600000   6.128906e-05  1.496315e-08
    364    366   2   0.50000     0.0600000    0.0600000   6.128906e-05  1.496315e-08
    344    347   2   0.50000    -0.1200000    0.0800000   1.015252e-03  1.866303e-06
    344    367   2   0.50000    -0.1200000    0.0600000   2.494471e-04  1.671101e-07
    344    368   2   0.50000    -0.1200000    0.0600000   2.494471e-04  1.671101e-07
    365    347   2   0.50000     0.0600000    0.0800000   2.494471e-04  1.671101e-07
    365    367   2   0.50000     0.0600000    0.0600000   6.128906e-05  1.496315e-08
    365    368   2   0.50000     0.0600000    0.0600000   6.128906e-05  1.496315e-08
    366    347   2   0.50000     0.0600000    0.0800000   2.494471e-04  1.671101e-07
    366    367   2   0.50000     0.0600000    0.0600000   6.128906e-05  1.496315e-08
    366    368   2   0.50000     0.0600000    0.0600000   6.128906e-05  1.496315e-08
    345    348   2   0.50000    -0.1200000   -0.5000000   1.304585e-03  1.920112e-06
    345    369   2   0.50000    -0.1200000    0.0600000   2.494471e-04  1.671101e-07
    345    370   2   0.50000    -0.1200000    0.0600000   2.494471e-04  1.671101e-07
    367    348   2   0.50000     0.0600000   -0.5000000   3.205360e-04  1.719281e-07
    367    369   2   0.50000     0.0600000    0.0600000   6.128906e-05  1.496315e-08
    367    370   2   0.50000     0.0600000    0.0600000   6.128906e-05  1.496315e-08
    368    348   2   0.50000     0.0600000   -0.5000000   3.205360e-04  1.719281e-07
    368    369   2   0.50000     0.0600000    0.0600000   6.128906e-05  1.496315e-08
    368    370   2   0.50000     0.0600000    0.0600000   6.128906e-05  1.496315e-08
    346    371   2   0.50000    -0.1200000    0.3000000   1.995577e-06  1.069504e-11
    346    372   2   0.50000    -0.1200000    0.5000000   1.575021e-03  3.561100e-06
    369    371   2   0.50000     0.0600000    0.3000000   4.903125e-07  9.576416e-13
    369    372   2   0.50000     0.0600000    0.5000000   3.869820e-04  3.188634e-07
    370    371   2   0.50000     0.0600000    0.3000000   4.903125e-07  9.576416e-13
    370    372   2   0.50000     0.0600000    0.5000000   3.869820e-04  3.188634e-07
    347    373   2   0.50000     0.0800000   -0.5000000   1.095425e-03  1.218041e-06
    347    374   2   0.50000     0.0800000   -0.1200000   1.015252e-03  1.866303e-06
    371    373   2   0.50000     0.3000000   -0.5000000   2.153164e-06  6.980110e-12
    371    374   2   0.50000     0.3000000   -0.1200000   1.995577e-06  1.069504e-11
    348    375   2   0.50000    -0.5000000   -0.1200000   1.304585e-03  1.920112e-06
    348    386   2   0.50000    -0.5000000    0.0600000   3.205360e-04  1.719281e-07
    348    387   2   0.50000    -0.5000000    0.0600000   3.205360e-04  1.719281e-07
    373    375   2   0.50000    -0.5000000   -0.1200000   1.095425e-03  1.218041e-06
    373    386   2   0.50000    -0.5000000    0.0600000   2.691455e-04  1.090642e-07
    373    387   2   0.50000    -0.5000000    0.0600000   2.691455e-04  1.090642e-07
    372    376   2   0.50000     0.5000000   -0.1200000   1.575021e-03  3.561100e-06
    372    388   2   0.50000     0.5000000    0.0600000   3.869820e-04  3.188634e-07
    372    389   2   0.50000     0.5000000    0.0600000   3.869820e-04  3.188634e-07
    386    376   2   0.50000     0.0600000   -0.1200000   2.494471e-04  1.671101e-07
    386    388   2   0.50000     0.0600000    0.0600000   6.128906e-05  1.496315e-08
    386    389   2   0.50000     0.0600000    0.0600000   6.128906e-05  1.496315e-08
    387    376   2   0.50000     0.0600000   -0.1200000   2.494471e-04  1.671101e-07
    387    388   2   0.50000     0.0600000    0.0600000   6.128906e-05  1.496315e-08
    387    389   2   0.50000     0.0600000    0.0600000   6.128906e-05  1.496315e-08
    374    377   2   0.50000    -0.1200000   -0.1200000   1.015252e-03  1.866303e-06
    374    390   2   0.50000    -0.1200000    0.0600000   2.494471e-04  1.671101e-07
    374    391   2   0.50000    -0.1200000    0.0600000   2.494471e-04  1.671101e-07
    388    377   2   0.50000     0.0600000   -0.1200000   2.494471e-04  1.671101e-07
    388    390   2   0.50000     0.0600000    0.0600000   6.128906e-05  1.496315e-08
    388    391   2   0.50000     0.0600000    0.0600000   6.128906e-05  1.496315e-08
    389    377   2   0.50000     0.0600000   -0.1200000   2.494471e-04  1.671101e-07
    389    390   2   0.50000     0.0600000    0.0600000   6.128906e-05  1.496315e-08
    389    391   2   0.50000     0.0600000    0.0600000   6.128906e-05  1.496315e-08
    375    378   2   0.50000    -0.1200000   -0.1200000   1.015252e-03  1.866303e-06
    375    392   2   0.50000    -0.1200000    0.0600000   2.494471e-04  1.671101e-07
    375    393   2   0.50000    -0.1200000    0.0600000   2.494471e-04  1.671101e-07
    390    378   2   0.50000     0.0600000   -0.1200000   2.494471e-04  1.671101e-07
    390    392   2   0.50000     0.0600000    0.0600000   6.128906e-05  1.496315e-08
    390    393   2   0.50000     0.0600000    0.0600000   6.128906e-05  1.496315e-08
    391    378   2   0.50000     0.0600000   -0.1200000   2.494471e-04  1.671101e-07
    391    392   2   0.50000     0.0600000    0.0600000   6.128906e-05  1.496315e-08
    391    393   2   0.50000     0.0600000    0.0600000   6.128906e-05  1.496315e-08
    376    379   2   0.50000    -0.1200000   -0.1200000   1.015252e-03  1.866303e-06
    376    394   2   0.50000    -0.1200000    0.0600000   2.494471e-04  1.671101e-07
    376    395   2   0.50000    -0.1200000    0.0600000   2.494471e-04  1.671101e-07
    392    379   2   0.50000     0.0600000   -0.1200000   2.494471e-04  1.671101e-07
    392    394   2   0.50000     0.0600000    0.0600000   6.128906e-05  1.496315e-08
    392    395   2   0.50000     0.0600000    0.0600000   6.128906e-05  1.496315e-08
    393    379   2   0.50000     0.0600000   -0.1200000   2.494471e-04  1.671101e-07
    393    394   2   0.50000     0.0600000    0.0600000   6.128906e-05  1.496315e-08
    393    395   2   0.50000     0.0600000    0.0600000   6.128906e-05  1.496315e-08
    377    380   2   0.50000    -0.1200000   -0.1200000   1.015252e-03  1.866303e-06
    377    396   2   0.50000    -0.1200000    0.0600000   2.494471e-04  1.671101e-07
    377    397   2   0.50000    -0.1200000    0.0600000   2.494471e-04  1.671101e-07
    394    380   2   0.50000     0.0600000   -0.1200000   2.494471e-04  1.671101e-07
    394    396   2   0.50000     0.0600000    0.0600000   6.128906e-05  1.496315e-08
    394    397   2   0.50000     0.0600000    0.0600000   6.128906e-05  1.496315e-08
    395    380   2   0.50000     0.0600000   -0.1200000   2.494471e-04  1.671101e-07
    395    396   2   0.50000     0.0600000    0.0600000   6.128906e-05  1.496315e-08
    395    397   2   0.50000     0.0600000    0.0600000   6.128906e-05  1.496315e-08
    378    381   2   0.50000    -0.1200000   -0.1200000   1.015252e-03  1.866303e-06
    378    398   2   0.50000    -0.1200000    0.0600000   2.494471e-04  1.671101e-07
    378    399   2   0.50000    -0.1200000    0.0600000   2.494471e-04  1.671101e-07
    396    381   2   0.50000     0.0600000   -0.1200000   2.494471e-04  1.671101e-07
    396    398   2   0.50000     0.0600000    0.0600000   6.128906e-05  1.496315e-08
    396    399   2   0.50000     0.0600000    0.0600000   6.128906e-05  1.496315e-08
    397    381   2   0.50000     0.0600000   -0.1200000   2.494471e-04  1.671101e-07
    397    398   2   0.50000     0.0600000    0.0600000   6.128906e-05  1.496315e-08
    397    399   2   0.50000     0.0600000    0.0600000   6.128906e-05  1.496315e-08
    379    382   2   0.50000    -0.1200000   -0.1200000   1.015252e-03  1.866303e-06
    379    400   2   0.50000    -0.1200000    0.0600000   2.494471e-04  1.671101e-07
    379    401   2   0.50000    -0.1200000    0.0600000   2.494471e-04  1.671101e-07
    398    382   2   0.50000     0.0600000   -0.1200000   2.494471e-04  1.671101e-07
    398    400   2   0.50000     0.0600000    0.0600000   6.128906e-05  1.496315e-08
    398    401   2   0.50000     0.0600000    0.0600000   6.128906e-05  1.496315e-08
    399    382   2   0.50000     0.0600000   -0.1200000   2.494471e-04  1.671101e-07
    399    400   2   0.50000     0.0600000    0.0600000   6.128906e-05  1.496315e-08
    399    401   2   0.50000     0.0600000    0.0600000   6.128906e-05  1.496315e-08
    380    383   2   0.50000    -0.1200000   -0.1200000   1.015252e-03  1.866303e-06
    380    402   2   0.50000    -0.1200000    0.0600000   2.494471e-04  1.671101e-07
    380    403   2   0.50000    -0.1200000    0.0600000   2.494471e-04  1.671101e-07
    400    383   2   0.50000     0.0600000   -0.1200000   2.494471e-04  1.671101e-07
    400    402   2   0.50000     0.0600000    0.0600000   6.128906e-05  1.496315e-08
    400    403   2   0.50000     0.0600000    0.0600000   6.128906e-05  1.496315e-08
    401    383   2   0.50000     0.0600000   -0.1200000   2.494471e-04  1.671101e-07
    401    402   2   0.50000     0.0600000    0.0600000   6.128906e-05  1.496315e-08
    401    403   2   0.50000     0.0600000    0.0600000   6.128906e-05  1.496315e-08
    381    384   2   0.50000    -0.1200000    0.0800000   1.015252e-03  1.866303e-06
    381    404   2   0.50000    -0.1200000    0.0600000   2.494471e-04  1.671101e-07
    381    405   2   0.50000    -0.1200000    0.0600000   2.494471e-04  1.671101e-07
    402    384   2   0.50000     0.0600000    0.0800000   2.494471e-04  1.671101e-07
    402    404   2   0.50000     0.0600000    0.0600000   6.128906e-05  1.496315e-08
    402    405   2   0.50000     0.0600000    0.0600000   6.128906e-05  1.496315e-08
    403    384   2   0.50000     0.0600000    0.0800000   2.494471e-04  1.671101e-07
    403    404   2   0.50000     0.0600000    0.0600000   6.128906e-05  1.496315e-08
    403    405   2   0.50000     0.0600000    0.0600000   6.128906e-05  1.496315e-08
    382    385   2   0.50000    -0.1200000   -0.5000000   1.304585e-03  1.920112e-06
    382    406   2   0.50000    -0.1200000    0.0600000   2.494471e-04  1.671101e-07
    382    407   2   0.50000    -0.1200000    0.0600000   2.494471e-04  1.671101e-07
    404    385   2   0.50000     0.0600000   -0.5000000   3.205360e-04  1.719281e-07
    404    406   2   0.50000     0.0600000    0.0600000   6.128906e-05  1.496315e-08
    404    407   2   0.50000     0.0600000    0.0600000   6.128906e-05  1.496315e-08
    405    385   2   0.50000     0.0600000   -0.5000000   3.205360e-04  1.719281e-07
    405    406   2   0.50000     0.0600000    0.0600000   6.128906e-05  1.496315e-08
    405    407   2   0.50000     0.0600000    0.0600000   6.128906e-05  1.496315e-08
    383    408   2   0.50000    -0.1200000    0.3000000   1.995577e-06  1.069504e-11
    383    409   2   0.50000    -0.1200000    0.5000000   1.575021e-03  3.561100e-06
    406    408   2   0.50000     0.0600000    0.3000000   4.903125e-07  9.576416e-13
    406    409   2   0.50000     0.0600000    0.5000000   3.869820e-04  3.188634e-07
    407    408   2   0.50000     0.0600000    0.3000000   4.903125e-07  9.576416e-13
    407    409   2   0.50000     0.0600000    0.5000000   3.869820e-04  3.188634e-07
    384    410   2   0.50000     0.0800000   -0.5000000   1.095425e-03  1.218041e-06
    384    411   2   0.50000     0.0800000   -0.1200000   1.015252e-03  1.866303e-06
    408    410   2   0.50000     0.3000000   -0.5000000   2.153164e-06  6.980110e-12
    408    411   2   0.50000     0.3000000   -0.1200000   1.995577e-06  1.069504e-11
    385    412   2   0.50000    -0.5000000   -0.1200000   1.304585e-03  1.920112e-06
    385    423   2   0.50000    -0.5000000    0.0600000   3.205360e-04  1.719281e-07
    385    424   2   0.50000    -0.5000000    0.0600000   3.205360e-04  1.719281e-07
    410    412   2   0.50000    -0.5000000   -0.1200000   1.095425e-03  1.218041e-06
    410    423   2   0.50000    -0.5000000    0.0600000   2.691455e-04  1.090642e-07
    410    424   2   0.50000    -0.5000000    0.0600000   2.691455e-04  1.090642e-07
    409    413   2   0.50000     0.5000000   -0.1200000   1.575021e-03  3.561100e-06
    409    425   2   0.50000     0.5000000    0.0600000   3.869820e-04  3.188634e-07
    409    426   2   0.50000     0.5000000    0.0600000   3.869820e-04  3.188634e-07
    423    413   2   0.50000     0.0600000   -0.1200000   2.494471e-04  1.671101e-07
    423    425   2   0.50000     0.0600000    0.0600000   6.128906e-05  1.496315e-08
    423    426   2   0.50000     0.0600000    0.0600000   6.128906e-05  1.496315e-08
    424    413   2   0.50000     0.0600000   -0.1200000   2.494471e-04  1.671101e-07
    424    425   2   0.50000     0.0600000    0.0600000   6.128906e-05  1.496315e-08
    424    426   2   0.50000     0.0600000    0.0600000   6.128906e-05  1.496315e-08
    411    414   2   0.50000    -0.1200000   -0.1200000   1.015252e-03  1.866303e-06
    411    427   2   0.50000    -0.1200000    0.0600000   2.494471e-04  1.671101e-07
    411    428   2   0.50000    -0.1200000    0.0600000   2.494471e-04  1.671101e-07
    425    414   2   0.50000     0.0600000   -0.1200000   2.494471e-04  1.671101e-07
    425    427   2   0.50000     0.0600000    0.0600000   6.128906e-05  1.496315e-08
    425    428   2   0.50000     0.0600000    0.0600000   6.128906e-05  1.496315e-08
    426    414   2   0.50000     0.0600000   -0.1200000   2.494471e-04  1.671101e-07
    426    427   2   0.50000     0.0600000    0.0600000   6.128906e-05  1.496315e-08
    426    428   2   0.50000     0.0600000    0.0600000   6.128906e-05  1.496315e-08
    412    415   2   0.50000    -0.1200000   -0.1200000   1.015252e-03  1.866303e-06
    412    429   2   0.50000    -0.1200000    0.0600000   2.494471e-04  1.671101e-07
    412    430   2   0.50000    -0.1200000    0.0600000   2.494471e-04  1.671101e-07
    427    415   2   0.50000     0.0600000   -0.1200000   2.494471e-04  1.671101e-07
    427    429   2   0.50000     0.0600000    0.0600000   6.128906e-05  1.496315e-08
    427    430   2   0.50000     0.0600000    0.0600000   6.128906e-05  1.496315e-08
    428    415   2   0.50000     0.0600000   -0.1200000   2.494471e-04  1.671101e-07
    428    429   2   0.50000     0.0600000    0.0600000   6.128906e-05  1.496315e-08
    428    430   2   0.50000     0.0600000    0.0600000   6.128906e-05  1.496315e-08
    413    416   2   0.50000    -0.1200000   -0.1200000   1.015252e-03  1.866303e-06
    413    431   2   0.50000    -0.1200000    0.0600000   2.494471e-04  1.671101e-07
    413    432   2   0.50000    -0.1200000    0.0600000   2.494471e-04  1.671101e-07
    429    416   2   0.50000     0.0600000   -0.1200000   2.494471e-04  1.671101e-07
    429    431   2   0.50000     0.0600000    0.0600000   6.128906e-05  1.496315e-08
    429    432   2   0.50000     0.0600000    0.0600000   6.128906e-05  1.496315e-08
    430    416   2   0.50000     0.0600000   -0.1200000   2.494471e-04  1.671101e-07
    430    431   2   0.50000     0.0600000    0.0600000   6.128906e-05  1.496315e-08
    430    432   2   0.50000     0.0600000    0.0600000   6.128906e-05  1.496315e-08
    414    417   2   0.50000    -0.1200000   -0.1200000   1.015252e-03  1.866303e-06
    414    433   2   0.50000    -0.1200000    0.0600000   2.494471e-04  1.671101e-07
    414    434   2   0.50000    -0.1200000    0.0600000   2.494471e-04  1.671101e-07
    431    417   2   0.50000     0.0600000   -0.1200000   2.494471e-04  1.671101e-07
    431    433   2   0.50000     0.0600000    0.0600000   6.128906e-05  1.496315e-08
    431    434   2   0.50000     0.0600000    0.0600000   6.128906e-05  1.496315e-08
    432    417   2   0.50000     0.0600000   -0.1200000   2.494471e-04  1.671101e-07
    432    433   2   0.50000     0.0600000    0.0600000   6.128906e-05  1.496315e-08
    432    434   2   0.50000     0.0600000    0.0600000   6.128906e-05  1.496315e-08
    415    418   2   0.50000    -0.1200000   -0.1200000   1.015252e-03  1.866303e-06
    415    435   2   0.50000    -0.1200000    0.0600000   2.494471e-04  1.671101e-07
    415    436   2   0.50000    -0.1200000    0.0600000   2.494471e-04  1.671101e-07
    433    418   2   0.50000     0.0600000   -0.1200000   2.494471e-04  1.671101e-07
    433    435   2   0.50000     0.0600000    0.0600000   6.128906e-05  1.496315e-08
    433    436   2   0.50000     0.0600000    0.0600000   6.128906e-05  1.496315e-08
    434    418   2   0.50000     0.0600000   -0.1200000   2.494471e-04  1.671101e-07
    434    435   2   0.50000     0.0600000    0.0600000   6.128906e-05  1.496315e-08
    434    436   2   0.50000     0.0600000    0.0600000   6.128906e-05  1.496315e-08
    416    419   2   0.50000    -0.1200000   -0.1200000   1.015252e-03  1.866303e-06
    416    437   2   0.50000    -0.1200000    0.0600000   2.494471e-04  1.671101e-07
    416    438   2   0.50000    -0.1200000    0.0600000   2.494471e-04  1.671101e-07
    435    419   2   0.50000     0.0600000   -0.1200000   2.494471e-04  1.671101e-07
    435    437   2   0.50000     0.0600000    0.0600000   6.128906e-05  1.496315e-08
    435    438   2   0.50000     0.0600000    0.0600000   6.128906e-05  1.496315e-08
    436    419   2   0.50000     0.0600000   -0.1200000   2.494471e-04  1.671101e-07
    436    437   2   0.50000     0.0600000    0.0600000   6.128906e-05  1.496315e-08
    436    438   2   0.50000     0.0600000    0.0600000   6.128906e-05  1.496315e-08
    417    420   2   0.50000    -0.1200000   -0.1200000   1.015252e-03  1.866303e-06
    417    439   2   0.50000    -0.1200000    0.0600000   2.494471e-04  1.671101e-07
    417    440   2   0.50000    -0.1200000    0.0600000   2.494471e-04  1.671101e-07
    437    420   2   0.50000     0.0600000   -0.1200000   2.494471e-04  1.671101e-07
    437    439   2   0.50000     0.0600000    0.0600000   6.128906e-05  1.496315e-08
    437    440   2   0.50000     0.0600000    0.0600000   6.128906e-05  1.496315e-08
    438    420   2   0.50000     0.0600000   -0.1200000   2.494471e-04  1.671101e-07
    438    439   2   0.50000     0.0600000    0.0600000   6.128906e-05  1.496315e-08
    438    440   2   0.50000     0.0600000    0.0600000   6.128906e-05  1.496315e-08
    418    421   2   0.50000    -0.1200000    0.0800000   1.015252e-03  1.866303e-06
    418    441   2   0.50000    -0.1200000    0.0600000   2.494471e-04  1.671101e-07
    418    442   2   0.50000    -0.1200000    0.0600000   2.494471e-04  1.671101e-07
    439    421   2   0.50000     0.0600000    0.0800000   2.494471e-04  1.671101e-07
    439    441   2   0.50000     0.0600000    0.0600000   6.128906e-05  1.496315e-08
    439    442   2   0.50000     0.0600000    0.0600000   6.128906e-05  1.496315e-08
    440    421   2   0.50000     0.0600000    0.0800000   2.494471e-04  1.671101e-07
    440    441   2   0.50000     0.0600000    0.0600000   6.128906e-05  1.496315e-08
    440    442   2   0.50000     0.0600000    0.0600000   6.128906e-05  1.496315e-08
    419    422   2   0.50000    -0.1200000   -0.5000000   1.304585e-03  1.920112e-06
    419    443   2   0.50000    -0.1200000    0.0600000   2.494471e-04  1.671101e-07
    419    444   2   0.50000    -0.1200000    0.0600000   2.494471e-04  1.671101e-07
    441    422   2   0.50000     0.0600000   -0.5000000   3.205360e-04  1.719281e-07
    441    443   2   0.50000     0.0600000    0.0600000   6.128906e-05  1.496315e-08
    441    444   2   0.50000     0.0600000    0.0600000   6.128906e-05  1.496315e-08
    442    422   2   0.50000     0.0600000   -0.5000000   3.205360e-04  1.719281e-07
    442    443   2   0.50000     0.0600000    0.0600000   6.128906e-05  1.496315e-08
    442    444   2   0.50000     0.0600000    0.0600000   6.128906e-05  1.496315e-08
    420    445   2   0.50000    -0.1200000    0.3000000   1.995577e-06  1.069504e-11
    420    446   2   0.50000    -0.1200000    0.5000000   1.575021e-03  3.561100e-06
    443    445   2   0.50000     0.0600000    0.3000000   4.903125e-07  9.576416e-13
    443    446   2   0.50000     0.0600000    0.5000000   3.869820e-04  3.188634e-07
    444    445   2   0.50000     0.0600000    0.3000000   4.903125e-07  9.576416e-13
    444    446   2   0.50000     0.0600000    0.5000000   3.869820e-04  3.188634e-07
    421    447   2   0.50000     0.0800000   -0.5000000   1.095425e-03  1.218041e-06
    421    448   2   0.50000     0.0800000   -0.1200000   1.015252e-03  1.866303e-06
    445    447   2   0.50000     0.3000000   -0.5000000   2.153164e-06  6.980110e-12
    445    448   2   0.50000     0.3000000   -0.1200000   1.995577e-06  1.069504e-11
    422    449   2   0.50000    -0.5000000   -0.1200000   1.304585e-03  1.920112e-06
    422    460   2   0.50000    -0.5000000    0.0600000   3.205360e-04  1.719281e-07
    422    461   2   0.50000    -0.5000000    0.0600000   3.205360e-04  1.719281e-07
    447    449   2   0.50000    -0.5000000   -0.1200000   1.095425e-03  1.218041e-06
    447    460   2   0.50000    -0.5000000    0.0600000   2.691455e-04  1.090642e-07
    447    461   2   0.50000    -0.5000000    0.0600000   2.691455e-04  1.090642e-07
    446    450   2   0.50000     0.5000000   -0.1200000   1.575021e-03  3.561100e-06
    446    462   2   0.50000     0.5000000    0.0600000   3.869820e-04  3.188634e-07
    446    463   2   0.50000     0.5000000    0.0600000   3.869820e-04  3.188634e-07
    460    450   2   0.50000     0.0600000   -0.1200000   2.494471e-04  1.671101e-07
    460    462   2   0.50000     0.0600000    0.0600000   6.128906e-05  1.496315e-08
    460    463   2   0.50000     0.0600000    0.0600000   6.128906e-05  1.496315e-08
    461    450   2   0.50000     0.0600000   -0.1200000   2.494471e-04  1.671101e-07
    461    462   2   0.50000     0.0600000    0.0600000   6.128906e-05  1.496315e-08
    461    463   2   0.50000     0.0600000    0.0600000   6.128906e-05  1.496315e-08
    448    451   2   0.50000    -0.1200000   -0.1200000   1.015252e-03  1.866303e-06
    448    464   2   0.50000    -0.1200000    0.0600000   2.494471e-04  1.671101e-07
    448    465   2   0.50000    -0.1200000    0.0600000   2.494471e-04  1.671101e-07
    462    451   2   0.50000     0.0600000   -0.1200000   2.494471e-04  1.671101e-07
    462    464   2   0.50000     0.0600000    0.0600000   6.128906e-05  1.496315e-08
    462    465   2   0.50000     0.0600000    0.0600000   6.128906e-05  1.496315e-08
    463    451   2   0.50000     0.0600000   -0.1200000   2.494471e-04  1.671101e-07
    463    464   2   0.50000     0.0600000    0.0600000   6.128906e-05  1.496315e-08
    463    465   2   0.50000     0.0600000    0.0600000   6.128906e-05  1.496315e-08
    449    452   2   0.50000    -0.1200000   -0.1200000   1.015252e-03  1.866303e-06
    449    466   2   0.50000    -0.1200000    0.0600000   2.494471e-04  1.671101e-07
    449    467   2   0.50000    -0.1200000    0.0600000   2.494471e-04  1.671101e-07
    464    452   2   0.50000     0.0600000   -0.1200000   2.494471e-04  1.671101e-07
    464    466   2   0.50000     0.0600000    0.0600000   6.128906e-05  1.496315e-08
    464    467   2   0.50000     0.0600000    0.0600000   6.128906e-05  1.496315e-08
    465    452   2   0.50000     0.0600000   -0.1200000   2.494471e-04  1.671101e-07
    465    466   2   0.50000     0.0600000    0.0600000   6.128906e-05  1.496315e-08
    465    467   2   0.50000     0.0600000    0.0600000   6.128906e-05  1.496315e-08
    450    453   2   0.50000    -0.1200000   -0.1200000   1.015252e-03  1.866303e-06
    450    468   2   0.50000    -0.1200000    0.0600000   2.494471e-04  1.671101e-07
    450    469   2   0.50000    -0.1200000    0.0600000   2.494471e-04  1.671101e-07
    466    453   2   0.50000     0.0600000   -0.1200000   2.494471e-04  1.671101e-07
    466    468   2   0.50000     0.0600000    0.0600000   6.128906e-05  1.496315e-08
    466    469   2   0.50000     0.0600000    0.0600000   6.128906e-05  1.496315e-08
    467    453   2   0.50000     0.0600000   -0.1200000   2.494471e-04  1.671101e-07
    467    468   2   0.50000     0.0600000    0.0600000   6.128906e-05  1.496315e-08
    467    469   2   0.50000     0.0600000    0.0600000   6.128906e-05  1.496315e-08
    451    454   2   0.50000    -0.1200000   -0.1200000   1.015252e-03  1.866303e-06
    451    470   2   0.50000    -0.1200000    0.0600000   2.494471e-04  1.671101e-07
    451    471   2   0.50000    -0.1200000    0.0600000   2.494471e-04  1.671101e-07
    468    454   2   0.50000     0.0600000   -0.1200000   2.494471e-04  1.671101e-07
    468    470   2   0.50000     0.0600000    0.0600000   6.128906e-05  1.496315e-08
    468    471   2   0.50000     0.0600000    0.0600000   6.128906e-05  1.496315e-08
    469    454   2   0.50000     0.0600000   -0.1200000   2.494471e-04  1.671101e-07
    469    470   2   0.50000     0.0600000    0.0600000   6.128906e-05  1.496315e-08
    469    471   2   0.50000     0.0600000    0.0600000   6.128906e-05  1.496315e-08
    452    455   2   0.50000    -0.1200000   -0.1200000   1.015252e-03  1.866303e-06
    452    472   2   0.50000    -0.1200000    0.0600000   2.494471e-04  1.671101e-07
    452    473   2   0.50000    -0.1200000    0.0600000   2.494471e-04  1.671101e-07
    470    455   2   0.50000     0.0600000   -0.1200000   2.494471e-04  1.671101e-07
    470    472   2   0.50000     0.0600000    0.0600000   6.128906e-05  1.496315e-08
    470    473   2   0.50000     0.0600000    0.0600000   6.128906e-05  1.496315e-08
    471    455   2   0.50000     0.0600000   -0.1200000   2.494471e-04  1.671101e-07
    471    472   2   0.50000     0.0600000    0.0600000   6.128906e-05  1.496315e-08
    471    473   2   0.50000     0.0600000    0.0600000   6.128906e-05  1.496315e-08
    453    456   2   0.50000    -0.1200000   -0.1200000   1.015252e-03  1.866303e-06
    453    474   2   0.50000    -0.1200000    0.0600000   2.494471e-04  1.671101e-07
    453    475   2   0.50000    -0.1200000    0.0600000   2.494471e-04  1.671101e-07
    472    456   2   0.50000     0.0600000   -0.1200000   2.494471e-04  1.671101e-07
    472    474   2   0.50000     0.0600000    0.0600000   6.128906e-05  1.496315e-08
    472    475   2   0.50000     0.0600000    0.0600000   6.128906e-05  1.496315e-08
    473    456   2   0.50000     0.0600000   -0.1200000   2.494471e-04  1.671101e-07
    473    474   2   0.50000     0.0600000    0.0600000   6.128906e-05  1.496315e-08
    473    475   2   0.50000     0.0600000    0.0600000   6.128906e-05  1.496315e-08
    454    457   2   0.50000    -0.1200000   -0.1200000   1.015252e-03  1.866303e-06
    454    476   2   0.50000    -0.1200000    0.0600000   2.494471e-04  1.671101e-07
    454    477   2   0.50000    -0.1200000    0.0600000   2.494471e-04  1.671101e-07
    474    457   2   0.50000     0.0600000   -0.1200000   2.494471e-04  1.671101e-07
    474    476   2   0.50000     0.0600000    0.0600000   6.128906e-05  1.496315e-08
    474    477   2   0.50000     0.0600000    0.0600000   6.128906e-05  1.496315e-08
    475    457   2   0.50000     0.0600000   -0.1200000   2.494471e-04  1.671101e-07
    475    476   2   0.50000     0.0600000    0.0600000   6.128906e-05  1.496315e-08
    475    477   2   0.50000     0.0600000    0.0600000   6.128906e-05  1.496315e-08
    455    458   2   0.50000    -0.1200000    0.0800000   1.015252e-03  1.866303e-06
    455    478   2   0.50000    -0.1200000    0.0600000   2.494471e-04  1.671101e-07
    455    479   2   0.50000    -0.1200000    0.0600000   2.494471e-04  1.671101e-07
    476    458   2   0.50000     0.0600000    0.0800000   2.494471e-04  1.671101e-07
    476    478   2   0.50000     0.0600000    0.0600000   6.128906e-05  1.496315e-08
    476    479   2   0.50000     0.0600000    0.0600000   6.128906e-05  1.496315e-08
    477    458   2   0.50000     0.0600000    0.0800000   2.494471e-04  1.671101e-07
    477    478   2   0.50000     0.0600000    0.0600000   6.128906e-05  1.496315e-08
    477    479   2   0.50000     0.0600000    0.0600000   6.128906e-05  1.496315e-08
    456    459   2   0.50000    -0.1200000   -0.5000000   1.304585e-03  1.920112e-06
    456    480   2   0.50000    -0.1200000    0.0600000   2.494471e-04  1.671101e-07
    456    481   2   0.50000    -0.1200000    0.0600000   2.494471e-04  1.671101e-07
    478    459   2   0.50000     0.0600000   -0.5000000   3.205360e-04  1.719281e-07
    478    480   2   0.50000     0.0600000    0.0600000   6.128906e-05  1.496315e-08
    478    481   2   0.50000     0.0600000    0.0600000   6.128906e-05  1.496315e-08
    479    459   2   0.50000     0.0600000   -0.5000000   3.205360e-04  1.719281e-07
    479    480   2   0.50000     0.0600000    0.0600000   6.128906e-05  1.496315e-08
    479    481   2   0.50000     0.0600000    0.0600000   6.128906e-05  1.496315e-08
    457    482   2   0.50000    -0.1200000    0.3000000   1.995577e-06  1.069504e-11
    457    483   2   0.50000    -0.1200000    0.5000000   1.575021e-03  3.561100e-06
    480    482   2   0.50000     0.0600000    0.3000000   4.903125e-07  9.576416e-13
    480    483   2   0.50000     0.0600000    0.5000000   3.869820e-04  3.188634e-07
    481    482   2   0.50000     0.0600000    0.3000000   4.903125e-07  9.576416e-13
    481    483   2   0.50000     0.0600000    0.5000000   3.869820e-04  3.188634e-07
    458    484   2   0.50000     0.0800000   -0.5000000   1.095425e-03  1.218041e-06
    458    485   2   0.50000     0.0800000   -0.1200000   1.015252e-03  1.866303e-06
    482    484   2   0.50000     0.3000000   -0.5000000   2.153164e-06  6.980110e-12
    482    485   2   0.50000     0.3000000   -0.1200000   1.995577e-06  1.069504e-11
    459    486   2   0.50000    -0.5000000   -0.1200000   1.304585e-03  1.920112e-06
    459    497   2   0.50000    -0.5000000    0.0600000   3.205360e-04  1.719281e-07
    459    498   2   0.50000    -0.5000000    0.0600000   3.205360e-04  1.719281e-07
    484    486   2   0.50000    -0.5000000   -0.1200000   1.095425e-03  1.218041e-06
    484    497   2   0.50000    -0.5000000    0.0600000   2.691455e-04  1.090642e-07
    484    498   2   0.50000    -0.5000000    0.0600000   2.691455e-04  1.090642e-07
    483    487   2   0.50000     0.5000000   -0.1200000   1.575021e-03  3.561100e-06
    483    499   2   0.50000     0.5000000    0.0600000   3.869820e-04  3.188634e-07
    483    500   2   0.50000     0.5000000    0.0600000   3.869820e-04  3.188634e-07
    497    487   2   0.50000     0.0600000   -0.1200000   2.494471e-04  1.671101e-07
    497    499   2   0.50000     0.0600000    0.0600000   6.128906e-05  1.496315e-08
    497    500   2   0.50000     0.0600000    0.0600000   6.128906e-05  1.496315e-08
    498    487   2   0.50000     0.0600000   -0.1200000   2.494471e-04  1.671101e-07
    498    499   2   0.50000     0.0600000    0.0600000   6.128906e-05  1.496315e-08
    498    500   2   0.50000     0.0600000    0.0600000   6.128906e-05  1.496315e-08
    485    488   2   0.50000    -0.1200000   -0.1200000   1.015252e-03  1.866303e-06
    485    501   2   0.50000    -0.1200000    0.0600000   2.494471e-04  1.671101e-07
    485    502   2   0.50000    -0.1200000    0.0600000   2.494471e-04  1.671101e-07
    499    488   2   0.50000     0.0600000   -0.1200000   2.494471e-04  1.671101e-07
    499    501   2   0.50000     0.0600000    0.0600000   6.128906e-05  1.496315e-08
    499    502   2   0.50000     0.0600000    0.0600000   6.128906e-05  1.496315e-08
    500    488   2   0.50000     0.0600000   -0.1200000   2.494471e-04  1.671101e-07
    500    501   2   0.50000     0.0600000    0.0600000   6.128906e-05  1.496315e-08
    500    502   2   0.50000     0.0600000    0.0600000   6.128906e-05  1.496315e-08
    486    489   2   0.50000    -0.1200000   -0.1200000   1.015252e-03  1.866303e-06
    486    503   2   0.50000    -0.1200000    0.0600000   2.494471e-04  1.671101e-07
    486    504   2   0.50000    -0.1200000    0.0600000   2.494471e-04  1.671101e-07
    501    489   2   0.50000     0.0600000   -0.1200000   2.494471e-04  1.671101e-07
    501    503   2   0.50000     0.0600000    0.0600000   6.128906e-05  1.496315e-08
    501    504   2   0.50000     0.0600000    0.0600000   6.128906e-05  1.496315e-08
    502    489   2   0.50000     0.0600000   -0.1200000   2.494471e-04  1.671101e-07
    502    503   2   0.50000     0.0600000    0.0600000   6.128906e-05  1.496315e-08
    502    504   2   0.50000     0.0600000    0.0600000   6.128906e-05  1.496315e-08
    487    490   2   0.50000    -0.1200000   -0.1200000   1.015252e-03  1.866303e-06
    487    505   2   0.50000    -0.1200000    0.0600000   2.494471e-04  1.671101e-07
    487    506   2   0.50000    -0.1200000    0.0600000   2.494471e-04  1.671101e-07
    503    490   2   0.50000     0.0600000   -0.1200000   2.494471e-04  1.671101e-07
    503    505   2   0.50000     0.0600000    0.0600000   6.128906e-05  1.496315e-08
    503    506   2   0.50000     0.0600000    0.0600000   6.128906e-05  1.496315e-08
    504    490   2   0.50000     0.0600000   -0.1200000   2.494471e-04  1.671101e-07
    504    505   2   0.50000     0.0600000    0.0600000   6.128906e-05  1.496315e-08
    504    506   2   0.50000     0.0600000    0.0600000   6.128906e-05  1.496315e-08
    488    491   2   0.50000    -0.1200000   -0.1200000   1.015252e-03  1.866303e-06
    488    507   2   0.50000    -0.1200000    0.0600000   2.494471e-04  1.671101e-07
    488    508   2   0.50000    -0.1200000    0.0600000   2.494471e-04  1.671101e-07
    505    491   2   0.50000     0.0600000   -0.1200000   2.494471e-04  1.671101e-07
    505    507   2   0.50000     0.0600000    0.0600000   6.128906e-05  1.496315e-08
    505    508   2   0.50000     0.0600000    0.0600000   6.128906e-05  1.496315e-08
    506    491   2   0.50000     0.0600000   -0.1200000   2.494471e-04  1.671101e-07
    506    507   2   0.50000     0.0600000    0.0600000   6.128906e-05  1.496315e-08
    506    508   2   0.50000     0.0600000    0.0600000   6.128906e-05  1.496315e-08
    489    492   2   0.50000    -0.1200000   -0.1200000   1.015252e-03  1.866303e-06
    489    509   2   0.50000    -0.1200000    0.0600000   2.494471e-04  1.671101e-07
    489    510   2   0.50000    -0.1200000    0.0600000   2.494471e-04  1.671101e-07
    507    492   2   0.50000     0.0600000   -0.1200000   2.494471e-04  1.671101e-07
    507    509   2   0.50000     0.0600000    0.0600000   6.128906e-05  1.496315e-08
    507    510   2   0.50000     0.0600000    0.0600000   6.128906e-05  1.496315e-08
    508    492   2   0.50000     0.0600000   -0.1200000   2.494471e-04  1.671101e-07
    508    509   2   0.50000     0.0600000    0.0600000   6.128906e-05  1.496315e-08
    508    510   2   0.50000     0.0600000    0.0600000   6.128906e-05  1.496315e-08
    490    493   2   0.50000    -0.1200000   -0.1200000   1.015252e-03  1.866303e-06
    490    511   2   0.50000    -0.1200000    0.0600000   2.494471e-04  1.671101e-07
    490    512   2   0.50000    -0.1200000    0.0600000   2.494471e-04  1.671101e-07
    509    493   2   0.50000     0.0600000   -0.1200000   2.494471e-04  1.671101e-07
    509    511   2   0.50000     0.0600000    0.0600000   6.128906e-05  1.496315e-08
    509    512   2   0.50000     0.0600000    0.0600000   6.128906e-05  1.496315e-08
    510    493   2   0.50000     0.0600000   -0.1200000   2.494471e-04  1.671101e-07
    510    511   2   0.50000     0.0600000    0.0600000   6.128906e-05  1.496315e-08
    510    512   2   0.50000     0.0600000    0.0600000   6.128906e-05  1.496315e-08
    491    494   2   0.50000    -0.1200000   -0.1200000   1.015252e-03  1.866303e-06
    491    513   2   0.50000    -0.1200000    0.0600000   2.494471e-04  1.671101e-07
    491    514   2   0.50000    -0.1200000    0.0600000   2.494471e-04  1.671101e-07
    511    494   2   0.50000     0.0600000   -0.1200000   2.494471e-04  1.671101e-07
    511    513   2   0.50000     0.0600000    0.0600000   6.128906e-05  1.496315e-08
    511    514   2   0.50000     0.0600000    0.0600000   6.128906e-05  1.496315e-08
    512    494   2   0.50000     0.0600000   -0.1200000   2.494471e-04  1.671101e-07
    512    513   2   0.50000     0.0600000    0.0600000   6.128906e-05  1.496315e-08
    512    514   2   0.50000     0.0600000    0.0600000   6.128906e-05  1.496315e-08
    492    495   2   0.50000    -0.1200000    0.0800000   1.015252e-03  1.866303e-06
    492    515   2   0.50000    -0.1200000    0.0600000   2.494471e-04  1.671101e-07
    492    516   2   0.50000    -0.1200000    0.0600000   2.494471e-04  1.671101e-07
    513    495   2   0.50000     0.0600000    0.0800000   2.494471e-04  1.671101e-07
    513    515   2   0.50000     0.0600000    0.0600000   6.128906e-05  1.496315e-08
    513    516   2   0.50000     0.0600000    0.0600000   6.128906e-05  1.496315e-08
    514    495   2   0.50000     0.0600000    0.0800000   2.494471e-04  1.671101e-07
    514    515   2   0.50000     0.0600000    0.0600000   6.128906e-05  1.496315e-08
    514    516   2   0.50000     0.0600000    0.0600000   6.128906e-05  1.496315e-08
    493    496   2   0.50000    -0.1200000   -0.5000000   1.304585e-03  1.920112e-06
    493    517   2   0.50000    -0.1200000    0.0600000   2.494471e-04  1.671101e-07
    493    518   2   0.50000    -0.1200000    0.0600000   2.494471e-04  1.671101e-07
    515    496   2   0.50000     0.0600000   -0.5000000   3.205360e-04  1.719281e-07
    515    517   2   0.50000     0.0600000    0.0600000   6.128906e-05  1.496315e-08
    515    518   2   0.50000     0.0600000    0.0600000   6.128906e-05  1.496315e-08
    516    496   2   0.50000     0.0600000   -0.5000000   3.205360e-04  1.719281e-07
    516    517   2   0.50000     0.0600000    0.0600000   6.128906e-05  1.496315e-08
    516    518   2   0.50000     0.0600000    0.0600000   6.128906e-05  1.496315e-08
    494    519   2   0.50000    -0.1200000    0.3000000   1.995577e-06  1.069504e-11
    494    520   2   0.50000    -0.1200000    0.5000000   1.575021e-03  3.561100e-06
    517    519   2   0.50000     0.0600000    0.3000000   4.903125e-07  9.576416e-13
    517    520   2   0.50000     0.0600000    0.5000000   3.869820e-04  3.188634e-07
    518    519   2   0.50000     0.0600000    0.3000000   4.903125e-07  9.576416e-13
    518    520   2   0.50000     0.0600000    0.5000000   3.869820e-04  3.188634e-07
    495    521   2   0.50000     0.0800000   -0.5000000   1.095425e-03  1.218041e-06
    495    522   2   0.50000     0.0800000   -0.1200000   1.015252e-03  1.866303e-06
    519    521   2   0.50000     0.3000000   -0.5000000   2.153164e-06  6.980110e-12
    519    522   2   0.50000     0.3000000   -0.1200000   1.995577e-06  1.069504e-11
    496    523   2   0.50000    -0.5000000   -0.1200000   1.304585e-03  1.920112e-06
    496    534   2   0.50000    -0.5000000    0.0600000   3.205360e-04  1.719281e-07
    496    535   2   0.50000    -0.5000000    0.0600000   3.205360e-04  1.719281e-07
    521    523   2   0.50000    -0.5000000   -0.1200000   1.095425e-03  1.218041e-06
    521    534   2   0.50000    -0.5000000    0.0600000   2.691455e-04  1.090642e-07
    521    535   2   0.50000    -0.5000000    0.0600000   2.691455e-04  1.090642e-07
    520    524   2   0.50000     0.5000000   -0.1200000   1.575021e-03  3.561100e-06
    520    536   2   0.50000     0.5000000    0.0600000   3.869820e-04  3.188634e-07
    520    537   2   0.50000     0.5000000    0.0600000   3.869820e-04  3.188634e-07
    534    524   2   0.50000     0.0600000   -0.1200000   2.494471e-04  1.671101e-07
    534    536   2   0.50000     0.0600000    0.0600000   6.128906e-05  1.496315e-08
    534    537   2   0.50000     0.0600000    0.0600000   6.128906e-05  1.496315e-08
    535    524   2   0.50000     0.0600000   -0.1200000   2.494471e-04  1.671101e-07
    535    536   2   0.50000     0.0600000    0.0600000   6.128906e-05  1.496315e-08
    535    537   2   0.50000     0.0600000    0.0600000   6.128906e-05  1.496315e-08
    522    525   2   0.50000    -0.1200000   -0.1200000   1.015252e-03  1.866303e-06
    522    538   2   0.50000    -0.1200000    0.0600000   2.494471e-04  1.671101e-07
    522    539   2   0.50000    -0.1200000    0.0600000   2.494471e-04  1.671101e-07
    536    525   2   0.50000     0.0600000   -0.1200000   2.494471e-04  1.671101e-07
    536    538   2   0.50000     0.0600000    0.0600000   6.128906e-05  1.496315e-08
    536    539   2   0.50000     0.0600000    0.0600000   6.128906e-05  1.496315e-08
    537    525   2   0.50000     0.0600000   -0.1200000   2.494471e-04  1.671101e-07
    537    538   2   0.50000     0.0600000    0.0600000   6.128906e-05  1.496315e-08
    537    539   2   0.50000     0.0600000    0.0600000   6.128906e-05  1.496315e-08
    523    526   2   0.50000    -0.1200000   -0.1200000   1.015252e-03  1.866303e-06
    523    540   2   0.50000    -0.1200000    0.0600000   2.494471e-04  1.671101e-07
    523    541   2   0.50000    -0.1200000    0.0600000   2.494471e-04  1.671101e-07
    538    526   2   0.50000     0.0600000   -0.1200000   2.494471e-04  1.671101e-07
    538    540   2   0.50000     0.0600000    0.0600000   6.128906e-05  1.496315e-08
    538    541   2   0.50000     0.0600000    0.0600000   6.128906e-05  1.496315e-08
    539    526   2   0.50000     0.0600000   -0.1200000   2.494471e-04  1.671101e-07
    539    540   2   0.50000     0.0600000    0.0600000   6.128906e-05  1.496315e-08
    539    541   2   0.50000     0.0600000    0.0600000   6.128906e-05  1.496315e-08
    524    527   2   0.50000    -0.1200000   -0.1200000   1.015252e-03  1.866303e-06
    524    542   2   0.50000    -0.1200000    0.0600000   2.494471e-04  1.671101e-07
    524    543   2   0.50000    -0.1200000    0.0600000   2.494471e-04  1.671101e-07
    540    527   2   0.50000     0.0600000   -0.1200000   2.494471e-04  1.671101e-07
    540    542   2   0.50000     0.0600000    0.0600000   6.128906e-05  1.496315e-08
    540    543   2   0.50000     0.0600000    0.0600000   6.128906e-05  1.496315e-08
    541    527   2   0.50000     0.0600000   -0.1200000   2.494471e-04  1.671101e-07
    541    542   2   0.50000     0.0600000    0.0600000   6.128906e-05  1.496315e-08
    541    543   2   0.50000     0.0600000    0.0600000   6.128906e-05  1.496315e-08
    525    528   2   0.50000    -0.1200000   -0.1200000   1.015252e-03  1.866303e-06
    525    544   2   0.50000    -0.1200000    0.0600000   2.494471e-04  1.671101e-07
    525    545   2   0.50000    -0.1200000    0.0600000   2.494471e-04  1.671101e-07
    542    528   2   0.50000     0.0600000   -0.1200000   2.494471e-04  1.671101e-07
    542    544   2   0.50000     0.0600000    0.0600000   6.128906e-05  1.496315e-08
    542    545   2   0.50000     0.0600000    0.0600000   6.128906e-05  1.496315e-08
    543    528   2   0.50000     0.0600000   -0.1200000   2.494471e-04  1.671101e-07
    543    544   2   0.50000     0.0600000    0.0600000   6.128906e-05  1.496315e-08
    543    545   2   0.50000     0.0600000    0.0600000   6.128906e-05  1.496315e-08
    526    529   2   0.50000    -0.1200000   -0.1200000   1.015252e-03  1.866303e-06
    526    546   2   0.50000    -0.1200000    0.0600000   2.494471e-04  1.671101e-07
    526    547   2   0.50000    -0.1200000    0.0600000   2.494471e-04  1.671101e-07
    544    529   2   0.50000     0.0600000   -0.1200000   2.494471e-04  1.671101e-07
    544    546   2   0.50000     0.0600000    0.0600000   6.128906e-05  1.496315e-08
    544    547   2   0.50000     0.0600000    0.0600000   6.128906e-05  1.496315e-08
    545    529   2   0.50000     0.0600000   -0.1200000   2.494471e-04  1.671101e-07
    545    546   2   0.50000     0.0600000    0.0600000   6.128906e-05  1.496315e-08
    545    547   2   0.50000     0.0600000    0.0600000   6.128906e-05  1.496315e-08
    527    530   2   0.50000    -0.1200000   -0.1200000   1.015252e-03  1.866303e-06
    527    548   2   0.50000    -0.1200000    0.0600000   2.494471e-04  1.671101e-07
    527    549   2   0.50000    -0.1200000    0.0600000   2.494471e-04  1.671101e-07
    546    530   2   0.50000     0.0600000   -0.1200000   2.494471e-04  1.671101e-07
    546    548   2   0.50000     0.0600000    0.0600000   6.128906e-05  1.496315e-08
    546    549   2   0.50000     0.0600000    0.0600000   6.128906e-05  1.496315e-08
    547    530   2   0.50000     0.0600000   -0.1200000   2.494471e-04  1.671101e-07
    547    548   2   0.50000     0.0600000    0.0600000   6.128906e-05  1.496315e-08
    547    549   2   0.50000     0.0600000    0.0600000   6.128906e-05  1.496315e-08
    528    531   2   0.50000    -0.1200000   -0.1200000   1.015252e-03  1.866303e-06
    528    550   2   0.50000    -0.1200000    0.0600000   2.494471e-04  1.671101e-07
    528    551   2   0.50000    -0.1200000    0.0600000   2.494471e-04  1.671101e-07
    548    531   2   0.50000     0.0600000   -0.1200000   2.494471e-04  1.671101e-07
    548    550   2   0.50000     0.0600000    0.0600000   6.128906e-05  1.496315e-08
    548    551   2   0.50000     0.0600000    0.0600000   6.128906e-05  1.496315e-08
    549    531   2   0.50000     0.0600000   -0.1200000   2.494471e-04  1.671101e-07
    549    550   2   0.50000     0.0600000    0.0600000   6.128906e-05  1.496315e-08
    549    551   2   0.50000     0.0600000    0.0600000   6.128906e-05  1.496315e-08
    529    532   2   0.50000    -0.1200000    0.0800000   1.015252e-03  1.866303e-06
    529    552   2   0.50000    -0.1200000    0.0600000   2.494471e-04  1.671101e-07
    529    553   2   0.50000    -0.1200000    0.0600000   2.494471e-04  1.671101e-07
    550    532   2   0.50000     0.0600000    0.0800000   2.494471e-04  1.671101e-07
    550    552   2   0.50000     0.0600000    0.0600000   6.128906e-05  1.496315e-08
    550    553   2   0.50000     0.0600000    0.0600000   6.128906e-05  1.496315e-08
    551    532   2   0.50000     0.0600000    0.0800000   2.494471e-04  1.671101e-07
    551    552   2   0.50000     0.0600000    0.0600000   6.128906e-05  1.496315e-08
    551    553   2   0.50000     0.0600000    0.0600000   6.128906e-05  1.496315e-08
    530    533   2   0.50000    -0.1200000   -0.5000000   1.304585e-03  1.920112e-06
    530    554   2   0.50000    -0.1200000    0.0600000   2.494471e-04  1.671101e-07
    530    555   2   0.50000    -0.1200000    0.0600000   2.494471e-04  1.671101e-07
    552    533   2   0.50000     0.0600000   -0.5000000   3.205360e-04  1.719281e-07
    552    554   2   0.50000     0.0600000    0.0600000   6.128906e-05  1.496315e-08
    552    555   2   0.50000     0.0600000    0.0600000   6.128906e-05  1.496315e-08
    553    533   2   0.50000     0.0600000   -0.5000000   3.205360e-04  1.719281e-07
    553    554   2   0.50000     0.0600000    0.0600000   6.128906e-05  1.496315e-08
    553    555   2   0.50000     0.0600000    0.0600000   6.128906e-05  1.496315e-08
    531    556   2   0.50000    -0.1200000    0.3000000   1.995577e-06  1.069504e-11
    531    557   2   0.50000    -0.1200000    0.5000000   1.575021e-03  3.561100e-06
    554    556   2   0.50000     0.0600000    0.3000000   4.903125e-07  9.576416e-13
    554    557   2   0.50000     0.0600000    0.5000000   3.869820e-04  3.188634e-07
    555    556   2   0.50000     0.0600000    0.3000000   4.903125e-07  9.576416e-13
    555    557   2   0.50000     0.0600000    0.5000000   3.869820e-04  3.188634e-07
    532    558   2   0.50000     0.0800000   -0.5000000   1.095425e-03  1.218041e-06
    532    559   2   0.50000     0.0800000   -0.1200000   1.015252e-03  1.866303e-06
    556    558   2   0.50000     0.3000000   -0.5000000   2.153164e-06  6.980110e-12
    556    559   2   0.50000     0.3000000   -0.1200000   1.995577e-06  1.069504e-11
    533    560   2   0.50000    -0.5000000   -0.1200000   1.304585e-03  1.920112e-06
    533    571   2   0.50000    -0.5000000    0.0600000   3.205360e-04  1.719281e-07
    533    572   2   0.50000    -0.5000000    0.0600000   3.205360e-04  1.719281e-07
    558    560   2   0.50000    -0.5000000   -0.1200000   1.095425e-03  1.218041e-06
    558    571   2   0.50000    -0.5000000    0.0600000   2.691455e-04  1.090642e-07
    558    572   2   0.50000    -0.5000000    0.0600000   2.691455e-04  1.090642e-07
    557    561   2   0.50000     0.5000000   -0.1200000   1.575021e-03  3.561100e-06
    557    573   2   0.50000     0.5000000    0.0600000   3.869820e-04  3.188634e-07
    557    574   2   0.50000     0.5000000    0.0600000   3.869820e-04  3.188634e-07
    571    561   2   0.50000     0.0600000   -0.1200000   2.494471e-04  1.671101e-07
    571    573   2   0.50000     0.0600000    0.0600000   6.128906e-05  1.496315e-08
    571    574   2   0.50000     0.0600000    0.0600000   6.128906e-05  1.496315e-08
    572    561   2   0.50000     0.0600000   -0.1200000   2.494471e-04  1.671101e-07
    572    573   2   0.50000     0.0600000    0.0600000   6.128906e-05  1.496315e-08
    572    574   2   0.50000     0.0600000    0.0600000   6.128906e-05  1.496315e-08
    559    562   2   0.50000    -0.1200000   -0.1200000   1.015252e-03  1.866303e-06
    559    575   2   0.50000    -0.1200000    0.0600000   2.494471e-04  1.671101e-07
    559    576   2   0.50000    -0.1200000    0.0600000   2.494471e-04  1.671101e-07
    573    562   2   0.50000     0.0600000   -0.1200000   2.494471e-04  1.671101e-07
    573    575   2   0.50000     0.0600000    0.0600000   6.128906e-05  1.496315e-08
    573    576   2   0.50000     0.0600000    0.0600000   6.128906e-05  1.496315e-08
    574    562   2   0.50000     0.0600000   -0.1200000   2.494471e-04  1.671101e-07
    574    575   2   0.50000     0.0600000    0.0600000   6.128906e-05  1.496315e-08
    574    576   2   0.50000     0.0600000    0.0600000   6.128906e-05  1.496315e-08
    560    563   2   0.50000    -0.1200000   -0.1200000   1.015252e-03  1.866303e-06
    560    577   2   0.50000    -0.1200000    0.0600000   2.494471e-04  1.671101e-07
    560    578   2   0.50000    -0.1200000    0.0600000   2.494471e-04  1.671101e-07
    575    563   2   0.50000     0.0600000   -0.1200000   2.494471e-04  1.671101e-07
    575    577   2   0.50000     0.0600000    0.0600000   6.128906e-05  1.496315e-08
    575    578   2   0.50000     0.0600000    0.0600000   6.128906e-05  1.496315e-08
    576    563   2   0.50000     0.0600000   -0.1200000   2.494471e-04  1.671101e-07
    576    577   2   0.50000     0.0600000    0.0600000   6.128906e-05  1.496315e-08
    576    578   2   0.50000     0.0600000    0.0600000   6.128906e-05  1.496315e-08
    561    564   2   0.50000    -0.1200000   -0.1200000   1.015252e-03  1.866303e-06
    561    579   2   0.50000    -0.1200000    0.0600000   2.494471e-04  1.671101e-07
    561    580   2   0.50000    -0.1200000    0.0600000   2.494471e-04  1.671101e-07
    577    564   2   0.50000     0.0600000   -0.1200000   2.494471e-04  1.671101e-07
    577    579   2   0.50000     0.0600000    0.0600000   6.128906e-05  1.496315e-08
    577    580   2   0.50000     0.0600000    0.0600000   6.128906e-05  1.496315e-08
    578    564   2   0.50000     0.0600000   -0.1200000   2.494471e-04  1.671101e-07
    578    579   2   0.50000     0.0600000    0.0600000   6.128906e-05  1.496315e-08
    578    580   2   0.50000     0.0600000    0.0600000   6.128906e-05  1.496315e-08
    562    565   2   0.50000    -0.1200000   -0.1200000   1.015252e-03  1.866303e-06
    562    581   2   0.50000    -0.1200000    0.0600000   2.494471e-04  1.671101e-07
    562    582   2   0.50000    -0.1200000    0.0600000   2.494471e-04  1.671101e-07
    579    565   2   0.50000     0.0600000   -0.1200000   2.494471e-04  1.671101e-07
    579    581   2   0.50000     0.0600000    0.0600000   6.128906e-05  1.496315e-08
    579    582   2   0.50000     0.0600000    0.0600000   6.128906e-05  1.496315e-08
    580    565   2   0.50000     0.0600000   -0.1200000   2.494471e-04  1.671101e-07
    580    581   2   0.50000     0.0600000    0.0600000   6.128906e-05  1.496315e-08
    580    582   2   0.50000     0.0600000    0.0600000   6.128906e-05  1.496315e-08
    563    566   2   0.50000    -0.1200000   -0.1200000   1.015252e-03  1.866303e-06
    563    583   2   0.50000    -0.1200000    0.0600000   2.494471e-04  1.671101e-07
    563    584   2   0.50000    -0.1200000    0.0600000   2.494471e-04  1.671101e-07
    581    566   2   0.50000     0.0600000   -0.1200000   2.494471e-04  1.671101e-07
    581    583   2   0.50000     0.0600000    0.0600000   6.128906e-05  1.496315e-08
    581    584   2   0.50000     0.0600000    0.0600000   6.128906e-05  1.496315e-08
    582    566   2   0.50000     0.0600000   -0.1200000   2.494471e-04  1.671101e-07
    582    583   2   0.50000     0.0600000    0.0600000   6.128906e-05  1.496315e-08
    582    584   2   0.50000     0.0600000    0.0600000   6.128906e-05  1.496315e-08
    564    567   2   0.50000    -0.1200000   -0.1200000   1.015252e-03  1.866303e-06
    564    585   2   0.50000    -0.1200000    0.0600000   2.494471e-04  1.671101e-07
    564    586   2   0.50000    -0.1200000    0.0600000   2.494471e-04  1.671101e-07
    583    567   2   0.50000     0.0600000   -0.1200000   2.494471e-04  1.671101e-07
    583    585   2   0.50000     0.0600000    0.0600000   6.128906e-05  1.496315e-08
    583    586   2   0.50000     0.0600000    0.0600000   6.128906e-05  1.496315e-08
    584    567   2   0.50000     0.0600000   -0.1200000   2.494471e-04  1.671101e-07
    584    585   2   0.50000     0.0600000    0.0600000   6.128906e-05  1.496315e-08
    584    586   2   0.50000     0.0600000    0.0600000   6.128906e-05  1.496315e-08
    565    568   2   0.50000    -0.1200000   -0.1200000   1.015252e-03  1.866303e-06
    565    587   2   0.50000    -0.1200000    0.0600000   2.494471e-04  1.671101e-07
    565    588   2   0.50000    -0.1200000    0.0600000   2.494471e-04  1.671101e-07
    585    568   2   0.50000     0.0600000   -0.1200000   2.494471e-04  1.671101e-07
    585    587   2   0.50000     0.0600000    0.0600000   6.128906e-05  1.496315e-08
    585    588   2   0.50000     0.0600000    0.0600000   6.128906e-05  1.496315e-08
    586    568   2   0.50000     0.0600000   -0.1200000   2.494471e-04  1.671101e-07
    586    587   2   0.50000     0.0600000    0.0600000   6.128906e-05  1.496315e-08
    586    588   2   0.50000     0.0600000    0.0600000   6.128906e-05  1.496315e-08
    566    569   2   0.50000    -0.1200000    0.0800000   1.015252e-03  1.866303e-06
    566    589   2   0.50000    -0.1200000    0.0600000   2.494471e-04  1.671101e-07
    566    590   2   0.50000    -0.1200000    0.0600000   2.494471e-04  1.671101e-07
    587    569   2   0.50000     0.0600000    0.0800000   2.494471e-04  1.671101e-07
    587    589   2   0.50000     0.0600000    0.0600000   6.128906e-05  1.496315e-08
    587    590   2   0.50000     0.0600000    0.0600000   6.128906e-05  1.496315e-08
    588    569   2   0.50000     0.0600000    0.0800000   2.494471e-04  1.671101e-07
    588    589   2   0.50000     0.0600000    0.0600000   6.128906e-05  1.496315e-08
    588    590   2   0.50000     0.0600000    0.0600000   6.128906e-05  1.496315e-08
    567    570   2   0.50000    -0.1200000   -0.5000000   1.304585e-03  1.920112e-06
    567    591   2   0.50000    -0.1200000    0.0600000   2.494471e-04  1.671101e-07
    567    592   2   0.50000    -0.1200000    0.0600000   2.494471e-04  1.671101e-07
    589    570   2   0.50000     0.0600000   -0.5000000   3.205360e-04  1.719281e-07
    589    591   2   0.50000     0.0600000    0.0600000   6.128906e-05  1.496315e-08
    589    592   2   0.50000     0.0600000    0.0600000   6.128906e-05  1.496315e-08
    590    570   2   0.50000     0.0600000   -0.5000000   3.205360e-04  1.719281e-07
    590    591   2   0.50000     0.0600000    0.0600000   6.128906e-05  1.496315e-08
    590    592   2   0.50000     0.0600000    0.0600000   6.128906e-05  1.496315e-08
    568    593   2   0.50000    -0.1200000    0.3000000   1.995577e-06  1.069504e-11
    568    594   2   0.50000    -0.1200000    0.5000000   1.575021e-03  3.561100e-06
    591    593   2   0.50000     0.0600000    0.3000000   4.903125e-07  9.576416e-13
    591    594   2   0.50000     0.0600000    0.5000000   3.869820e-04  3.188634e-07
    592    593   2   0.50000     0.0600000    0.3000000   4.903125e-07  9.576416e-13
    592    594   2   0.50000     0.0600000    0.5000000   3.869820e-04  3.188634e-07
    569    595   2   0.50000     0.0800000   -0.5000000   1.095425e-03  1.218041e-06
    569    596   2   0.50000     0.0800000   -0.1200000   1.015252e-03  1.866303e-06
    593    595   2   0.50000     0.3000000   -0.5000000   2.153164e-06  6.980110e-12
    593    596   2   0.50000     0.3000000   -0.1200000   1.995577e-06  1.069504e-11
    570    597   2   0.50000    -0.5000000   -0.1200000   1.304585e-03  1.920112e-06
    570    608   2   0.50000    -0.5000000    0.0600000   3.205360e-04  1.719281e-07
    570    609   2   0.50000    -0.5000000    0.0600000   3.205360e-04  1.719281e-07
    595    597   2   0.50000    -0.5000000   -0.1200000   1.095425e-03  1.218041e-06
    595    608   2   0.50000    -0.5000000    0.0600000   2.691455e-04  1.090642e-07
    595    609   2   0.50000    -0.5000000    0.0600000   2.691455e-04  1.090642e-07
    594    598   2   0.50000     0.5000000   -0.1200000   1.575021e-03  3.561100e-06
    594    610   2   0.50000     0.5000000    0.0600000   3.869820e-04  3.188634e-07
    594    611   2   0.50000     0.5000000    0.0600000   3.869820e-04  3.188634e-07
    608    598   2   0.50000     0.0600000   -0.1200000   2.494471e-04  1.671101e-07
    608    610   2   0.50000     0.0600000    0.0600000   6.128906e-05  1.496315e-08
    608    611   2   0.50000     0.0600000    0.0600000   6.128906e-05  1.496315e-08
    609    598   2   0.50000     0.0600000   -0.1200000   2.494471e-04  1.671101e-07
    609    610   2   0.50000     0.0600000    0.0600000   6.128906e-05  1.496315e-08
    609    611   2   0.50000     0.0600000    0.0600000   6.128906e-05  1.496315e-08
    596    599   2   0.50000    -0.1200000   -0.1200000   1.015252e-03  1.866303e-06
    596    612   2   0.50000    -0.1200000    0.0600000   2.494471e-04  1.671101e-07
    596    613   2   0.50000    -0.1200000    0.0600000   2.494471e-04  1.671101e-07
    610    599   2   0.50000     0.0600000   -0.1200000   2.494471e-04  1.671101e-07
    610    612   2   0.50000     0.0600000    0.0600000   6.128906e-05  1.496315e-08
    610    613   2   0.50000     0.0600000    0.0600000   6.128906e-05  1.496315e-08
    611    599   2   0.50000     0.0600000   -0.1200000   2.494471e-04  1.671101e-07
    611    612   2   0.50000     0.0600000    0.0600000   6.128906e-05  1.496315e-08
    611    613   2   0.50000     0.0600000    0.0600000   6.128906e-05  1.496315e-08
    597    600   2   0.50000    -0.1200000   -0.1200000   1.015252e-03  1.866303e-06
    597    614   2   0.50000    -0.1200000    0.0600000   2.494471e-04  1.671101e-07
    597    615   2   0.50000    -0.1200000    0.0600000   2.494471e-04  1.671101e-07
    612    600   2   0.50000     0.0600000   -0.1200000   2.494471e-04  1.671101e-07
    612    614   2   0.50000     0.0600000    0.0600000   6.128906e-05  1.496315e-08
    612    615   2   0.50000     0.0600000    0.0600000   6.128906e-05  1.496315e-08
    613    600   2   0.50000     0.0600000   -0.1200000   2.494471e-04  1.671101e-07
    613    614   2   0.50000     0.0600000    0.0600000   6.128906e-05  1.496315e-08
    613    615   2   0.50000     0.0600000    0.0600000   6.128906e-05  1.496315e-08
    598    601   2   0.50000    -0.1200000   -0.1200000   1.015252e-03  1.866303e-06
    598    616   2   0.50000    -0.1200000    0.0600000   2.494471e-04  1.671101e-07
    598    617   2   0.50000    -0.1200000    0.0600000   2.494471e-04  1.671101e-07
    614    601   2   0.50000     0.0600000   -0.1200000   2.494471e-04  1.671101e-07
    614    616   2   0.50000     0.0600000    0.0600000   6.128906e-05  1.496315e-08
    614    617   2   0.50000     0.0600000    0.0600000   6.128906e-05  1.496315e-08
    615    601   2   0.50000     0.0600000   -0.1200000   2.494471e-04  1.671101e-07
    615    616   2   0.50000     0.0600000    0.0600000   6.128906e-05  1.496315e-08
    615    617   2   0.50000     0.0600000    0.0600000   6.128906e-05  1.496315e-08
    599    602   2   0.50000    -0.1200000   -0.1200000   1.015252e-03  1.866303e-06
    599    618   2   0.50000    -0.1200000    0.0600000   2.494471e-04  1.671101e-07
    599    619   2   0.50000    -0.1200000    0.0600000   2.494471e-04  1.671101e-07
    616    602   2   0.50000     0.0600000   -0.1200000   2.494471e-04  1.671101e-07
    616    618   2   0.50000     0.0600000    0.0600000   6.128906e-05  1.496315e-08
    616    619   2   0.50000     0.0600000    0.0600000   6.128906e-05  1.496315e-08
    617    602   2   0.50000     0.0600000   -0.1200000   2.494471e-04  1.671101e-07
    617    618   2   0.50000     0.0600000    0.0600000   6.128906e-05  1.496315e-08
    617    619   2   0.50000     0.0600000    0.0600000   6.128906e-05  1.496315e-08
    600    603   2   0.50000    -0.1200000   -0.1200000   1.015252e-03  1.866303e-06
    600    620   2   0.50000    -0.1200000    0.0600000   2.494471e-04  1.671101e-07
    600    621   2   0.50000    -0.1200000    0.0600000   2.494471e-04  1.671101e-07
    618    603   2   0.50000     0.0600000   -0.1200000   2.494471e-04  1.671101e-07
    618    620   2   0.50000     0.0600000    0.0600000   6.128906e-05  1.496315e-08
    618    621   2   0.50000     0.0600000    0.0600000   6.128906e-05  1.496315e-08
    619    603   2   0.50000     0.0600000   -0.1200000   2.494471e-04  1.671101e-07
    619    620   2   0.50000     0.0600000    0.0600000   6.128906e-05  1.496315e-08
    619    621   2   0.50000     0.0600000    0.0600000   6.128906e-05  1.496315e-08
    601    604   2   0.50000    -0.1200000   -0.1200000   1.015252e-03  1.866303e-06
    601    622   2   0.50000    -0.1200000    0.0600000   2.494471e-04  1.671101e-07
    601    623   2   0.50000    -0.1200000    0.0600000   2.494471e-04  1.671101e-07
    620    604   2   0.50000     0.0600000   -0.1200000   2.494471e-04  1.671101e-07
    620    622   2   0.50000     0.0600000    0.0600000   6.128906e-05  1.496315e-08
    620    623   2   0.50000     0.0600000    0.0600000   6.128906e-05  1.496315e-08
    621    604   2   0.50000     0.0600000   -0.1200000   2.494471e-04  1.671101e-07
    621    622   2   0.50000     0.0600000    0.0600000   6.128906e-05  1.496315e-08
    621    623   2   0.50000     0.0600000    0.0600000   6.128906e-05  1.496315e-08
    602    605   2   0.50000    -0.1200000   -0.1200000   1.015252e-03  1.866303e-06
    602    624   2   0.50000    -0.1200000    0.0600000   2.494471e-04  1.671101e-07
    602    625   2   0.50000    -0.1200000    0.0600000   2.494471e-04  1.671101e-07
    622    605   2   0.50000     0.0600000   -0.1200000   2.494471e-04  1.671101e-07
    622    624   2   0.50000     0.0600000    0.0600000   6.128906e-05  1.496315e-08
    622    625   2   0.50000     0.0600000    0.0600000   6.128906e-05  1.496315e-08
    623    605   2   0.50000     0.0600000   -0.1200000   2.494471e-04  1.671101e-07
    623    624   2   0.50000     0.0600000    0.0600000   6.128906e-05  1.496315e-08
    623    625   2   0.50000     0.0600000    0.0600000   6.128906e-05  1.496315e-08
    603    606   2   0.50000    -0.1200000    0.0800000   1.015252e-03  1.866303e-06
    603    626   2   0.50000    -0.1200000    0.0600000   2.494471e-04  1.671101e-07
    603    627   2   0.50000    -0.1200000    0.0600000   2.494471e-04  1.671101e-07
    624    606   2   0.50000     0.0600000    0.0800000   2.494471e-04  1.671101e-07
    624    626   2   0.50000     0.0600000    0.0600000   6.128906e-05  1.496315e-08
    624    627   2   0.50000     0.0600000    0.0600000   6.128906e-05  1.496315e-08
    625    606   2   0.50000     0.0600000    0.0800000   2.494471e-04  1.671101e-07
    625    626   2   0.50000     0.0600000    0.0600000   6.128906e-05  1.496315e-08
    625    627   2   0.50000     0.0600000    0.0600000   6.128906e-05  1.496315e-08
    604    607   2   0.50000    -0.1200000   -0.5000000   1.304585e-03  1.920112e-06
    604    628   2   0.50000    -0.1200000    0.0600000   2.494471e-04  1.671101e-07
    604    629   2   0.50000    -0.1200000    0.0600000   2.494471e-04  1.671101e-07
    626    607   2   0.50000     0.0600000   -0.5000000   3.205360e-04  1.719281e-07
    626    628   2   0.50000     0.0600000    0.0600000   6.128906e-05  1.496315e-08
    626    629   2   0.50000     0.0600000    0.0600000   6.128906e-05  1.496315e-08
    627    607   2   0.50000     0.0600000   -0.5000000   3.205360e-04  1.719281e-07
    627    628   2   0.50000     0.0600000    0.0600000   6.128906e-05  1.496315e-08
    627    629   2   0.50000     0.0600000    0.0600000   6.128906e-05  1.496315e-08
    605    630   2   0.50000    -0.1200000    0.3000000   1.995577e-06  1.069504e-11
    605    631   2   0.50000    -0.1200000    0.5000000   1.575021e-03  3.561100e-06
    628    630   2   0.50000     0.0600000    0.3000000   4.903125e-07  9.576416e-13
    628    631   2   0.50000     0.0600000    0.5000000   3.869820e-04  3.188634e-07
    629    630   2   0.50000     0.0600000    0.3000000   4.903125e-07  9.576416e-13
    629    631   2   0.50000     0.0600000    0.5000000   3.869820e-04  3.188634e-07
    606    632   2   0.50000     0.0800000   -0.5000000   1.095425e-03  1.218041e-06
    606    633   2   0.50000     0.0800000   -0.1200000   1.015252e-03  1.866303e-06
    630    632   2   0.50000     0.3000000   -0.5000000   2.153164e-06  6.980110e-12
    630    633   2   0.50000     0.3000000   -0.1200000   1.995577e-06  1.069504e-11
    607    634   2   0.50000    -0.5000000   -0.1200000   1.304585e-03  1.920112e-06
    607    645   2   0.50000    -0.5000000    0.0600000   3.205360e-04  1.719281e-07
    607    646   2   0.50000    -0.5000000    0.0600000   3.205360e-04  1.719281e-07
    632    634   2   0.50000    -0.5000000   -0.1200000   1.095425e-03  1.218041e-06
    632    645   2   0.50000    -0.5000000    0.0600000   2.691455e-04  1.090642e-07
    632    646   2   0.50000    -0.5000000    0.0600000   2.691455e-04  1.090642e-07
    631    635   2   0.50000     0.5000000   -0.1200000   1.575021e-03  3.561100e-06
    631    647   2   0.50000     0.5000000    0.0600000   3.869820e-04  3.188634e-07
    631    648   2   0.50000     0.5000000    0.0600000   3.869820e-04  3.188634e-07
    645    635   2   0.50000     0.0600000   -0.1200000   2.494471e-04  1.671101e-07
    645    647   2   0.50000     0.0600000    0.0600000   6.128906e-05  1.496315e-08
    645    648   2   0.50000     0.0600000    0.0600000   6.128906e-05  1.496315e-08
    646    635   2   0.50000     0.0600000   -0.1200000   2.494471e-04  1.671101e-07
    646    647   2   0.50000     0.0600000    0.0600000   6.128906e-05  1.496315e-08
    646    648   2   0.50000     0.0600000    0.0600000   6.128906e-05  1.496315e-08
    633    636   2   0.50000    -0.1200000   -0.1200000   1.015252e-03  1.866303e-06
    633    649   2   0.50000    -0.1200000    0.0600000   2.494471e-04  1.671101e-07
    633    650   2   0.50000    -0.1200000    0.0600000   2.494471e-04  1.671101e-07
    647    636   2   0.50000     0.0600000   -0.1200000   2.494471e-04  1.671101e-07
    647    649   2   0.50000     0.0600000    0.0600000   6.128906e-05  1.496315e-08
    647    650   2   0.50000     0.0600000    0.0600000   6.128906e-05  1.496315e-08
    648    636   2   0.50000     0.0600000   -0.1200000   2.494471e-04  1.671101e-07
    648    649   2   0.50000     0.0600000    0.0600000   6.128906e-05  1.496315e-08
    648    650   2   0.50000     0.0600000    0.0600000   6.128906e-05  1.496315e-08
    634    637   2   0.50000    -0.1200000   -0.1200000   1.015252e-03  1.866303e-06
    634    651   2   0.50000    -0.1200000    0.0600000   2.494471e-04  1.671101e-07
    634    652   2   0.50000    -0.1200000    0.0600000   2.494471e-04  1.671101e-07
    649    637   2   0.50000     0.0600000   -0.1200000   2.494471e-04  1.671101e-07
    649    651   2   0.50000     0.0600000    0.0600000   6.128906e-05  1.496315e-08
    649    652   2   0.50000     0.0600000    0.0600000   6.128906e-05  1.496315e-08
    650    637   2   0.50000     0.0600000   -0.1200000   2.494471e-04  1.671101e-07
    650    651   2   0.50000     0.0600000    0.0600000   6.128906e-05  1.496315e-08
    650    652   2   0.50000     0.0600000    0.0600000   6.128906e-05  1.496315e-08
    635    638   2   0.50000    -0.1200000   -0.1200000   1.015252e-03  1.866303e-06
    635    653   2   0.50000    -0.1200000    0.0600000   2.494471e-04  1.671101e-07
    635    654   2   0.50000    -0.1200000    0.0600000   2.494471e-04  1.671101e-07
    651    638   2   0.50000     0.0600000   -0.1200000   2.494471e-04  1.671101e-07
    651    653   2   0.50000     0.0600000    0.0600000   6.128906e-05  1.496315e-08
    651    654   2   0.50000     0.0600000    0.0600000   6.128906e-05  1.496315e-08
    652    638   2   0.50000     0.0600000   -0.1200000   2.494471e-04  1.671101e-07
    652    653   2   0.50000     0.0600000    0.0600000   6.128906e-05  1.496315e-08
    652    654   2   0.50000     0.0600000    0.0600000   6.128906e-05  1.496315e-08
    636    639   2   0.50000    -0.1200000   -0.1200000   1.015252e-03  1.866303e-06
    636    655   2   0.50000    -0.1200000    0.0600000   2.494471e-04  1.671101e-07
    636    656   2   0.50000    -0.1200000    0.0600000   2.494471e-04  1.671101e-07
    653    639   2   0.50000     0.0600000   -0.1200000   2.494471e-04  1.671101e-07
    653    655   2   0.50000     0.0600000    0.0600000   6.128906e-05  1.496315e-08
    653    656   2   0.50000     0.0600000    0.0600000   6.128906e-05  1.496315e-08
    654    639   2   0.50000     0.0600000   -0.1200000   2.494471e-04  1.671101e-07
    654    655   2   0.50000     0.0600000    0.0600000   6.128906e-05  1.496315e-08
    654    656   2   0.50000     0.0600000    0.0600000   6.128906e-05  1.496315e-08
    637    640   2   0.50000    -0.1200000   -0.1200000   1.015252e-03  1.866303e-06
    637    657   2   0.50000    -0.1200000    0.0600000   2.494471e-04  1.671101e-07
    637    658   2   0.50000    -0.1200000    0.0600000   2.494471e-04  1.671101e-07
    655    640   2   0.50000     0.0600000   -0.1200000   2.494471e-04  1.671101e-07
    655    657   2   0.50000     0.0600000    0.0600000   6.128906e-05  1.496315e-08
    655    658   2   0.50000     0.0600000    0.0600000   6.128906e-05  1.496315e-08
    656    640   2   0.50000     0.0600000   -0.1200000   2.494471e-04  1.671101e-07
    656    657   2   0.50000     0.0600000    0.0600000   6.128906e-05  1.496315e-08
    656    658   2   0.50000     0.0600000    0.0600000   6.128906e-05  1.496315e-08
    638    641   2   0.50000    -0.1200000   -0.1200000   1.015252e-03  1.866303e-06
    638    659   2   0.50000    -0.1200000    0.0600000   2.494471e-04  1.671101e-07
    638    660   2   0.50000    -0.1200000    0.0600000   2.494471e-04  1.671101e-07
    657    641   2   0.50000     0.0600000   -0.1200000   2.494471e-04  1.671101e-07
    657    659   2   0.50000     0.0600000    0.0600000   6.128906e-05  1.496315e-08
    657    660   2   0.50000     0.0600000    0.0600000   6.128906e-05  1.496315e-08
    658    641   2   0.50000     0.0600000   -0.1200000   2.494471e-04  1.671101e-07
    658    659   2   0.50000     0.0600000    0.0600000   6.128906e-05  1.496315e-08
    658    660   2   0.50000     0.0600000    0.0600000   6.128906e-05  1.496315e-08
    639    642   2   0.50000    -0.1200000   -0.1200000   1.015252e-03  1.866303e-06
    639    661   2   0.50000    -0.1200000    0.0600000   2.494471e-04  1.671101e-07
    639    662   2   0.50000    -0.1200000    0.0600000   2.494471e-04  1.671101e-07
    659    642   2   0.50000     0.0600000   -0.1200000   2.494471e-04  1.671101e-07
    659    661   2   0.50000     0.0600000    0.0600000   6.128906e-05  1.496315e-08
    659    662   2   0.50000     0.0600000    0.0600000   6.128906e-05  1.496315e-08
    660    642   2   0.50000     0.0600000   -0.1200000   2.494471e-04  1.671101e-07
    660    661   2   0.50000     0.0600000    0.0600000   6.128906e-05  1.496315e-08
    660    662   2   0.50000     0.0600000    0.0600000   6.128906e-05  1.496315e-08
    640    643   2   0.50000    -0.1200000    0.0800000   1.015252e-03  1.866303e-06
    640    663   2   0.50000    -0.1200000    0.0600000   2.494471e-04  1.671101e-07
    640    664   2   0.50000    -0.1200000    0.0600000   2.494471e-04  1.671101e-07
    661    643   2   0.50000     0.0600000    0.0800000   2.494471e-04  1.671101e-07
    661    663   2   0.50000     0.0600000    0.0600000   6.128906e-05  1.496315e-08
    661    664   2   0.50000     0.0600000    0.0600000   6.128906e-05  1.496315e-08
    662    643   2   0.50000     0.0600000    0.0800000   2.494471e-04  1.671101e-07
    662    663   2   0.50000     0.0600000    0.0600000   6.128906e-05  1.496315e-08
    662    664   2   0.50000     0.0600000    0.0600000   6.128906e-05  1.496315e-08
    641    644   2   0.50000    -0.1200000   -0.5000000   1.304585e-03  1.920112e-06
    641    665   2   0.50000    -0.1200000    0.0600000   2.494471e-04  1.671101e-07
    641    666   2   0.50000    -0.1200000    0.0600000   2.494471e-04  1.671101e-07
    663    644   2   0.50000     0.0600000   -0.5000000   3.205360e-04  1.719281e-07
    663    665   2   0.50000     0.0600000    0.0600000   6.128906e-05  1.496315e-08
    663    666   2   0.50000     0.0600000    0.0600000   6.128906e-05  1.496315e-08
    664    644   2   0.50000     0.0600000   -0.5000000   3.205360e-04  1.719281e-07
    664    665   2   0.50000     0.0600000    0.0600000   6.128906e-05  1.496315e-08
    664    666   2   0.50000     0.0600000    0.0600000   6.128906e-05  1.496315e-08
    642    667   2   0.50000    -0.1200000    0.3000000   1.995577e-06  1.069504e-11
    642    668   2   0.50000    -0.1200000    0.5000000   1.575021e-03  3.561100e-06
    665    667   2   0.50000     0.0600000    0.3000000   4.903125e-07  9.576416e-13
    665    668   2   0.50000     0.0600000    0.5000000   3.869820e-04  3.188634e-07
    666    667   2   0.50000     0.0600000    0.3000000   4.903125e-07  9.576416e-13
    666    668   2   0.50000     0.0600000    0.5000000   3.869820e-04  3.188634e-07
    643    669   2   0.50000     0.0800000   -0.5000000   1.095425e-03  1.218041e-06
    643    670   2   0.50000     0.0800000   -0.1200000   1.015252e-03  1.866303e-06
    667    669   2   0.50000     0.3000000   -0.5000000   2.153164e-06  6.980110e-12
    667    670   2   0.50000     0.3000000   -0.1200000   1.995577e-06  1.069504e-11
    644    671   2   0.50000    -0.5000000   -0.1200000   1.304585e-03  1.920112e-06
    644    682   2   0.50000    -0.5000000    0.0600000   3.205360e-04  1.719281e-07
    644    683   2   0.50000    -0.5000000    0.0600000   3.205360e-04  1.719281e-07
    669    671   2   0.50000    -0.5000000   -0.1200000   1.095425e-03  1.218041e-06
    669    682   2   0.50000    -0.5000000    0.0600000   2.691455e-04  1.090642e-07
    669    683   2   0.50000    -0.5000000    0.0600000   2.691455e-04  1.090642e-07
    668    672   2   0.50000     0.5000000   -0.1200000   1.575021e-03  3.561100e-06
    668    684   2   0.50000     0.5000000    0.0600000   3.869820e-04  3.188634e-07
    668    685   2   0.50000     0.5000000    0.0600000   3.869820e-04  3.188634e-07
    682    672   2   0.50000     0.0600000   -0.1200000   2.494471e-04  1.671101e-07
    682    684   2   0.50000     0.0600000    0.0600000   6.128906e-05  1.496315e-08
    682    685   2   0.50000     0.0600000    0.0600000   6.128906e-05  1.496315e-08
    683    672   2   0.50000     0.0600000   -0.1200000   2.494471e-04  1.671101e-07
    683    684   2   0.50000     0.0600000    0.0600000   6.128906e-05  1.496315e-08
    683    685   2   0.50000     0.0600000    0.0600000   6.128906e-05  1.496315e-08
    670    673   2   0.50000    -0.1200000   -0.1200000   1.015252e-03  1.866303e-06
    670    686   2   0.50000    -0.1200000    0.0600000   2.494471e-04  1.671101e-07
    670    687   2   0.50000    -0.1200000    0.0600000   2.494471e-04  1.671101e-07
    684    673   2   0.50000     0.0600000   -0.1200000   2.494471e-04  1.671101e-07
    684    686   2   0.50000     0.0600000    0.0600000   6.128906e-05  1.496315e-08
    684    687   2   0.50000     0.0600000    0.0600000   6.128906e-05  1.496315e-08
    685    673   2   0.50000     0.0600000   -0.1200000   2.494471e-04  1.671101e-07
    685    686   2   0.50000     0.0600000    0.0600000   6.128906e-05  1.496315e-08
    685    687   2   0.50000     0.0600000    0.0600000   6.128906e-05  1.496315e-08
    671    674   2   0.50000    -0.1200000   -0.1200000   1.015252e-03  1.866303e-06
    671    688   2   0.50000    -0.1200000    0.0600000   2.494471e-04  1.671101e-07
    671    689   2   0.50000    -0.1200000    0.0600000   2.494471e-04  1.671101e-07
    686    674   2   0.50000     0.0600000   -0.1200000   2.494471e-04  1.671101e-07
    686    688   2   0.50000     0.0600000    0.0600000   6.128906e-05  1.496315e-08
    686    689   2   0.50000     0.0600000    0.0600000   6.128906e-05  1.496315e-08
    687    674   2   0.50000     0.0600000   -0.1200000   2.494471e-04  1.671101e-07
    687    688   2   0.50000     0.0600000    0.0600000   6.128906e-05  1.496315e-08
    687    689   2   0.50000     0.0600000    0.0600000   6.128906e-05  1.496315e-08
    672    675   2   0.50000    -0.1200000   -0.1200000   1.015252e-03  1.866303e-06
    672    690   2   0.50000    -0.1200000    0.0600000   2.494471e-04  1.671101e-07
    672    691   2   0.50000    -0.1200000    0.0600000   2.494471e-04  1.671101e-07
    688    675   2   0.50000     0.0600000   -0.1200000   2.494471e-04  1.671101e-07
    688    690   2   0.50000     0.0600000    0.0600000   6.128906e-05  1.496315e-08
    688    691   2   0.50000     0.0600000    0.0600000   6.128906e-05  1.496315e-08
    689    675   2   0.50000     0.0600000   -0.1200000   2.494471e-04  1.671101e-07
    689    690   2   0.50000     0.0600000    0.0600000   6.128906e-05  1.496315e-08
    689    691   2   0.50000     0.0600000    0.0600000   6.128906e-05  1.496315e-08
    673    676   2   0.50000    -0.1200000   -0.1200000   1.015252e-03  1.866303e-06
    673    692   2   0.50000    -0.1200000    0.0600000   2.494471e-04  1.671101e-07
    673    693   2   0.50000    -0.1200000    0.0600000   2.494471e-04  1.671101e-07
    690    676   2   0.50000     0.0600000   -0.1200000   2.494471e-04  1.671101e-07
    690    692   2   0.50000     0.0600000    0.0600000   6.128906e-05  1.496315e-08
    690    693   2   0.50000     0.0600000    0.0600000   6.128906e-05  1.496315e-08
    691    676   2   0.50000     0.0600000   -0.1200000   2.494471e-04  1.671101e-07
    691    692   2   0.50000     0.0600000    0.0600000   6.128906e-05  1.496315e-08
    691    693   2   0.50000     0.0600000    0.0600000   6.128906e-05  1.496315e-08
    674    677   2   0.50000    -0.1200000   -0.1200000   1.015252e-03  1.866303e-06
    674    694   2   0.50000    -0.1200000    0.0600000   2.494471e-04  1.671101e-07
    674    695   2   0.50000    -0.1200000    0.0600000   2.494471e-04  1.671101e-07
    692    677   2   0.50000     0.0600000   -0.1200000   2.494471e-04  1.671101e-07
    692    694   2   0.50000     0.0600000    0.0600000   6.128906e-05  1.496315e-08
    692    695   2   0.50000     0.0600000    0.0600000   6.128906e-05  1.496315e-08
    693    677   2   0.50000     0.0600000   -0.1200000   2.494471e-04  1.671101e-07
    693    694   2   0.50000     0.0600000    0.0600000   6.128906e-05  1.496315e-08
    693    695   2   0.50000     0.0600000    0.0600000   6.128906e-05  1.496315e-08
    675    678   2   0.50000    -0.1200000   -0.1200000   1.015252e-03  1.866303e-06
    675    696   2   0.50000    -0.1200000    0.0600000   2.494471e-04  1.671101e-07
    675    697   2   0.50000    -0.1200000    0.0600000   2.494471e-04  1.671101e-07
    694    678   2   0.50000     0.0600000   -0.1200000   2.494471e-04  1.671101e-07
    694    696   2   0.50000     0.0600000    0.0600000   6.128906e-05  1.496315e-08
    694    697   2   0.50000     0.0600000    0.0600000   6.128906e-05  1.496315e-08
    695    678   2   0.50000     0.0600000   -0.1200000   2.494471e-04  1.671101e-07
    695    696   2   0.50000     0.0600000    0.0600000   6.128906e-05  1.496315e-08
    695    697   2   0.50000     0.0600000    0.0600000   6.128906e-05  1.496315e-08
    676    679   2   0.50000    -0.1200000   -0.1200000   1.015252e-03  1.866303e-06
    676    698   2   0.50000    -0.1200000    0.0600000   2.494471e-04  1.671101e-07
    676    699   2   0.50000    -0.1200000    0.0600000   2.494471e-04  1.671101e-07
    696    679   2   0.50000     0.0600000   -0.1200000   2.494471e-04  1.671101e-07
    696    698   2   0.50000     0.0600000    0.0600000   6.128906e-05  1.496315e-08
    696    699   2   0.50000     0.0600000    0.0600000   6.128906e-05  1.496315e-08
    697    679   2   0.50000     0.0600000   -0.1200000   2.494471e-04  1.671101e-07
    697    698   2   0.50000     0.0600000    0.0600000   6.128906e-05  1.496315e-08
    697    699   2   0.50000     0.0600000    0.0600000   6.128906e-05  1.496315e-08
    677    680   2   0.50000    -0.1200000    0.0800000   1.015252e-03  1.866303e-06
    677    700   2   0.50000    -0.1200000    0.0600000   2.494471e-04  1.671101e-07
    677    701   2   0.50000    -0.1200000    0.0600000   2.494471e-04  1.671101e-07
    698    680   2   0.50000     0.0600000    0.0800000   2.494471e-04  1.671101e-07
    698    700   2   0.50000     0.0600000    0.0600000   6.128906e-05  1.496315e-08
    698    701   2   0.50000     0.0600000    0.0600000   6.128906e-05  1.496315e-08
    699    680   2   0.50000     0.0600000    0.0800000   2.494471e-04  1.671101e-07
    699    700   2   0.50000     0.0600000    0.0600000   6.128906e-05  1.496315e-08
    699    701   2   0.50000     0.0600000    0.0600000   6.128906e-05  1.496315e-08
    678    681   2   0.50000    -0.1200000   -0.5000000   1.304585e-03  1.920112e-06
    678    702   2   0.50000    -0.1200000    0.0600000   2.494471e-04  1.671101e-07
    678    703   2   0.50000    -0.1200000    0.0600000   2.494471e-04  1.671101e-07
    700    681   2   0.50000     0.0600000   -0.5000000   3.205360e-04  1.719281e-07
    700    702   2   0.50000     0.0600000    0.0600000   6.128906e-05  1.496315e-08
    700    703   2   0.50000     0.0600000    0.0600000   6.128906e-05  1.496315e-08
    701    681   2   0.50000     0.0600000   -0.5000000   3.205360e-04  1.719281e-07
    701    702   2   0.50000     0.0600000    0.0600000   6.128906e-05  1.496315e-08
    701    703   2   0.50000     0.0600000    0.0600000   6.128906e-05  1.496315e-08
    679    704   2   0.50000    -0.1200000    0.3000000   1.995577e-06  1.069504e-11
    679    705   2   0.50000    -0.1200000    0.5000000   1.575021e-03  3.561100e-06
    702    704   2   0.50000     0.0600000    0.3000000   4.903125e-07  9.576416e-13
    702    705   2   0.50000     0.0600000    0.5000000   3.869820e-04  3.188634e-07
    703    704   2   0.50000     0.0600000    0.3000000   4.903125e-07  9.576416e-13
    703    705   2   0.50000     0.0600000    0.5000000   3.869820e-04  3.188634e-07
    680    706   2   0.50000     0.0800000   -0.5000000   1.095425e-03  1.218041e-06
    680    707   2   0.50000     0.0800000   -0.1200000   1.015252e-03  1.866303e-06
    704    706   2   0.50000     0.3000000   -0.5000000   2.153164e-06  6.980110e-12
    704    707   2   0.50000     0.3000000   -0.1200000   1.995577e-06  1.069504e-11
    681    708   2   0.50000    -0.5000000   -0.1200000   1.304585e-03  1.920112e-06
    681    719   2   0.50000    -0.5000000    0.0600000   3.205360e-04  1.719281e-07
    681    720   2   0.50000    -0.5000000    0.0600000   3.205360e-04  1.719281e-07
    706    708   2   0.50000    -0.5000000   -0.1200000   1.095425e-03  1.218041e-06
    706    719   2   0.50000    -0.5000000    0.0600000   2.691455e-04  1.090642e-07
    706    720   2   0.50000    -0.5000000    0.0600000   2.691455e-04  1.090642e-07
    705    709   2   0.50000     0.5000000   -0.1200000   1.575021e-03  3.561100e-06
    705    721   2   0.50000     0.5000000    0.0600000   3.869820e-04  3.188634e-07
    705    722   2   0.50000     0.5000000    0.0600000   3.869820e-04  3.188634e-07
    719    709   2   0.50000     0.0600000   -0.1200000   2.494471e-04  1.671101e-07
    719    721   2   0.50000     0.0600000    0.0600000   6.128906e-05  1.496315e-08
    719    722   2   0.50000     0.0600000    0.0600000   6.128906e-05  1.496315e-08
    720    709   2   0.50000     0.0600000   -0.1200000   2.494471e-04  1.671101e-07
    720    721   2   0.50000     0.0600000    0.0600000   6.128906e-05  1.496315e-08
    720    722   2   0.50000     0.0600000    0.0600000   6.128906e-05  1.496315e-08
    707    710   2   0.50000    -0.1200000   -0.1200000   1.015252e-03  1.866303e-06
    707    723   2   0.50000    -0.1200000    0.0600000   2.494471e-04  1.671101e-07
    707    724   2   0.50000    -0.1200000    0.0600000   2.494471e-04  1.671101e-07
    721    710   2   0.50000     0.0600000   -0.1200000   2.494471e-04  1.671101e-07
    721    723   2   0.50000     0.0600000    0.0600000   6.128906e-05  1.496315e-08
    721    724   2   0.50000     0.0600000    0.0600000   6.128906e-05  1.496315e-08
    722    710   2   0.50000     0.0600000   -0.1200000   2.494471e-04  1.671101e-07
    722    723   2   0.50000     0.0600000    0.0600000   6.128906e-05  1.496315e-08
    722    724   2   0.50000     0.0600000    0.0600000   6.128906e-05  1.496315e-08
    708    711   2   0.50000    -0.1200000   -0.1200000   1.015252e-03  1.866303e-06
    708    725   2   0.50000    -0.1200000    0.0600000   2.494471e-04  1.671101e-07
    708    726   2   0.50000    -0.1200000    0.0600000   2.494471e-04  1.671101e-07
    723    711   2   0.50000     0.0600000   -0.1200000   2.494471e-04  1.671101e-07
    723    725   2   0.50000     0.0600000    0.0600000   6.128906e-05  1.496315e-08
    723    726   2   0.50000     0.0600000    0.0600000   6.128906e-05  1.496315e-08
    724    711   2   0.50000     0.0600000   -0.1200000   2.494471e-04  1.671101e-07
    724    725   2   0.50000     0.0600000    0.0600000   6.128906e-05  1.496315e-08
    724    726   2   0.50000     0.0600000    0.0600000   6.128906e-05  1.496315e-08
    709    712   2   0.50000    -0.1200000   -0.1200000   1.015252e-03  1.866303e-06
    709    727   2   0.50000    -0.1200000    0.0600000   2.494471e-04  1.671101e-07
    709    728   2   0.50000    -0.1200000    0.0600000   2.494471e-04  1.671101e-07
    725    712   2   0.50000     0.0600000   -0.1200000   2.494471e-04  1.671101e-07
    725    727   2   0.50000     0.0600000    0.0600000   6.128906e-05  1.496315e-08
    725    728   2   0.50000     0.0600000    0.0600000   6.128906e-05  1.496315e-08
    726    712   2   0.50000     0.0600000   -0.1200000   2.494471e-04  1.671101e-07
    726    727   2   0.50000     0.0600000    0.0600000   6.128906e-05  1.496315e-08
    726    728   2   0.50000     0.0600000    0.0600000   6.128906e-05  1.496315e-08
    710    713   2   0.50000    -0.1200000   -0.1200000   1.015252e-03  1.866303e-06
    710    729   2   0.50000    -0.1200000    0.0600000   2.494471e-04  1.671101e-07
    710    730   2   0.50000    -0.1200000    0.0600000   2.494471e-04  1.671101e-07
    727    713   2   0.50000     0.0600000   -0.1200000   2.494471e-04  1.671101e-07
    727    729   2   0.50000     0.0600000    0.0600000   6.128906e-05  1.496315e-08
    727    730   2   0.50000     0.0600000    0.0600000   6.128906e-05  1.496315e-08
    728    713   2   0.50000     0.0600000   -0.1200000   2.494471e-04  1.671101e-07
    728    729   2   0.50000     0.0600000    0.0600000   6.128906e-05  1.496315e-08
    728    730   2   0.50000     0.0600000    0.0600000   6.128906e-05  1.496315e-08
    711    714   2   0.50000    -0.1200000   -0.1200000   1.015252e-03  1.866303e-06
    711    731   2   0.50000    -0.1200000    0.0600000   2.494471e-04  1.671101e-07
    711    732   2   0.50000    -0.1200000    0.0600000   2.494471e-04  1.671101e-07
    729    714   2   0.50000     0.0600000   -0.1200000   2.494471e-04  1.671101e-07
    729    731   2   0.50000     0.0600000    0.0600000   6.128906e-05  1.496315e-08
    729    732   2   0.50000     0.0600000    0.0600000   6.128906e-05  1.496315e-08
    730    714   2   0.50000     0.0600000   -0.1200000   2.494471e-04  1.671101e-07
    730    731   2   0.50000     0.0600000    0.0600000   6.128906e-05  1.496315e-08
    730    732   2   0.50000     0.0600000    0.0600000   6.128906e-05  1.496315e-08
    712    715   2   0.50000    -0.1200000   -0.1200000   1.015252e-03  1.866303e-06
    712    733   2   0.50000    -0.1200000    0.0600000   2.494471e-04  1.671101e-07
    712    734   2   0.50000    -0.1200000    0.0600000   2.494471e-04  1.671101e-07
    731    715   2   0.50000     0.0600000   -0.1200000   2.494471e-04  1.671101e-07
    731    733   2   0.50000     0.0600000    0.0600000   6.128906e-05  1.496315e-08
    731    734   2   0.50000     0.0600000    0.0600000   6.128906e-05  1.496315e-08
    732    715   2   0.50000     0.0600000   -0.1200000   2.494471e-04  1.671101e-07
    732    733   2   0.50000     0.0600000    0.0600000   6.128906e-05  1.496315e-08
    732    734   2   0.50000     0.0600000    0.0600000   6.128906e-05  1.496315e-08
    713    716   2   0.50000    -0.1200000   -0.1200000   1.015252e-03  1.866303e-06
    713    735   2   0.50000    -0.1200000    0.0600000   2.494471e-04  1.671101e-07
    713    736   2   0.50000    -0.1200000    0.0600000   2.494471e-04  1.671101e-07
    733    716   2   0.50000     0.0600000   -0.1200000   2.494471e-04  1.671101e-07
    733    735   2   0.50000     0.0600000    0.0600000   6.128906e-05  1.496315e-08
    733    736   2   0.50000     0.0600000    0.0600000   6.128906e-05  1.496315e-08
    734    716   2   0.50000     0.0600000   -0.1200000   2.494471e-04  1.671101e-07
    734    735   2   0.50000     0.0600000    0.0600000   6.128906e-05  1.496315e-08
    734    736   2   0.50000     0.0600000    0.0600000   6.128906e-05  1.496315e-08
    714    717   2   0.50000    -0.1200000    0.0600000   1.015252e-03  1.866303e-06
    714    737   2   0.50000    -0.1200000    0.0600000   2.494471e-04  1.671101e-07
    714    738   2   0.50000    -0.1200000    0.0600000   2.494471e-04  1.671101e-07
    735    717   2   0.50000     0.0600000    0.0600000   2.494471e-04  1.671101e-07
    735    737   2   0.50000     0.0600000    0.0600000   6.128906e-05  1.496315e-08
    735    738   2   0.50000     0.0600000    0.0600000   6.128906e-05  1.496315e-08
    736    717   2   0.50000     0.0600000    0.0600000   2.494471e-04  1.671101e-07
    736    737   2   0.50000     0.0600000    0.0600000   6.128906e-05  1.496315e-08
    736    738   2   0.50000     0.0600000    0.0600000   6.128906e-05  1.496315e-08
    715    718   2   0.50000    -0.1200000   -0.9000000   1.365727e-03  2.104311e-06
    715    739   2   0.50000    -0.1200000    0.0600000   1.763857e-04  1.181647e-07
    715    740   2   0.50000    -0.1200000    0.0600000   1.763857e-04  1.181647e-07
    737    718   2   0.50000     0.0600000   -0.9000000   3.355588e-04  1.884215e-07
    737    739   2   0.50000     0.0600000    0.0600000   4.333791e-05  1.058054e-08
    737    740   2   0.50000     0.0600000    0.0600000   4.333791e-05  1.058054e-08
    738    718   2   0.50000     0.0600000   -0.9000000   3.355588e-04  1.884215e-07
    738    739   2   0.50000     0.0600000    0.0600000   4.333791e-05  1.058054e-08
    738    740   2   0.50000     0.0600000    0.0600000   4.333791e-05  1.058054e-08
    716    741   2   0.50000    -0.1200000    0.3600000   1.995577e-06  1.069504e-11
    716    742   2   0.50000    -0.1200000    0.3600000   1.995577e-06  1.069504e-11
    739    741   2   0.50000     0.0600000    0.3600000   3.467033e-07  6.771549e-13
    739    742   2   0.50000     0.0600000    0.3600000   3.467033e-07  6.771549e-13
    740    741   2   0.50000     0.0600000    0.3600000   3.467033e-07  6.771549e-13
    740    742   2   0.50000     0.0600000    0.3600000   3.467033e-07  6.771549e-13

[ angles ]
; ai  aj  ak
      2      1      3   1    120.4000    669.4400
      2      1     38   1    123.0000    292.8800
      3      1     38   1    115.0000    292.8800
      1      3      4   1    111.1000    527.1840
      1      3     15   1    109.5000    292.8800
      1      3     16   1    109.5000    292.8800
      4      3     15   1    110.7000    313.8000
      4      3     16   1    110.7000    313.8000
     15      3     16   1    107.8000    276.1440
      3      4      5   1    112.7000    488.2728
      3      4     17   1    110.7000    313.8000
      3      4     18   1    110.7000    313.8000
      5      4     17   1    110.7000    313.8000
      5      4     18   1    110.7000    313.8000
     17      4     18   1    107.8000    276.1440
      4      5      6   1    112.7000    488.2728
      4      5     19   1    110.7000    313.8000
      4      5     20   1    110.7000    313.8000
      6      5     19   1    110.7000    313.8000
      6      5     20   1    110.7000    313.8000
     19      5     20   1    107.8000    276.1440
      5      6      7   1    112.7000    488.2728
      5      6     21   1    110.7000    313.8000
      5      6     22   1    110.7000    313.8000
      7      6     21   1    110.7000    313.8000
      7      6     22   1    110.7000    313.8000
     21      6     22   1    107.8000    276.1440
      6      7      8   1    112.7000    488.2728
      6      7     23   1    110.7000    313.8000
      6      7     24   1    110.7000    313.8000
      8      7     23   1    110.7000    313.8000
      8      7     24   1    110.7000    313.8000
     23      7     24   1    107.8000    276.1440
      7      8      9   1    112.7000    488.2728
      7      8     25   1    110.7000    313.8000
      7      8     26   1    110.7000    313.8000
      9      8     25   1    110.7000    313.8000
      9      8     26   1    110.7000    313.8000
     25      8     26   1    107.8000    276.1440
      8      9     10   1    112.7000    488.2728
      8      9     27   1    110.7000    313.8000
      8      9     28   1    110.7000    313.8000
     10      9     27   1    110.7000    313.8000
     10      9     28   1    110.7000    313.8000
     27      9     28   1    107.8000    276.1440
      9     10     11   1    112.7000    488.2728
      9     10     29   1    110.7000    313.8000
      9     10     30   1    110.7000    313.8000
     11     10     29   1    110.7000    313.8000
     11     10     30   1    110.7000    313.8000
     29     10     30   1    107.8000    276.1440
     10     11     12   1    112.7000    488.2728
     10     11     31   1    110.7000    313.8000
     10     11     32   1    110.7000    313.8000
     12     11     31   1    110.7000    313.8000
     12     11     32   1    110.7000    313.8000
     31     11     32   1    107.8000    276.1440
     11     12     13   1    112.7000    488.2728
     11     12     33   1    110.7000    313.8000
     11     12     34   1    110.7000    313.8000
     13     12     33   1    110.7000    313.8000
     13     12     34   1    110.7000    313.8000
     33     12     34   1    107.8000    276.1440
     12     13     14   1    110.7230    585.7600
     12     13     35   1    110.7000    313.8000
     12     13     36   1    110.7000    313.8000
     14     13     35   1    109.5000    292.8800
     14     13     36   1    109.5000    292.8800
     35     13     36   1    107.8000    276.1440
     13     14     37   1    118.4000    317.9840
     13     14     39   1    121.9000    418.4000
     37     14     39   1    119.8000    292.8800
     14     39     40   1    122.9000    669.4400
     14     39     41   1    116.6000    585.7600
     40     39     41   1    120.4000    669.4400
     39     41     42   1    111.1000    527.1840
     39     41     53   1    109.5000    292.8800
     39     41     54   1    109.5000    292.8800
     42     41     53   1    110.7000    313.8000
     42     41     54   1    110.7000    313.8000
     53     41     54   1    107.8000    276.1440
     41     42     43   1    112.7000    488.2728
     41     42     55   1    110.7000    313.8000
     41     42     56   1    110.7000    313.8000
     43     42     55   1    110.7000    313.8000
     43     42     56   1    110.7000    313.8000
     55     42     56   1    107.8000    276.1440
     42     43     44   1    112.7000    488.2728
     42     43     57   1    110.7000    313.8000
     42     43     58   1    110.7000    313.8000
     44     43     57   1    110.7000    313.8000
     44     43     58   1    110.7000    313.8000
     57     43     58   1    107.8000    276.1440
     43     44     45   1    112.7000    488.2728
     43     44     59   1    110.7000    313.8000
     43     44     60   1    110.7000    313.8000
     45     44     59   1    110.7000    313.8000
     45     44     60   1    110.7000    313.8000
     59     44     60   1    107.8000    276.1440
     44     45     46   1    112.7000    488.2728
     44     45     61   1    110.7000    313.8000
     44     45     62   1    110.7000    313.8000
     46     45     61   1    110.7000    313.8000
     46     45     62   1    110.7000    313.8000
     61     45     62   1    107.8000    276.1440
     45     46     47   1    112.7000    488.2728
     45     46     63   1    110.7000    313.8000
     45     46     64   1    110.7000    313.8000
     47     46     63   1    110.7000    313.8000
     47     46     64   1    110.7000    313.8000
     63     46     64   1    107.8000    276.1440
     46     47     48   1    112.7000    488.2728
     46     47     65   1    110.7000    313.8000
     46     47     66   1    110.7000    313.8000
     48     47     65   1    110.7000    313.8000
     48     47     66   1    110.7000    313.8000
     65     47     66   1    107.8000    276.1440
     47     48     49   1    112.7000    488.2728
     47     48     67   1    110.7000    313.8000
     47     48     68   1    110.7000    313.8000
     49     48     67   1    110.7000    313.8000
     49     48     68   1    110.7000    313.8000
     67     48     68   1    107.8000    276.1440
     48     49     50   1    112.7000    488.2728
     48     49     69   1    110.7000    313.8000
     48     49     70   1    110.7000    313.8000
     50     49     69   1    110.7000    313.8000
     50     49     70   1    110.7000    313.8000
     69     49     70   1    107.8000    276.1440
     49     50     51   1    112.7000    488.2728
     49     50     71   1    110.7000    313.8000
     49     50     72   1    110.7000    313.8000
     51     50     71   1    110.7000    313.8000
     51     50     72   1    110.7000    313.8000
     71     50     72   1    107.8000    276.1440
     50     51     52   1    110.7230    585.7600
     50     51     73   1    110.7000    313.8000
     50     51     74   1    110.7000    313.8000
     52     51     73   1    109.5000    292.8800
     52     51     74   1    109.5000    292.8800
     73     51     74   1    107.8000    276.1440
     51     52     75   1    118.4000    317.9840
     51     52     76   1    121.9000    418.4000
     75     52     76   1    119.8000    292.8800
     52     76     77   1    122.9000    669.4400
     52     76     78   1    116.6000    585.7600
     77     76     78   1    120.4000    669.4400
     76     78     79   1    111.1000    527.1840
     76     78     90   1    109.5000    292.8800
     76     78     91   1    109.5000    292.8800
     79     78     90   1    110.7000    313.8000
     79     78     91   1    110.7000    313.8000
     90     78     91   1    107.8000    276.1440
     78     79     80   1    112.7000    488.2728
     78     79     92   1    110.7000    313.8000
     78     79     93   1    110.7000    313.8000
     80     79     92   1    110.7000    313.8000
     80     79     93   1    110.7000    313.8000
     92     79     93   1    107.8000    276.1440
     79     80     81   1    112.7000    488.2728
     79     80     94   1    110.7000    313.8000
     79     80     95   1    110.7000    313.8000
     81     80     94   1    110.7000    313.8000
     81     80     95   1    110.7000    313.8000
     94     80     95   1    107.8000    276.1440
     80     81     82   1    112.7000    488.2728
     80     81     96   1    110.7000    313.8000
     80     81     97   1    110.7000    313.8000
     82     81     96   1    110.7000    313.8000
     82     81     97   1    110.7000    313.8000
     96     81     97   1    107.8000    276.1440
     81     82     83   1    112.7000    488.2728
     81     82     98   1    110.7000    313.8000
     81     82     99   1    110.7000    313.8000
     83     82     98   1    110.7000    313.8000
     83     82     99   1    110.7000    313.8000
     98     82     99   1    107.8000    276.1440
     82     83     84   1    112.7000    488.2728
     82     83    100   1    110.7000    313.8000
     82     83    101   1    110.7000    313.8000
     84     83    100   1    110.7000    313.8000
     84     83    101   1    110.7000    313.8000
    100     83    101   1    107.8000    276.1440
     83     84     85   1    112.7000    488.2728
     83     84    102   1    110.7000    313.8000
     83     84    103   1    110.7000    313.8000
     85     84    102   1    110.7000    313.8000
     85     84    103   1    110.7000    313.8000
    102     84    103   1    107.8000    276.1440
     84     85     86   1    112.7000    488.2728
     84     85    104   1    110.7000    313.8000
     84     85    105   1    110.7000    313.8000
     86     85    104   1    110.7000    313.8000
     86     85    105   1    110.7000    313.8000
    104     85    105   1    107.8000    276.1440
     85     86     87   1    112.7000    488.2728
     85     86    106   1    110.7000    313.8000
     85     86    107   1    110.7000    313.8000
     87     86    106   1    110.7000    313.8000
     87     86    107   1    110.7000    313.8000
    106     86    107   1    107.8000    276.1440
     86     87     88   1    112.7000    488.2728
     86     87    108   1    110.7000    313.8000
     86     87    109   1    110.7000    313.8000
     88     87    108   1    110.7000    313.8000
     88     87    109   1    110.7000    313.8000
    108     87    109   1    107.8000    276.1440
     87     88     89   1    110.7230    585.7600
     87     88    110   1    110.7000    313.8000
     87     88    111   1    110.7000    313.8000
     89     88    110   1    109.5000    292.8800
     89     88    111   1    109.5000    292.8800
    110     88    111   1    107.8000    276.1440
     88     89    112   1    118.4000    317.9840
     88     89    113   1    121.9000    418.4000
    112     89    113   1    119.8000    292.8800
     89    113    114   1    122.9000    669.4400
     89    113    115   1    116.6000    585.7600
    114    113    115   1    120.4000    669.4400
    113    115    116   1    111.1000    527.1840
    113    115    127   1    109.5000    292.8800
    113    115    128   1    109.5000    292.8800
    116    115    127   1    110.7000    313.8000
    116    115    128   1    110.7000    313.8000
    127    115    128   1    107.8000    276.1440
    115    116    117   1    112.7000    488.2728
    115    116    129   1    110.7000    313.8000
    115    116    130   1    110.7000    313.8000
    117    116    129   1    110.7000    313.8000
    117    116    130   1    110.7000    313.8000
    129    116    130   1    107.8000    276.1440
    116    117    118   1    112.7000    488.2728
    116    117    131   1    110.7000    313.8000
    116    117    132   1    110.7000    313.8000
    118    117    131   1    110.7000    313.8000
    118    117    132   1    110.7000    313.8000
    131    117    132   1    107.8000    276.1440
    117    118    119   1    112.7000    488.2728
    117    118    133   1    110.7000    313.8000
    117    118    134   1    110.7000    313.8000
    119    118    133   1    110.7000    313.8000
    119    118    134   1    110.7000    313.8000
    133    118    134   1    107.8000    276.1440
    118    119    120   1    112.7000    488.2728
    118    119    135   1    110.7000    313.8000
    118    119    136   1    110.7000    313.8000
    120    119    135   1    110.7000    313.8000
    120    119    136   1    110.7000    313.8000
    135    119    136   1    107.8000    276.1440
    119    120    121   1    112.7000    488.2728
    119    120    137   1    110.7000    313.8000
    119    120    138   1    110.7000    313.8000
    121    120    137   1    110.7000    313.8000
    121    120    138   1    110.7000    313.8000
    137    120    138   1    107.8000    276.1440
    120    121    122   1    112.7000    488.2728
    120    121    139   1    110.7000    313.8000
    120    121    140   1    110.7000    313.8000
    122    121    139   1    110.7000    313.8000
    122    121    140   1    110.7000    313.8000
    139    121    140   1    107.8000    276.1440
    121    122    123   1    112.7000    488.2728
    121    122    141   1    110.7000    313.8000
    121    122    142   1    110.7000    313.8000
    123    122    141   1    110.7000    313.8000
    123    122    142   1    110.7000    313.8000
    141    122    142   1    107.8000    276.1440
    122    123    124   1    112.7000    488.2728
    122    123    143   1    110.7000    313.8000
    122    123    144   1    110.7000    313.8000
    124    123    143   1    110.7000    313.8000
    124    123    144   1    110.7000    313.8000
    143    123    144   1    107.8000    276.1440
    123    124    125   1    112.7000    488.2728
    123    124    145   1    110.7000    313.8000
    123    124    146   1    110.7000    313.8000
    125    124    145   1    110.7000    313.8000
    125    124    146   1    110.7000    313.8000
    145    124    146   1    107.8000    276.1440
    124    125    126   1    110.7230    585.7600
    124    125    147   1    110.7000    313.8000
    124    125    148   1    110.7000    313.8000
    126    125    147   1    109.5000    292.8800
    126    125    148   1    109.5000    292.8800
    147    125    148   1    107.8000    276.1440
    125    126    149   1    118.4000    317.9840
    125    126    150   1    121.9000    418.4000
    149    126    150   1    119.8000    292.8800
    126    150    151   1    122.9000    669.4400
    126    150    152   1    116.6000    585.7600
    151    150    152   1    120.4000    669.4400
    150    152    153   1    111.1000    527.1840
    150    152    164   1    109.5000    292.8800
    150    152    165   1    109.5000    292.8800
    153    152    164   1    110.7000    313.8000
    153    152    165   1    110.7000    313.8000
    164    152    165   1    107.8000    276.1440
    152    153    154   1    112.7000    488.2728
    152    153    166   1    110.7000    313.8000
    152    153    167   1    110.7000    313.8000
    154    153    166   1    110.7000    313.8000
    154    153    167   1    110.7000    313.8000
    166    153    167   1    107.8000    276.1440
    153    154    155   1    112.7000    488.2728
    153    154    168   1    110.7000    313.8000
    153    154    169   1    110.7000    313.8000
    155    154    168   1    110.7000    313.8000
    155    154    169   1    110.7000    313.8000
    168    154    169   1    107.8000    276.1440
    154    155    156   1    112.7000    488.2728
    154    155    170   1    110.7000    313.8000
    154    155    171   1    110.7000    313.8000
    156    155    170   1    110.7000    313.8000
    156    155    171   1    110.7000    313.8000
    170    155    171   1    107.8000    276.1440
    155    156    157   1    112.7000    488.2728
    155    156    172   1    110.7000    313.8000
    155    156    173   1    110.7000    313.8000
    157    156    172   1    110.7000    313.8000
    157    156    173   1    110.7000    313.8000
    172    156    173   1    107.8000    276.1440
    156    157    158   1    112.7000    488.2728
    156    157    174   1    110.7000    313.8000
    156    157    175   1    110.7000    313.8000
    158    157    174   1    110.7000    313.8000
    158    157    175   1    110.7000    313.8000
    174    157    175   1    107.8000    276.1440
    157    158    159   1    112.7000    488.2728
    157    158    176   1    110.7000    313.8000
    157    158    177   1    110.7000    313.8000
    159    158    176   1    110.7000    313.8000
    159    158    177   1    110.7000    313.8000
    176    158    177   1    107.8000    276.1440
    158    159    160   1    112.7000    488.2728
    158    159    178   1    110.7000    313.8000
    158    159    179   1    110.7000    313.8000
    160    159    178   1    110.7000    313.8000
    160    159    179   1    110.7000    313.8000
    178    159    179   1    107.8000    276.1440
    159    160    161   1    112.7000    488.2728
    159    160    180   1    110.7000    313.8000
    159    160    181   1    110.7000    313.8000
    161    160    180   1    110.7000    313.8000
    161    160    181   1    110.7000    313.8000
    180    160    181   1    107.8000    276.1440
    160    161    162   1    112.7000    488.2728
    160    161    182   1    110.7000    313.8000
    160    161    183   1    110.7000    313.8000
    162    161    182   1    110.7000    313.8000
    162    161    183   1    110.7000    313.8000
    182    161    183   1    107.8000    276.1440
    161    162    163   1    110.7230    585.7600
    161    162    184   1    110.7000    313.8000
    161    162    185   1    110.7000    313.8000
    163    162    184   1    109.5000    292.8800
    163    162    185   1    109.5000    292.8800
    184    162    185   1    107.8000    276.1440
    162    163    186   1    118.4000    317.9840
    162    163    187   1    121.9000    418.4000
    186    163    187   1    119.8000    292.8800
    163    187    188   1    122.9000    669.4400
    163    187    189   1    116.6000    585.7600
    188    187    189   1    120.4000    669.4400
    187    189    190   1    111.1000    527.1840
    187    189    201   1    109.5000    292.8800
    187    189    202   1    109.5000    292.8800
    190    189    201   1    110.7000    313.8000
    190    189    202   1    110.7000    313.8000
    201    189    202   1    107.8000    276.1440
    189    190    191   1    112.7000    488.2728
    189    190    203   1    110.7000    313.8000
    189    190    204   1    110.7000    313.8000
    191    190    203   1    110.7000    313.8000
    191    190    204   1    110.7000    313.8000
    203    190    204   1    107.8000    276.1440
    190    191    192   1    112.7000    488.2728
    190    191    205   1    110.7000    313.8000
    190    191    206   1    110.7000    313.8000
    192    191    205   1    110.7000    313.8000
    192    191    206   1    110.7000    313.8000
    205    191    206   1    107.8000    276.1440
    191    192    193   1    112.7000    488.2728
    191    192    207   1    110.7000    313.8000
    191    192    208   1    110.7000    313.8000
    193    192    207   1    110.7000    313.8000
    193    192    208   1    110.7000    313.8000
    207    192    208   1    107.8000    276.1440
    192    193    194   1    112.7000    488.2728
    192    193    209   1    110.7000    313.8000
    192    193    210   1    110.7000    313.8000
    194    193    209   1    110.7000    313.8000
    194    193    210   1    110.7000    313.8000
    209    193    210   1    107.8000    276.1440
    193    194    195   1    112.7000    488.2728
    193    194    211   1    110.7000    313.8000
    193    194    212   1    110.7000    313.8000
    195    194    211   1    110.7000    313.8000
    195    194    212   1    110.7000    313.8000
    211    194    212   1    107.8000    276.1440
    194    195    196   1    112.7000    488.2728
    194    195    213   1    110.7000    313.8000
    194    195    214   1    110.7000    313.8000
    196    195    213   1    110.7000    313.8000
    196    195    214   1    110.7000    313.8000
    213    195    214   1    107.8000    276.1440
    195    196    197   1    112.7000    488.2728
    195    196    215   1    110.7000    313.8000
    195    196    216   1    110.7000    313.8000
    197    196    215   1    110.7000    313.8000
    197    196    216   1    110.7000    313.8000
    215    196    216   1    107.8000    276.1440
    196    197    198   1    112.7000    488.2728
    196    197    217   1    110.7000    313.8000
    196    197    218   1    110.7000    313.8000
    198    197    217   1    110.7000    313.8000
    198    197    218   1    110.7000    313.8000
    217    197    218   1    107.8000    276.1440
    197    198    199   1    112.7000    488.2728
    197    198    219   1    110.7000    313.8000
    197    198    220   1    110.7000    313.8000
    199    198    219   1    110.7000    313.8000
    199    198    220   1    110.7000    313.8000
    219    198    220   1    107.8000    276.1440
    198    199    200   1    110.7230    585.7600
    198    199    221   1    110.7000    313.8000
    198    199    222   1    110.7000    313.8000
    200    199    221   1    109.5000    292.8800
    200    199    222   1    109.5000    292.8800
    221    199    222   1    107.8000    276.1440
    199    200    223   1    118.4000    317.9840
    199    200    224   1    121.9000    418.4000
    223    200    224   1    119.8000    292.8800
    200    224    225   1    122.9000    669.4400
    200    224    226   1    116.6000    585.7600
    225    224    226   1    120.4000    669.4400
    224    226    227   1    111.1000    527.1840
    224    226    238   1    109.5000    292.8800
    224    226    239   1    109.5000    292.8800
    227    226    238   1    110.7000    313.8000
    227    226    239   1    110.7000    313.8000
    238    226    239   1    107.8000    276.1440
    226    227    228   1    112.7000    488.2728
    226    227    240   1    110.7000    313.8000
    226    227    241   1    110.7000    313.8000
    228    227    240   1    110.7000    313.8000
    228    227    241   1    110.7000    313.8000
    240    227    241   1    107.8000    276.1440
    227    228    229   1    112.7000    488.2728
    227    228    242   1    110.7000    313.8000
    227    228    243   1    110.7000    313.8000
    229    228    242   1    110.7000    313.8000
    229    228    243   1    110.7000    313.8000
    242    228    243   1    107.8000    276.1440
    228    229    230   1    112.7000    488.2728
    228    229    244   1    110.7000    313.8000
    228    229    245   1    110.7000    313.8000
    230    229    244   1    110.7000    313.8000
    230    229    245   1    110.7000    313.8000
    244    229    245   1    107.8000    276.1440
    229    230    231   1    112.7000    488.2728
    229    230    246   1    110.7000    313.8000
    229    230    247   1    110.7000    313.8000
    231    230    246   1    110.7000    313.8000
    231    230    247   1    110.7000    313.8000
    246    230    247   1    107.8000    276.1440
    230    231    232   1    112.7000    488.2728
    230    231    248   1    110.7000    313.8000
    230    231    249   1    110.7000    313.8000
    232    231    248   1    110.7000    313.8000
    232    231    249   1    110.7000    313.8000
    248    231    249   1    107.8000    276.1440
    231    232    233   1    112.7000    488.2728
    231    232    250   1    110.7000    313.8000
    231    232    251   1    110.7000    313.8000
    233    232    250   1    110.7000    313.8000
    233    232    251   1    110.7000    313.8000
    250    232    251   1    107.8000    276.1440
    232    233    234   1    112.7000    488.2728
    232    233    252   1    110.7000    313.8000
    232    233    253   1    110.7000    313.8000
    234    233    252   1    110.7000    313.8000
    234    233    253   1    110.7000    313.8000
    252    233    253   1    107.8000    276.1440
    233    234    235   1    112.7000    488.2728
    233    234    254   1    110.7000    313.8000
    233    234    255   1    110.7000    313.8000
    235    234    254   1    110.7000    313.8000
    235    234    255   1    110.7000    313.8000
    254    234    255   1    107.8000    276.1440
    234    235    236   1    112.7000    488.2728
    234    235    256   1    110.7000    313.8000
    234    235    257   1    110.7000    313.8000
    236    235    256   1    110.7000    313.8000
    236    235    257   1    110.7000    313.8000
    256    235    257   1    107.8000    276.1440
    235    236    237   1    110.7230    585.7600
    235    236    258   1    110.7000    313.8000
    235    236    259   1    110.7000    313.8000
    237    236    258   1    109.5000    292.8800
    237    236    259   1    109.5000    292.8800
    258    236    259   1    107.8000    276.1440
    236    237    260   1    118.4000    317.9840
    236    237    261   1    121.9000    418.4000
    260    237    261   1    119.8000    292.8800
    237    261    262   1    122.9000    669.4400
    237    261    263   1    116.6000    585.7600
    262    261    263   1    120.4000    669.4400
    261    263    264   1    111.1000    527.1840
    261    263    275   1    109.5000    292.8800
    261    263    276   1    109.5000    292.8800
    264    263    275   1    110.7000    313.8000
    264    263    276   1    110.7000    313.8000
    275    263    276   1    107.8000    276.1440
    263    264    265   1    112.7000    488.2728
    263    264    277   1    110.7000    313.8000
    263    264    278   1    110.7000    313.8000
    265    264    277   1    110.7000    313.8000
    265    264    278   1    110.7000    313.8000
    277    264    278   1    107.8000    276.1440
    264    265    266   1    112.7000    488.2728
    264    265    279   1    110.7000    313.8000
    264    265    280   1    110.7000    313.8000
    266    265    279   1    110.7000    313.8000
    266    265    280   1    110.7000    313.8000
    279    265    280   1    107.8000    276.1440
    265    266    267   1    112.7000    488.2728
    265    266    281   1    110.7000    313.8000
    265    266    282   1    110.7000    313.8000
    267    266    281   1    110.7000    313.8000
    267    266    282   1    110.7000    313.8000
    281    266    282   1    107.8000    276.1440
    266    267    268   1    112.7000    488.2728
    266    267    283   1    110.7000    313.8000
    266    267    284   1    110.7000    313.8000
    268    267    283   1    110.7000    313.8000
    268    267    284   1    110.7000    313.8000
    283    267    284   1    107.8000    276.1440
    267    268    269   1    112.7000    488.2728
    267    268    285   1    110.7000    313.8000
    267    268    286   1    110.7000    313.8000
    269    268    285   1    110.7000    313.8000
    269    268    286   1    110.7000    313.8000
    285    268    286   1    107.8000    276.1440
    268    269    270   1    112.7000    488.2728
    268    269    287   1    110.7000    313.8000
    268    269    288   1    110.7000    313.8000
    270    269    287   1    110.7000    313.8000
    270    269    288   1    110.7000    313.8000
    287    269    288   1    107.8000    276.1440
    269    270    271   1    112.7000    488.2728
    269    270    289   1    110.7000    313.8000
    269    270    290   1    110.7000    313.8000
    271    270    289   1    110.7000    313.8000
    271    270    290   1    110.7000    313.8000
    289    270    290   1    107.8000    276.1440
    270    271    272   1    112.7000    488.2728
    270    271    291   1    110.7000    313.8000
    270    271    292   1    110.7000    313.8000
    272    271    291   1    110.7000    313.8000
    272    271    292   1    110.7000    313.8000
    291    271    292   1    107.8000    276.1440
    271    272    273   1    112.7000    488.2728
    271    272    293   1    110.7000    313.8000
    271    272    294   1    110.7000    313.8000
    273    272    293   1    110.7000    313.8000
    273    272    294   1    110.7000    313.8000
    293    272    294   1    107.8000    276.1440
    272    273    274   1    110.7230    585.7600
    272    273    295   1    110.7000    313.8000
    272    273    296   1    110.7000    313.8000
    274    273    295   1    109.5000    292.8800
    274    273    296   1    109.5000    292.8800
    295    273    296   1    107.8000    276.1440
    273    274    297   1    118.4000    317.9840
    273    274    298   1    121.9000    418.4000
    297    274    298   1    119.8000    292.8800
    274    298    299   1    122.9000    669.4400
    274    298    300   1    116.6000    585.7600
    299    298    300   1    120.4000    669.4400
    298    300    301   1    111.1000    527.1840
    298    300    312   1    109.5000    292.8800
    298    300    313   1    109.5000    292.8800
    301    300    312   1    110.7000    313.8000
    301    300    313   1    110.7000    313.8000
    312    300    313   1    107.8000    276.1440
    300    301    302   1    112.7000    488.2728
    300    301    314   1    110.7000    313.8000
    300    301    315   1    110.7000    313.8000
    302    301    314   1    110.7000    313.8000
    302    301    315   1    110.7000    313.8000
    314    301    315   1    107.8000    276.1440
    301    302    303   1    112.7000    488.2728
    301    302    316   1    110.7000    313.8000
    301    302    317   1    110.7000    313.8000
    303    302    316   1    110.7000    313.8000
    303    302    317   1    110.7000    313.8000
    316    302    317   1    107.8000    276.1440
    302    303    304   1    112.7000    488.2728
    302    303    318   1    110.7000    313.8000
    302    303    319   1    110.7000    313.8000
    304    303    318   1    110.7000    313.8000
    304    303    319   1    110.7000    313.8000
    318    303    319   1    107.8000    276.1440
    303    304    305   1    112.7000    488.2728
    303    304    320   1    110.7000    313.8000
    303    304    321   1    110.7000    313.8000
    305    304    320   1    110.7000    313.8000
    305    304    321   1    110.7000    313.8000
    320    304    321   1    107.8000    276.1440
    304    305    306   1    112.7000    488.2728
    304    305    322   1    110.7000    313.8000
    304    305    323   1    110.7000    313.8000
    306    305    322   1    110.7000    313.8000
    306    305    323   1    110.7000    313.8000
    322    305    323   1    107.8000    276.1440
    305    306    307   1    112.7000    488.2728
    305    306    324   1    110.7000    313.8000
    305    306    325   1    110.7000    313.8000
    307    306    324   1    110.7000    313.8000
    307    306    325   1    110.7000    313.8000
    324    306    325   1    107.8000    276.1440
    306    307    308   1    112.7000    488.2728
    306    307    326   1    110.7000    313.8000
    306    307    327   1    110.7000    313.8000
    308    307    326   1    110.7000    313.8000
    308    307    327   1    110.7000    313.8000
    326    307    327   1    107.8000    276.1440
    307    308    309   1    112.7000    488.2728
    307    308    328   1    110.7000    313.8000
    307    308    329   1    110.7000    313.8000
    309    308    328   1    110.7000    313.8000
    309    308    329   1    110.7000    313.8000
    328    308    329   1    107.8000    276.1440
    308    309    310   1    112.7000    488.2728
    308    309    330   1    110.7000    313.8000
    308    309    331   1    110.7000    313.8000
    310    309    330   1    110.7000    313.8000
    310    309    331   1    110.7000    313.8000
    330    309    331   1    107.8000    276.1440
    309    310    311   1    110.7230    585.7600
    309    310    332   1    110.7000    313.8000
    309    310    333   1    110.7000    313.8000
    311    310    332   1    109.5000    292.8800
    311    310    333   1    109.5000    292.8800
    332    310    333   1    107.8000    276.1440
    310    311    334   1    118.4000    317.9840
    310    311    335   1    121.9000    418.4000
    334    311    335   1    119.8000    292.8800
    311    335    336   1    122.9000    669.4400
    311    335    337   1    116.6000    585.7600
    336    335    337   1    120.4000    669.4400
    335    337    338   1    111.1000    527.1840
    335    337    349   1    109.5000    292.8800
    335    337    350   1    109.5000    292.8800
    338    337    349   1    110.7000    313.8000
    338    337    350   1    110.7000    313.8000
    349    337    350   1    107.8000    276.1440
    337    338    339   1    112.7000    488.2728
    337    338    351   1    110.7000    313.8000
    337    338    352   1    110.7000    313.8000
    339    338    351   1    110.7000    313.8000
    339    338    352   1    110.7000    313.8000
    351    338    352   1    107.8000    276.1440
    338    339    340   1    112.7000    488.2728
    338    339    353   1    110.7000    313.8000
    338    339    354   1    110.7000    313.8000
    340    339    353   1    110.7000    313.8000
    340    339    354   1    110.7000    313.8000
    353    339    354   1    107.8000    276.1440
    339    340    341   1    112.7000    488.2728
    339    340    355   1    110.7000    313.8000
    339    340    356   1    110.7000    313.8000
    341    340    355   1    110.7000    313.8000
    341    340    356   1    110.7000    313.8000
    355    340    356   1    107.8000    276.1440
    340    341    342   1    112.7000    488.2728
    340    341    357   1    110.7000    313.8000
    340    341    358   1    110.7000    313.8000
    342    341    357   1    110.7000    313.8000
    342    341    358   1    110.7000    313.8000
    357    341    358   1    107.8000    276.1440
    341    342    343   1    112.7000    488.2728
    341    342    359   1    110.7000    313.8000
    341    342    360   1    110.7000    313.8000
    343    342    359   1    110.7000    313.8000
    343    342    360   1    110.7000    313.8000
    359    342    360   1    107.8000    276.1440
    342    343    344   1    112.7000    488.2728
    342    343    361   1    110.7000    313.8000
    342    343    362   1    110.7000    313.8000
    344    343    361   1    110.7000    313.8000
    344    343    362   1    110.7000    313.8000
    361    343    362   1    107.8000    276.1440
    343    344    345   1    112.7000    488.2728
    343    344    363   1    110.7000    313.8000
    343    344    364   1    110.7000    313.8000
    345    344    363   1    110.7000    313.8000
    345    344    364   1    110.7000    313.8000
    363    344    364   1    107.8000    276.1440
    344    345    346   1    112.7000    488.2728
    344    345    365   1    110.7000    313.8000
    344    345    366   1    110.7000    313.8000
    346    345    365   1    110.7000    313.8000
    346    345    366   1    110.7000    313.8000
    365    345    366   1    107.8000    276.1440
    345    346    347   1    112.7000    488.2728
    345    346    367   1    110.7000    313.8000
    345    346    368   1    110.7000    313.8000
    347    346    367   1    110.7000    313.8000
    347    346    368   1    110.7000    313.8000
    367    346    368   1    107.8000    276.1440
    346    347    348   1    110.7230    585.7600
    346    347    369   1    110.7000    313.8000
    346    347    370   1    110.7000    313.8000
    348    347    369   1    109.5000    292.8800
    348    347    370   1    109.5000    292.8800
    369    347    370   1    107.8000    276.1440
    347    348    371   1    118.4000    317.9840
    347    348    372   1    121.9000    418.4000
    371    348    372   1    119.8000    292.8800
    348    372    373   1    122.9000    669.4400
    348    372    374   1    116.6000    585.7600
    373    372    374   1    120.4000    669.4400
    372    374    375   1    111.1000    527.1840
    372    374    386   1    109.5000    292.8800
    372    374    387   1    109.5000    292.8800
    375    374    386   1    110.7000    313.8000
    375    374    387   1    110.7000    313.8000
    386    374    387   1    107.8000    276.1440
    374    375    376   1    112.7000    488.2728
    374    375    388   1    110.7000    313.8000
    374    375    389   1    110.7000    313.8000
    376    375    388   1    110.7000    313.8000
    376    375    389   1    110.7000    313.8000
    388    375    389   1    107.8000    276.1440
    375    376    377   1    112.7000    488.2728
    375    376    390   1    110.7000    313.8000
    375    376    391   1    110.7000    313.8000
    377    376    390   1    110.7000    313.8000
    377    376    391   1    110.7000    313.8000
    390    376    391   1    107.8000    276.1440
    376    377    378   1    112.7000    488.2728
    376    377    392   1    110.7000    313.8000
    376    377    393   1    110.7000    313.8000
    378    377    392   1    110.7000    313.8000
    378    377    393   1    110.7000    313.8000
    392    377    393   1    107.8000    276.1440
    377    378    379   1    112.7000    488.2728
    377    378    394   1    110.7000    313.8000
    377    378    395   1    110.7000    313.8000
    379    378    394   1    110.7000    313.8000
    379    378    395   1    110.7000    313.8000
    394    378    395   1    107.8000    276.1440
    378    379    380   1    112.7000    488.2728
    378    379    396   1    110.7000    313.8000
    378    379    397   1    110.7000    313.8000
    380    379    396   1    110.7000    313.8000
    380    379    397   1    110.7000    313.8000
    396    379    397   1    107.8000    276.1440
    379    380    381   1    112.7000    488.2728
    379    380    398   1    110.7000    313.8000
    379    380    399   1    110.7000    313.8000
    381    380    398   1    110.7000    313.8000
    381    380    399   1    110.7000    313.8000
    398    380    399   1    107.8000    276.1440
    380    381    382   1    112.7000    488.2728
    380    381    400   1    110.7000    313.8000
    380    381    401   1    110.7000    313.8000
    382    381    400   1    110.7000    313.8000
    382    381    401   1    110.7000    313.8000
    400    381    401   1    107.8000    276.1440
    381    382    383   1    112.7000    488.2728
    381    382    402   1    110.7000    313.8000
    381    382    403   1    110.7000    313.8000
    383    382    402   1    110.7000    313.8000
    383    382    403   1    110.7000    313.8000
    402    382    403   1    107.8000    276.1440
    382    383    384   1    112.7000    488.2728
    382    383    404   1    110.7000    313.8000
    382    383    405   1    110.7000    313.8000
    384    383    404   1    110.7000    313.8000
    384    383    405   1    110.7000    313.8000
    404    383    405   1    107.8000    276.1440
    383    384    385   1    110.7230    585.7600
    383    384    406   1    110.7000    313.8000
    383    384    407   1    110.7000    313.8000
    385    384    406   1    109.5000    292.8800
    385    384    407   1    109.5000    292.8800
    406    384    407   1    107.8000    276.1440
    384    385    408   1    118.4000    317.9840
    384    385    409   1    121.9000    418.4000
    408    385    409   1    119.8000    292.8800
    385    409    410   1    122.9000    669.4400
    385    409    411   1    116.6000    585.7600
    410    409    411   1    120.4000    669.4400
    409    411    412   1    111.1000    527.1840
    409    411    423   1    109.5000    292.8800
    409    411    424   1    109.5000    292.8800
    412    411    423   1    110.7000    313.8000
    412    411    424   1    110.7000    313.8000
    423    411    424   1    107.8000    276.1440
    411    412    413   1    112.7000    488.2728
    411    412    425   1    110.7000    313.8000
    411    412    426   1    110.7000    313.8000
    413    412    425   1    110.7000    313.8000
    413    412    426   1    110.7000    313.8000
    425    412    426   1    107.8000    276.1440
    412    413    414   1    112.7000    488.2728
    412    413    427   1    110.7000    313.8000
    412    413    428   1    110.7000    313.8000
    414    413    427   1    110.7000    313.8000
    414    413    428   1    110.7000    313.8000
    427    413    428   1    107.8000    276.1440
    413    414    415   1    112.7000    488.2728
    413    414    429   1    110.7000    313.8000
    413    414    430   1    110.7000    313.8000
    415    414    429   1    110.7000    313.8000
    415    414    430   1    110.7000    313.8000
    429    414    430   1    107.8000    276.1440
    414    415    416   1    112.7000    488.2728
    414    415    431   1    110.7000    313.8000
    414    415    432   1    110.7000    313.8000
    416    415    431   1    110.7000    313.8000
    416    415    432   1    110.7000    313.8000
    431    415    432   1    107.8000    276.1440
    415    416    417   1    112.7000    488.2728
    415    416    433   1    110.7000    313.8000
    415    416    434   1    110.7000    313.8000
    417    416    433   1    110.7000    313.8000
    417    416    434   1    110.7000    313.8000
    433    416    434   1    107.8000    276.1440
    416    417    418   1    112.7000    488.2728
    416    417    435   1    110.7000    313.8000
    416    417    436   1    110.7000    313.8000
    418    417    435   1    110.7000    313.8000
    418    417    436   1    110.7000    313.8000
    435    417    436   1    107.8000    276.1440
    417    418    419   1    112.7000    488.2728
    417    418    437   1    110.7000    313.8000
    417    418    438   1    110.7000    313.8000
    419    418    437   1    110.7000    313.8000
    419    418    438   1    110.7000    313.8000
    437    418    438   1    107.8000    276.1440
    418    419    420   1    112.7000    488.2728
    418    419    439   1    110.7000    313.8000
    418    419    440   1    110.7000    313.8000
    420    419    439   1    110.7000    313.8000
    420    419    440   1    110.7000    313.8000
    439    419    440   1    107.8000    276.1440
    419    420    421   1    112.7000    488.2728
    419    420    441   1    110.7000    313.8000
    419    420    442   1    110.7000    313.8000
    421    420    441   1    110.7000    313.8000
    421    420    442   1    110.7000    313.8000
    441    420    442   1    107.8000    276.1440
    420    421    422   1    110.7230    585.7600
    420    421    443   1    110.7000    313.8000
    420    421    444   1    110.7000    313.8000
    422    421    443   1    109.5000    292.8800
    422    421    444   1    109.5000    292.8800
    443    421    444   1    107.8000    276.1440
    421    422    445   1    118.4000    317.9840
    421    422    446   1    121.9000    418.4000
    445    422    446   1    119.8000    292.8800
    422    446    447   1    122.9000    669.4400
    422    446    448   1    116.6000    585.7600
    447    446    448   1    120.4000    669.4400
    446    448    449   1    111.1000    527.1840
    446    448    460   1    109.5000    292.8800
    446    448    461   1    109.5000    292.8800
    449    448    460   1    110.7000    313.8000
    449    448    461   1    110.7000    313.8000
    460    448    461   1    107.8000    276.1440
    448    449    450   1    112.7000    488.2728
    448    449    462   1    110.7000    313.8000
    448    449    463   1    110.7000    313.8000
    450    449    462   1    110.7000    313.8000
    450    449    463   1    110.7000    313.8000
    462    449    463   1    107.8000    276.1440
    449    450    451   1    112.7000    488.2728
    449    450    464   1    110.7000    313.8000
    449    450    465   1    110.7000    313.8000
    451    450    464   1    110.7000    313.8000
    451    450    465   1    110.7000    313.8000
    464    450    465   1    107.8000    276.1440
    450    451    452   1    112.7000    488.2728
    450    451    466   1    110.7000    313.8000
    450    451    467   1    110.7000    313.8000
    452    451    466   1    110.7000    313.8000
    452    451    467   1    110.7000    313.8000
    466    451    467   1    107.8000    276.1440
    451    452    453   1    112.7000    488.2728
    451    452    468   1    110.7000    313.8000
    451    452    469   1    110.7000    313.8000
    453    452    468   1    110.7000    313.8000
    453    452    469   1    110.7000    313.8000
    468    452    469   1    107.8000    276.1440
    452    453    454   1    112.7000    488.2728
    452    453    470   1    110.7000    313.8000
    452    453    471   1    110.7000    313.8000
    454    453    470   1    110.7000    313.8000
    454    453    471   1    110.7000    313.8000
    470    453    471   1    107.8000    276.1440
    453    454    455   1    112.7000    488.2728
    453    454    472   1    110.7000    313.8000
    453    454    473   1    110.7000    313.8000
    455    454    472   1    110.7000    313.8000
    455    454    473   1    110.7000    313.8000
    472    454    473   1    107.8000    276.1440
    454    455    456   1    112.7000    488.2728
    454    455    474   1    110.7000    313.8000
    454    455    475   1    110.7000    313.8000
    456    455    474   1    110.7000    313.8000
    456    455    475   1    110.7000    313.8000
    474    455    475   1    107.8000    276.1440
    455    456    457   1    112.7000    488.2728
    455    456    476   1    110.7000    313.8000
    455    456    477   1    110.7000    313.8000
    457    456    476   1    110.7000    313.8000
    457    456    477   1    110.7000    313.8000
    476    456    477   1    107.8000    276.1440
    456    457    458   1    112.7000    488.2728
    456    457    478   1    110.7000    313.8000
    456    457    479   1    110.7000    313.8000
    458    457    478   1    110.7000    313.8000
    458    457    479   1    110.7000    313.8000
    478    457    479   1    107.8000    276.1440
    457    458    459   1    110.7230    585.7600
    457    458    480   1    110.7000    313.8000
    457    458    481   1    110.7000    313.8000
    459    458    480   1    109.5000    292.8800
    459    458    481   1    109.5000    292.8800
    480    458    481   1    107.8000    276.1440
    458    459    482   1    118.4000    317.9840
    458    459    483   1    121.9000    418.4000
    482    459    483   1    119.8000    292.8800
    459    483    484   1    122.9000    669.4400
    459    483    485   1    116.6000    585.7600
    484    483    485   1    120.4000    669.4400
    483    485    486   1    111.1000    527.1840
    483    485    497   1    109.5000    292.8800
    483    485    498   1    109.5000    292.8800
    486    485    497   1    110.7000    313.8000
    486    485    498   1    110.7000    313.8000
    497    485    498   1    107.8000    276.1440
    485    486    487   1    112.7000    488.2728
    485    486    499   1    110.7000    313.8000
    485    486    500   1    110.7000    313.8000
    487    486    499   1    110.7000    313.8000
    487    486    500   1    110.7000    313.8000
    499    486    500   1    107.8000    276.1440
    486    487    488   1    112.7000    488.2728
    486    487    501   1    110.7000    313.8000
    486    487    502   1    110.7000    313.8000
    488    487    501   1    110.7000    313.8000
    488    487    502   1    110.7000    313.8000
    501    487    502   1    107.8000    276.1440
    487    488    489   1    112.7000    488.2728
    487    488    503   1    110.7000    313.8000
    487    488    504   1    110.7000    313.8000
    489    488    503   1    110.7000    313.8000
    489    488    504   1    110.7000    313.8000
    503    488    504   1    107.8000    276.1440
    488    489    490   1    112.7000    488.2728
    488    489    505   1    110.7000    313.8000
    488    489    506   1    110.7000    313.8000
    490    489    505   1    110.7000    313.8000
    490    489    506   1    110.7000    313.8000
    505    489    506   1    107.8000    276.1440
    489    490    491   1    112.7000    488.2728
    489    490    507   1    110.7000    313.8000
    489    490    508   1    110.7000    313.8000
    491    490    507   1    110.7000    313.8000
    491    490    508   1    110.7000    313.8000
    507    490    508   1    107.8000    276.1440
    490    491    492   1    112.7000    488.2728
    490    491    509   1    110.7000    313.8000
    490    491    510   1    110.7000    313.8000
    492    491    509   1    110.7000    313.8000
    492    491    510   1    110.7000    313.8000
    509    491    510   1    107.8000    276.1440
    491    492    493   1    112.7000    488.2728
    491    492    511   1    110.7000    313.8000
    491    492    512   1    110.7000    313.8000
    493    492    511   1    110.7000    313.8000
    493    492    512   1    110.7000    313.8000
    511    492    512   1    107.8000    276.1440
    492    493    494   1    112.7000    488.2728
    492    493    513   1    110.7000    313.8000
    492    493    514   1    110.7000    313.8000
    494    493    513   1    110.7000    313.8000
    494    493    514   1    110.7000    313.8000
    513    493    514   1    107.8000    276.1440
    493    494    495   1    112.7000    488.2728
    493    494    515   1    110.7000    313.8000
    493    494    516   1    110.7000    313.8000
    495    494    515   1    110.7000    313.8000
    495    494    516   1    110.7000    313.8000
    515    494    516   1    107.8000    276.1440
    494    495    496   1    110.7230    585.7600
    494    495    517   1    110.7000    313.8000
    494    495    518   1    110.7000    313.8000
    496    495    517   1    109.5000    292.8800
    496    495    518   1    109.5000    292.8800
    517    495    518   1    107.8000    276.1440
    495    496    519   1    118.4000    317.9840
    495    496    520   1    121.9000    418.4000
    519    496    520   1    119.8000    292.8800
    496    520    521   1    122.9000    669.4400
    496    520    522   1    116.6000    585.7600
    521    520    522   1    120.4000    669.4400
    520    522    523   1    111.1000    527.1840
    520    522    534   1    109.5000    292.8800
    520    522    535   1    109.5000    292.8800
    523    522    534   1    110.7000    313.8000
    523    522    535   1    110.7000    313.8000
    534    522    535   1    107.8000    276.1440
    522    523    524   1    112.7000    488.2728
    522    523    536   1    110.7000    313.8000
    522    523    537   1    110.7000    313.8000
    524    523    536   1    110.7000    313.8000
    524    523    537   1    110.7000    313.8000
    536    523    537   1    107.8000    276.1440
    523    524    525   1    112.7000    488.2728
    523    524    538   1    110.7000    313.8000
    523    524    539   1    110.7000    313.8000
    525    524    538   1    110.7000    313.8000
    525    524    539   1    110.7000    313.8000
    538    524    539   1    107.8000    276.1440
    524    525    526   1    112.7000    488.2728
    524    525    540   1    110.7000    313.8000
    524    525    541   1    110.7000    313.8000
    526    525    540   1    110.7000    313.8000
    526    525    541   1    110.7000    313.8000
    540    525    541   1    107.8000    276.1440
    525    526    527   1    112.7000    488.2728
    525    526    542   1    110.7000    313.8000
    525    526    543   1    110.7000    313.8000
    527    526    542   1    110.7000    313.8000
    527    526    543   1    110.7000    313.8000
    542    526    543   1    107.8000    276.1440
    526    527    528   1    112.7000    488.2728
    526    527    544   1    110.7000    313.8000
    526    527    545   1    110.7000    313.8000
    528    527    544   1    110.7000    313.8000
    528    527    545   1    110.7000    313.8000
    544    527    545   1    107.8000    276.1440
    527    528    529   1    112.7000    488.2728
    527    528    546   1    110.7000    313.8000
    527    528    547   1    110.7000    313.8000
    529    528    546   1    110.7000    313.8000
    529    528    547   1    110.7000    313.8000
    546    528    547   1    107.8000    276.1440
    528    529    530   1    112.7000    488.2728
    528    529    548   1    110.7000    313.8000
    528    529    549   1    110.7000    313.8000
    530    529    548   1    110.7000    313.8000
    530    529    549   1    110.7000    313.8000
    548    529    549   1    107.8000    276.1440
    529    530    531   1    112.7000    488.2728
    529    530    550   1    110.7000    313.8000
    529    530    551   1    110.7000    313.8000
    531    530    550   1    110.7000    313.8000
    531    530    551   1    110.7000    313.8000
    550    530    551   1    107.8000    276.1440
    530    531    532   1    112.7000    488.2728
    530    531    552   1    110.7000    313.8000
    530    531    553   1    110.7000    313.8000
    532    531    552   1    110.7000    313.8000
    532    531    553   1    110.7000    313.8000
    552    531    553   1    107.8000    276.1440
    531    532    533   1    110.7230    585.7600
    531    532    554   1    110.7000    313.8000
    531    532    555   1    110.7000    313.8000
    533    532    554   1    109.5000    292.8800
    533    532    555   1    109.5000    292.8800
    554    532    555   1    107.8000    276.1440
    532    533    556   1    118.4000    317.9840
    532    533    557   1    121.9000    418.4000
    556    533    557   1    119.8000    292.8800
    533    557    558   1    122.9000    669.4400
    533    557    559   1    116.6000    585.7600
    558    557    559   1    120.4000    669.4400
    557    559    560   1    111.1000    527.1840
    557    559    571   1    109.5000    292.8800
    557    559    572   1    109.5000    292.8800
    560    559    571   1    110.7000    313.8000
    560    559    572   1    110.7000    313.8000
    571    559    572   1    107.8000    276.1440
    559    560    561   1    112.7000    488.2728
    559    560    573   1    110.7000    313.8000
    559    560    574   1    110.7000    313.8000
    561    560    573   1    110.7000    313.8000
    561    560    574   1    110.7000    313.8000
    573    560    574   1    107.8000    276.1440
    560    561    562   1    112.7000    488.2728
    560    561    575   1    110.7000    313.8000
    560    561    576   1    110.7000    313.8000
    562    561    575   1    110.7000    313.8000
    562    561    576   1    110.7000    313.8000
    575    561    576   1    107.8000    276.1440
    561    562    563   1    112.7000    488.2728
    561    562    577   1    110.7000    313.8000
    561    562    578   1    110.7000    313.8000
    563    562    577   1    110.7000    313.8000
    563    562    578   1    110.7000    313.8000
    577    562    578   1    107.8000    276.1440
    562    563    564   1    112.7000    488.2728
    562    563    579   1    110.7000    313.8000
    562    563    580   1    110.7000    313.8000
    564    563    579   1    110.7000    313.8000
    564    563    580   1    110.7000    313.8000
    579    563    580   1    107.8000    276.1440
    563    564    565   1    112.7000    488.2728
    563    564    581   1    110.7000    313.8000
    563    564    582   1    110.7000    313.8000
    565    564    581   1    110.7000    313.8000
    565    564    582   1    110.7000    313.8000
    581    564    582   1    107.8000    276.1440
    564    565    566   1    112.7000    488.2728
    564    565    583   1    110.7000    313.8000
    564    565    584   1    110.7000    313.8000
    566    565    583   1    110.7000    313.8000
    566    565    584   1    110.7000    313.8000
    583    565    584   1    107.8000    276.1440
    565    566    567   1    112.7000    488.2728
    565    566    585   1    110.7000    313.8000
    565    566    586   1    110.7000    313.8000
    567    566    585   1    110.7000    313.8000
    567    566    586   1    110.7000    313.8000
    585    566    586   1    107.8000    276.1440
    566    567    568   1    112.7000    488.2728
    566    567    587   1    110.7000    313.8000
    566    567    588   1    110.7000    313.8000
    568    567    587   1    110.7000    313.8000
    568    567    588   1    110.7000    313.8000
    587    567    588   1    107.8000    276.1440
    567    568    569   1    112.7000    488.2728
    567    568    589   1    110.7000    313.8000
    567    568    590   1    110.7000    313.8000
    569    568    589   1    110.7000    313.8000
    569    568    590   1    110.7000    313.8000
    589    568    590   1    107.8000    276.1440
    568    569    570   1    110.7230    585.7600
    568    569    591   1    110.7000    313.8000
    568    569    592   1    110.7000    313.8000
    570    569    591   1    109.5000    292.8800
    570    569    592   1    109.5000    292.8800
    591    569    592   1    107.8000    276.1440
    569    570    593   1    118.4000    317.9840
    569    570    594   1    121.9000    418.4000
    593    570    594   1    119.8000    292.8800
    570    594    595   1    122.9000    669.4400
    570    594    596   1    116.6000    585.7600
    595    594    596   1    120.4000    669.4400
    594    596    597   1    111.1000    527.1840
    594    596    608   1    109.5000    292.8800
    594    596    609   1    109.5000    292.8800
    597    596    608   1    110.7000    313.8000
    597    596    609   1    110.7000    313.8000
    608    596    609   1    107.8000    276.1440
    596    597    598   1    112.7000    488.2728
    596    597    610   1    110.7000    313.8000
    596    597    611   1    110.7000    313.8000
    598    597    610   1    110.7000    313.8000
    598    597    611   1    110.7000    313.8000
    610    597    611   1    107.8000    276.1440
    597    598    599   1    112.7000    488.2728
    597    598    612   1    110.7000    313.8000
    597    598    613   1    110.7000    313.8000
    599    598    612   1    110.7000    313.8000
    599    598    613   1    110.7000    313.8000
    612    598    613   1    107.8000    276.1440
    598    599    600   1    112.7000    488.2728
    598    599    614   1    110.7000    313.8000
    598    599    615   1    110.7000    313.8000
    600    599    614   1    110.7000    313.8000
    600    599    615   1    110.7000    313.8000
    614    599    615   1    107.8000    276.1440
    599    600    601   1    112.7000    488.2728
    599    600    616   1    110.7000    313.8000
    599    600    617   1    110.7000    313.8000
    601    600    616   1    110.7000    313.8000
    601    600    617   1    110.7000    313.8000
    616    600    617   1    107.8000    276.1440
    600    601    602   1    112.7000    488.2728
    600    601    618   1    110.7000    313.8000
    600    601    619   1    110.7000    313.8000
    602    601    618   1    110.7000    313.8000
    602    601    619   1    110.7000    313.8000
    618    601    619   1    107.8000    276.1440
    601    602    603   1    112.7000    488.2728
    601    602    620   1    110.7000    313.8000
    601    602    621   1    110.7000    313.8000
    603    602    620   1    110.7000    313.8000
    603    602    621   1    110.7000    313.8000
    620    602    621   1    107.8000    276.1440
    602    603    604   1    112.7000    488.2728
    602    603    622   1    110.7000    313.8000
    602    603    623   1    110.7000    313.8000
    604    603    622   1    110.7000    313.8000
    604    603    623   1    110.7000    313.8000
    622    603    623   1    107.8000    276.1440
    603    604    605   1    112.7000    488.2728
    603    604    624   1    110.7000    313.8000
    603    604    625   1    110.7000    313.8000
    605    604    624   1    110.7000    313.8000
    605    604    625   1    110.7000    313.8000
    624    604    625   1    107.8000    276.1440
    604    605    606   1    112.7000    488.2728
    604    605    626   1    110.7000    313.8000
    604    605    627   1    110.7000    313.8000
    606    605    626   1    110.7000    313.8000
    606    605    627   1    110.7000    313.8000
    626    605    627   1    107.8000    276.1440
    605    606    607   1    110.7230    585.7600
    605    606    628   1    110.7000    313.8000
    605    606    629   1    110.7000    313.8000
    607    606    628   1    109.5000    292.8800
    607    606    629   1    109.5000    292.8800
    628    606    629   1    107.8000    276.1440
    606    607    630   1    118.4000    317.9840
    606    607    631   1    121.9000    418.4000
    630    607    631   1    119.8000    292.8800
    607    631    632   1    122.9000    669.4400
    607    631    633   1    116.6000    585.7600
    632    631    633   1    120.4000    669.4400
    631    633    634   1    111.1000    527.1840
    631    633    645   1    109.5000    292.8800
    631    633    646   1    109.5000    292.8800
    634    633    645   1    110.7000    313.8000
    634    633    646   1    110.7000    313.8000
    645    633    646   1    107.8000    276.1440
    633    634    635   1    112.7000    488.2728
    633    634    647   1    110.7000    313.8000
    633    634    648   1    110.7000    313.8000
    635    634    647   1    110.7000    313.8000
    635    634    648   1    110.7000    313.8000
    647    634    648   1    107.8000    276.1440
    634    635    636   1    112.7000    488.2728
    634    635    649   1    110.7000    313.8000
    634    635    650   1    110.7000    313.8000
    636    635    649   1    110.7000    313.8000
    636    635    650   1    110.7000    313.8000
    649    635    650   1    107.8000    276.1440
    635    636    637   1    112.7000    488.2728
    635    636    651   1    110.7000    313.8000
    635    636    652   1    110.7000    313.8000
    637    636    651   1    110.7000    313.8000
    637    636    652   1    110.7000    313.8000
    651    636    652   1    107.8000    276.1440
    636    637    638   1    112.7000    488.2728
    636    637    653   1    110.7000    313.8000
    636    637    654   1    110.7000    313.8000
    638    637    653   1    110.7000    313.8000
    638    637    654   1    110.7000    313.8000
    653    637    654   1    107.8000    276.1440
    637    638    639   1    112.7000    488.2728
    637    638    655   1    110.7000    313.8000
    637    638    656   1    110.7000    313.8000
    639    638    655   1    110.7000    313.8000
    639    638    656   1    110.7000    313.8000
    655    638    656   1    107.8000    276.1440
    638    639    640   1    112.7000    488.2728
    638    639    657   1    110.7000    313.8000
    638    639    658   1    110.7000    313.8000
    640    639    657   1    110.7000    313.8000
    640    639    658   1    110.7000    313.8000
    657    639    658   1    107.8000    276.1440
    639    640    641   1    112.7000    488.2728
    639    640    659   1    110.7000    313.8000
    639    640    660   1    110.7000    313.8000
    641    640    659   1    110.7000    313.8000
    641    640    660   1    110.7000    313.8000
    659    640    660   1    107.8000    276.1440
    640    641    642   1    112.7000    488.2728
    640    641    661   1    110.7000    313.8000
    640    641    662   1    110.7000    313.8000
    642    641    661   1    110.7000    313.8000
    642    641    662   1    110.7000    313.8000
    661    641    662   1    107.8000    276.1440
    641    642    643   1    112.7000    488.2728
    641    642    663   1    110.7000    313.8000
    641    642    664   1    110.7000    313.8000
    643    642    663   1    110.7000    313.8000
    643    642    664   1    110.7000    313.8000
    663    642    664   1    107.8000    276.1440
    642    643    644   1    110.7230    585.7600
    642    643    665   1    110.7000    313.8000
    642    643    666   1    110.7000    313.8000
    644    643    665   1    109.5000    292.8800
    644    643    666   1    109.5000    292.8800
    665    643    666   1    107.8000    276.1440
    643    644    667   1    118.4000    317.9840
    643    644    668   1    121.9000    418.4000
    667    644    668   1    119.8000    292.8800
    644    668    669   1    122.9000    669.4400
    644    668    670   1    116.6000    585.7600
    669    668    670   1    120.4000    669.4400
    668    670    671   1    111.1000    527.1840
    668    670    682   1    109.5000    292.8800
    668    670    683   1    109.5000    292.8800
    671    670    682   1    110.7000    313.8000
    671    670    683   1    110.7000    313.8000
    682    670    683   1    107.8000    276.1440
    670    671    672   1    112.7000    488.2728
    670    671    684   1    110.7000    313.8000
    670    671    685   1    110.7000    313.8000
    672    671    684   1    110.7000    313.8000
    672    671    685   1    110.7000    313.8000
    684    671    685   1    107.8000    276.1440
    671    672    673   1    112.7000    488.2728
    671    672    686   1    110.7000    313.8000
    671    672    687   1    110.7000    313.8000
    673    672    686   1    110.7000    313.8000
    673    672    687   1    110.7000    313.8000
    686    672    687   1    107.8000    276.1440
    672    673    674   1    112.7000    488.2728
    672    673    688   1    110.7000    313.8000
    672    673    689   1    110.7000    313.8000
    674    673    688   1    110.7000    313.8000
    674    673    689   1    110.7000    313.8000
    688    673    689   1    107.8000    276.1440
    673    674    675   1    112.7000    488.2728
    673    674    690   1    110.7000    313.8000
    673    674    691   1    110.7000    313.8000
    675    674    690   1    110.7000    313.8000
    675    674    691   1    110.7000    313.8000
    690    674    691   1    107.8000    276.1440
    674    675    676   1    112.7000    488.2728
    674    675    692   1    110.7000    313.8000
    674    675    693   1    110.7000    313.8000
    676    675    692   1    110.7000    313.8000
    676    675    693   1    110.7000    313.8000
    692    675    693   1    107.8000    276.1440
    675    676    677   1    112.7000    488.2728
    675    676    694   1    110.7000    313.8000
    675    676    695   1    110.7000    313.8000
    677    676    694   1    110.7000    313.8000
    677    676    695   1    110.7000    313.8000
    694    676    695   1    107.8000    276.1440
    676    677    678   1    112.7000    488.2728
    676    677    696   1    110.7000    313.8000
    676    677    697   1    110.7000    313.8000
    678    677    696   1    110.7000    313.8000
    678    677    697   1    110.7000    313.8000
    696    677    697   1    107.8000    276.1440
    677    678    679   1    112.7000    488.2728
    677    678    698   1    110.7000    313.8000
    677    678    699   1    110.7000    313.8000
    679    678    698   1    110.7000    313.8000
    679    678    699   1    110.7000    313.8000
    698    678    699   1    107.8000    276.1440
    678    679    680   1    112.7000    488.2728
    678    679    700   1    110.7000    313.8000
    678    679    701   1    110.7000    313.8000
    680    679    700   1    110.7000    313.8000
    680    679    701   1    110.7000    313.8000
    700    679    701   1    107.8000    276.1440
    679    680    681   1    110.7230    585.7600
    679    680    702   1    110.7000    313.8000
    679    680    703   1    110.7000    313.8000
    681    680    702   1    109.5000    292.8800
    681    680    703   1    109.5000    292.8800
    702    680    703   1    107.8000    276.1440
    680    681    704   1    118.4000    317.9840
    680    681    705   1    121.9000    418.4000
    704    681    705   1    119.8000    292.8800
    681    705    706   1    122.9000    669.4400
    681    705    707   1    116.6000    585.7600
    706    705    707   1    120.4000    669.4400
    705    707    708   1    111.1000    527.1840
    705    707    719   1    109.5000    292.8800
    705    707    720   1    109.5000    292.8800
    708    707    719   1    110.7000    313.8000
    708    707    720   1    110.7000    313.8000
    719    707    720   1    107.8000    276.1440
    707    708    709   1    112.7000    488.2728
    707    708    721   1    110.7000    313.8000
    707    708    722   1    110.7000    313.8000
    709    708    721   1    110.7000    313.8000
    709    708    722   1    110.7000    313.8000
    721    708    722   1    107.8000    276.1440
    708    709    710   1    112.7000    488.2728
    708    709    723   1    110.7000    313.8000
    708    709    724   1    110.7000    313.8000
    710    709    723   1    110.7000    313.8000
    710    709    724   1    110.7000    313.8000
    723    709    724   1    107.8000    276.1440
    709    710    711   1    112.7000    488.2728
    709    710    725   1    110.7000    313.8000
    709    710    726   1    110.7000    313.8000
    711    710    725   1    110.7000    313.8000
    711    710    726   1    110.7000    313.8000
    725    710    726   1    107.8000    276.1440
    710    711    712   1    112.7000    488.2728
    710    711    727   1    110.7000    313.8000
    710    711    728   1    110.7000    313.8000
    712    711    727   1    110.7000    313.8000
    712    711    728   1    110.7000    313.8000
    727    711    728   1    107.8000    276.1440
    711    712    713   1    112.7000    488.2728
    711    712    729   1    110.7000    313.8000
    711    712    730   1    110.7000    313.8000
    713    712    729   1    110.7000    313.8000
    713    712    730   1    110.7000    313.8000
    729    712    730   1    107.8000    276.1440
    712    713    714   1    112.7000    488.2728
    712    713    731   1    110.7000    313.8000
    712    713    732   1    110.7000    313.8000
    714    713    731   1    110.7000    313.8000
    714    713    732   1    110.7000    313.8000
    731    713    732   1    107.8000    276.1440
    713    714    715   1    112.7000    488.2728
    713    714    733   1    110.7000    313.8000
    713    714    734   1    110.7000    313.8000
    715    714    733   1    110.7000    313.8000
    715    714    734   1    110.7000    313.8000
    733    714    734   1    107.8000    276.1440
    714    715    716   1    112.7000    488.2728
    714    715    735   1    110.7000    313.8000
    714    715    736   1    110.7000    313.8000
    716    715    735   1    110.7000    313.8000
    716    715    736   1    110.7000    313.8000
    735    715    736   1    107.8000    276.1440
    715    716    717   1    112.7000    488.2728
    715    716    737   1    110.7000    313.8000
    715    716    738   1    110.7000    313.8000
    717    716    737   1    110.7000    313.8000
    717    716    738   1    110.7000    313.8000
    737    716    738   1    107.8000    276.1440
    716    717    718   1    109.4700    470.2816
    716    717    739   1    110.7000    313.8000
    716    717    740   1    110.7000    313.8000
    718    717    739   1    109.5000    292.8800
    718    717    740   1    109.5000    292.8800
    739    717    740   1    107.8000    276.1440
    717    718    741   1    109.5000    292.8800
    717    718    742   1    109.5000    292.8800
    741    718    742   1    106.4000    364.8448

[ dihedrals ]
; Proper dihedrals
      2      1      3      4   5     0.00000     2.52295     0.00000  0.0
      2      1      3     15   5     0.00000     0.00000     0.00000  0.0
      2      1      3     16   5     0.00000     0.00000     0.00000  0.0
     38      1      3      4   5     6.23834    -0.04184     0.00000  0.0
     38      1      3     15   5     0.00000     0.00000     0.00000  0.0
     38      1      3     16   5     0.00000     0.00000     0.00000  0.0
      1      3      4      5   5    -8.00818    -1.52298     2.46438  0.0
      1      3      4     17   5     0.00000     0.00000    -0.94140  0.0
      1      3      4     18   5     0.00000     0.00000    -0.94140  0.0
     15      3      4      5   5     0.00000     0.00000     1.25520  0.0
     15      3      4     17   5     0.00000     0.00000     1.25520  0.0
     15      3      4     18   5     0.00000     0.00000     1.25520  0.0
     16      3      4      5   5     0.00000     0.00000     1.25520  0.0
     16      3      4     17   5     0.00000     0.00000     1.25520  0.0
     16      3      4     18   5     0.00000     0.00000     1.25520  0.0
      3      4      5      6   5     4.74884    -0.63178     1.67360  0.0
      3      4      5     19   5     0.00000     0.00000     1.25520  0.0
      3      4      5     20   5     0.00000     0.00000     1.25520  0.0
     17      4      5      6   5     0.00000     0.00000     1.25520  0.0
     17      4      5     19   5     0.00000     0.00000     1.25520  0.0
     17      4      5     20   5     0.00000     0.00000     1.25520  0.0
     18      4      5      6   5     0.00000     0.00000     1.25520  0.0
     18      4      5     19   5     0.00000     0.00000     1.25520  0.0
     18      4      5     20   5     0.00000     0.00000     1.25520  0.0
      4      5      6      7   5     4.74884    -0.63178     1.67360  0.0
      4      5      6     21   5     0.00000     0.00000     1.25520  0.0
      4      5      6     22   5     0.00000     0.00000     1.25520  0.0
     19      5      6      7   5     0.00000     0.00000     1.25520  0.0
     19      5      6     21   5     0.00000     0.00000     1.25520  0.0
     19      5      6     22   5     0.00000     0.00000     1.25520  0.0
     20      5      6      7   5     0.00000     0.00000     1.25520  0.0
     20      5      6     21   5     0.00000     0.00000     1.25520  0.0
     20      5      6     22   5     0.00000     0.00000     1.25520  0.0
      5      6      7      8   5     4.74884    -0.63178     1.67360  0.0
      5      6      7     23   5     0.00000     0.00000     1.25520  0.0
      5      6      7     24   5     0.00000     0.00000     1.25520  0.0
     21      6      7      8   5     0.00000     0.00000     1.25520  0.0
     21      6      7     23   5     0.00000     0.00000     1.25520  0.0
     21      6      7     24   5     0.00000     0.00000     1.25520  0.0
     22      6      7      8   5     0.00000     0.00000     1.25520  0.0
     22      6      7     23   5     0.00000     0.00000     1.25520  0.0
     22      6      7     24   5     0.00000     0.00000     1.25520  0.0
      6      7      8      9   5     4.74884    -0.63178     1.67360  0.0
      6      7      8     25   5     0.00000     0.00000     1.25520  0.0
      6      7      8     26   5     0.00000     0.00000     1.25520  0.0
     23      7      8      9   5     0.00000     0.00000     1.25520  0.0
     23      7      8     25   5     0.00000     0.00000     1.25520  0.0
     23      7      8     26   5     0.00000     0.00000     1.25520  0.0
     24      7      8      9   5     0.00000     0.00000     1.25520  0.0
     24      7      8     25   5     0.00000     0.00000     1.25520  0.0
     24      7      8     26   5     0.00000     0.00000     1.25520  0.0
      7      8      9     10   5     4.74884    -0.63178     1.67360  0.0
      7      8      9     27   5     0.00000     0.00000     1.25520  0.0
      7      8      9     28   5     0.00000     0.00000     1.25520  0.0
     25      8      9     10   5     0.00000     0.00000     1.25520  0.0
     25      8      9     27   5     0.00000     0.00000     1.25520  0.0
     25      8      9     28   5     0.00000     0.00000     1.25520  0.0
     26      8      9     10   5     0.00000     0.00000     1.25520  0.0
     26      8      9     27   5     0.00000     0.00000     1.25520  0.0
     26      8      9     28   5     0.00000     0.00000     1.25520  0.0
      8      9     10     11   5     4.74884    -0.63178     1.67360  0.0
      8      9     10     29   5     0.00000     0.00000     1.25520  0.0
      8      9     10     30   5     0.00000     0.00000     1.25520  0.0
     27      9     10     11   5     0.00000     0.00000     1.25520  0.0
     27      9     10     29   5     0.00000     0.00000     1.25520  0.0
     27      9     10     30   5     0.00000     0.00000     1.25520  0.0
     28      9     10     11   5     0.00000     0.00000     1.25520  0.0
     28      9     10     29   5     0.00000     0.00000     1.25520  0.0
     28      9     10     30   5     0.00000     0.00000     1.25520  0.0
      9     10     11     12   5     4.74884    -0.63178     1.67360  0.0
      9     10     11     31   5     0.00000     0.00000     1.25520  0.0
      9     10     11     32   5     0.00000     0.00000     1.25520  0.0
     29     10     11     12   5     0.00000     0.00000     1.25520  0.0
     29     10     11     31   5     0.00000     0.00000     1.25520  0.0
     29     10     11     32   5     0.00000     0.00000     1.25520  0.0
     30     10     11     12   5     0.00000     0.00000     1.25520  0.0
     30     10     11     31   5     0.00000     0.00000     1.25520  0.0
     30     10     11     32   5     0.00000     0.00000     1.25520  0.0
     10     11     12     13   5     4.74884    -0.63178     1.67360  0.0
     10     11     12     33   5     0.00000     0.00000     1.25520  0.0
     10     11     12     34   5     0.00000     0.00000     1.25520  0.0
     31     11     12     13   5     0.00000     0.00000     1.25520  0.0
     31     11     12     33   5     0.00000     0.00000     1.25520  0.0
     31     11     12     34   5     0.00000     0.00000     1.25520  0.0
     32     11     12     13   5     0.00000     0.00000     1.25520  0.0
     32     11     12     33   5     0.00000     0.00000     1.25520  0.0
     32     11     12     34   5     0.00000     0.00000     1.25520  0.0
     11     12     13     14   5     3.67355     4.10869     2.37651  0.0
     11     12     13     35   5     0.00000     0.00000     1.25520  0.0
     11     12     13     36   5     0.00000     0.00000     1.25520  0.0
     33     12     13     14   5     0.00000     0.00000     1.25520  0.0
     33     12     13     35   5     0.00000     0.00000     1.25520  0.0
     33     12     13     36   5     0.00000     0.00000     1.25520  0.0
     34     12     13     14   5     0.00000     0.00000     1.25520  0.0
     34     12     13     35   5     0.00000     0.00000     1.25520  0.0
     34     12     13     36   5     0.00000     0.00000     1.25520  0.0
     12     13     14     37   5     0.00000     0.00000     0.00000  0.0
     12     13     14     39   5    -3.67774    -0.67781     0.28033  0.0
     35     13     14     37   5     0.00000     0.00000     0.00000  0.0
     35     13     14     39   5     0.00000     0.00000     0.00000  0.0
     36     13     14     37   5     0.00000     0.00000     0.00000  0.0
     36     13     14     39   5     0.00000     0.00000     0.00000  0.0
     13     14     39     40   5     0.00000    25.47638     0.00000  0.0
     13     14     39     41   5    12.53945    12.88254     0.00000  0.0
     37     14     39     40   5     0.00000    20.50160     0.00000  0.0
     37     14     39     41   5     0.00000    20.50160     0.00000  0.0
     14     39     41     42   5    11.69428    -0.66526    -1.56900  0.0
     14     39     41     53   5     0.00000     0.00000     0.00000  0.0
     14     39     41     54   5     0.00000     0.00000     0.00000  0.0
     40     39     41     42   5     0.00000     2.52295     0.00000  0.0
     40     39     41     53   5     0.00000     0.00000     0.00000  0.0
     40     39     41     54   5     0.00000     0.00000     0.00000  0.0
     39     41     42     43   5    -8.00818    -1.52298     2.46438  0.0
     39     41     42     55   5     0.00000     0.00000    -0.94140  0.0
     39     41     42     56   5     0.00000     0.00000    -0.94140  0.0
     53     41     42     43   5     0.00000     0.00000     1.25520  0.0
     53     41     42     55   5     0.00000     0.00000     1.25520  0.0
     53     41     42     56   5     0.00000     0.00000     1.25520  0.0
     54     41     42     43   5     0.00000     0.00000     1.25520  0.0
     54     41     42     55   5     0.00000     0.00000     1.25520  0.0
     54     41     42     56   5     0.00000     0.00000     1.25520  0.0
     41     42     43     44   5     4.74884    -0.63178     1.67360  0.0
     41     42     43     57   5     0.00000     0.00000     1.25520  0.0
     41     42     43     58   5     0.00000     0.00000     1.25520  0.0
     55     42     43     44   5     0.00000     0.00000     1.25520  0.0
     55     42     43     57   5     0.00000     0.00000     1.25520  0.0
     55     42     43     58   5     0.00000     0.00000     1.25520  0.0
     56     42     43     44   5     0.00000     0.00000     1.25520  0.0
     56     42     43     57   5     0.00000     0.00000     1.25520  0.0
     56     42     43     58   5     0.00000     0.00000     1.25520  0.0
     42     43     44     45   5     4.74884    -0.63178     1.67360  0.0
     42     43     44     59   5     0.00000     0.00000     1.25520  0.0
     42     43     44     60   5     0.00000     0.00000     1.25520  0.0
     57     43     44     45   5     0.00000     0.00000     1.25520  0.0
     57     43     44     59   5     0.00000     0.00000     1.25520  0.0
     57     43     44     60   5     0.00000     0.00000     1.25520  0.0
     58     43     44     45   5     0.00000     0.00000     1.25520  0.0
     58     43     44     59   5     0.00000     0.00000     1.25520  0.0
     58     43     44     60   5     0.00000     0.00000     1.25520  0.0
     43     44     45     46   5     4.74884    -0.63178     1.67360  0.0
     43     44     45     61   5     0.00000     0.00000     1.25520  0.0
     43     44     45     62   5     0.00000     0.00000     1.25520  0.0
     59     44     45     46   5     0.00000     0.00000     1.25520  0.0
     59     44     45     61   5     0.00000     0.00000     1.25520  0.0
     59     44     45     62   5     0.00000     0.00000     1.25520  0.0
     60     44     45     46   5     0.00000     0.00000     1.25520  0.0
     60     44     45     61   5     0.00000     0.00000     1.25520  0.0
     60     44     45     62   5     0.00000     0.00000     1.25520  0.0
     44     45     46     47   5     4.74884    -0.63178     1.67360  0.0
     44     45     46     63   5     0.00000     0.00000     1.25520  0.0
     44     45     46     64   5     0.00000     0.00000     1.25520  0.0
     61     45     46     47   5     0.00000     0.00000     1.25520  0.0
     61     45     46     63   5     0.00000     0.00000     1.25520  0.0
     61     45     46     64   5     0.00000     0.00000     1.25520  0.0
     62     45     46     47   5     0.00000     0.00000     1.25520  0.0
     62     45     46     63   5     0.00000     0.00000     1.25520  0.0
     62     45     46     64   5     0.00000     0.00000     1.25520  0.0
     45     46     47     48   5     4.74884    -0.63178     1.67360  0.0
     45     46     47     65   5     0.00000     0.00000     1.25520  0.0
     45     46     47     66   5     0.00000     0.00000     1.25520  0.0
     63     46     47     48   5     0.00000     0.00000     1.25520  0.0
     63     46     47     65   5     0.00000     0.00000     1.25520  0.0
     63     46     47     66   5     0.00000     0.00000     1.25520  0.0
     64     46     47     48   5     0.00000     0.00000     1.25520  0.0
     64     46     47     65   5     0.00000     0.00000     1.25520  0.0
     64     46     47     66   5     0.00000     0.00000     1.25520  0.0
     46     47     48     49   5     4.74884    -0.63178     1.67360  0.0
     46     47     48     67   5     0.00000     0.00000     1.25520  0.0
     46     47     48     68   5     0.00000     0.00000     1.25520  0.0
     65     47     48     49   5     0.00000     0.00000     1.25520  0.0
     65     47     48     67   5     0.00000     0.00000     1.25520  0.0
     65     47     48     68   5     0.00000     0.00000     1.25520  0.0
     66     47     48     49   5     0.00000     0.00000     1.25520  0.0
     66     47     48     67   5     0.00000     0.00000     1.25520  0.0
     66     47     48     68   5     0.00000     0.00000     1.25520  0.0
     47     48     49     50   5     4.74884    -0.63178     1.67360  0.0
     47     48     49     69   5     0.00000     0.00000     1.25520  0.0
     47     48     49     70   5     0.00000     0.00000     1.25520  0.0
     67     48     49     50   5     0.00000     0.00000     1.25520  0.0
     67     48     49     69   5     0.00000     0.00000     1.25520  0.0
     67     48     49     70   5     0.00000     0.00000     1.25520  0.0
     68     48     49     50   5     0.00000     0.00000     1.25520  0.0
     68     48     49     69   5     0.00000     0.00000     1.25520  0.0
     68     48     49     70   5     0.00000     0.00000     1.25520  0.0
     48     49     50     51   5     4.74884    -0.63178     1.67360  0.0
     48     49     50     71   5     0.00000     0.00000     1.25520  0.0
     48     49     50     72   5     0.00000     0.00000     1.25520  0.0
     69     49     50     51   5     0.00000     0.00000     1.25520  0.0
     69     49     50     71   5     0.00000     0.00000     1.25520  0.0
     69     49     50     72   5     0.00000     0.00000     1.25520  0.0
     70     49     50     51   5     0.00000     0.00000     1.25520  0.0
     70     49     50     71   5     0.00000     0.00000     1.25520  0.0
     70     49     50     72   5     0.00000     0.00000     1.25520  0.0
     49     50     51     52   5     3.67355     4.10869     2.37651  0.0
     49     50     51     73   5     0.00000     0.00000     1.25520  0.0
     49     50     51     74   5     0.00000     0.00000     1.25520  0.0
     71     50     51     52   5     0.00000     0.00000     1.25520  0.0
     71     50     51     73   5     0.00000     0.00000     1.25520  0.0
     71     50     51     74   5     0.00000     0.00000     1.25520  0.0
     72     50     51     52   5     0.00000     0.00000     1.25520  0.0
     72     50     51     73   5     0.00000     0.00000     1.25520  0.0
     72     50     51     74   5     0.00000     0.00000     1.25520  0.0
     50     51     52     75   5     0.00000     0.00000     0.00000  0.0
     50     51     52     76   5    -3.67774    -0.67781     0.28033  0.0
     73     51     52     75   5     0.00000     0.00000     0.00000  0.0
     73     51     52     76   5     0.00000     0.00000     0.00000  0.0
     74     51     52     75   5     0.00000     0.00000     0.00000  0.0
     74     51     52     76   5     0.00000     0.00000     0.00000  0.0
     51     52     76     77   5     0.00000    25.47638     0.00000  0.0
     51     52     76     78   5    12.53945    12.88254     0.00000  0.0
     75     52     76     77   5     0.00000    20.50160     0.00000  0.0
     75     52     76     78   5     0.00000    20.50160     0.00000  0.0
     52     76     78     79   5    11.69428    -0.66526    -1.56900  0.0
     52     76     78     90   5     0.00000     0.00000     0.00000  0.0
     52     76     78     91   5     0.00000     0.00000     0.00000  0.0
     77     76     78     79   5     0.00000     2.52295     0.00000  0.0
     77     76     78     90   5     0.00000     0.00000     0.00000  0.0
     77     76     78     91   5     0.00000     0.00000     0.00000  0.0
     76     78     79     80   5    -8.00818    -1.52298     2.46438  0.0
     76     78     79     92   5     0.00000     0.00000    -0.94140  0.0
     76     78     79     93   5     0.00000     0.00000    -0.94140  0.0
     90     78     79     80   5     0.00000     0.00000     1.25520  0.0
     90     78     79     92   5     0.00000     0.00000     1.25520  0.0
     90     78     79     93   5     0.00000     0.00000     1.25520  0.0
     91     78     79     80   5     0.00000     0.00000     1.25520  0.0
     91     78     79     92   5     0.00000     0.00000     1.25520  0.0
     91     78     79     93   5     0.00000     0.00000     1.25520  0.0
     78     79     80     81   5     4.74884    -0.63178     1.67360  0.0
     78     79     80     94   5     0.00000     0.00000     1.25520  0.0
     78     79     80     95   5     0.00000     0.00000     1.25520  0.0
     92     79     80     81   5     0.00000     0.00000     1.25520  0.0
     92     79     80     94   5     0.00000     0.00000     1.25520  0.0
     92     79     80     95   5     0.00000     0.00000     1.25520  0.0
     93     79     80     81   5     0.00000     0.00000     1.25520  0.0
     93     79     80     94   5     0.00000     0.00000     1.25520  0.0
     93     79     80     95   5     0.00000     0.00000     1.25520  0.0
     79     80     81     82   5     4.74884    -0.63178     1.67360  0.0
     79     80     81     96   5     0.00000     0.00000     1.25520  0.0
     79     80     81     97   5     0.00000     0.00000     1.25520  0.0
     94     80     81     82   5     0.00000     0.00000     1.25520  0.0
     94     80     81     96   5     0.00000     0.00000     1.25520  0.0
     94     80     81     97   5     0.00000     0.00000     1.25520  0.0
     95     80     81     82   5     0.00000     0.00000     1.25520  0.0
     95     80     81     96   5     0.00000     0.00000     1.25520  0.0
     95     80     81     97   5     0.00000     0.00000     1.25520  0.0
     80     81     82     83   5     4.74884    -0.63178     1.67360  0.0
     80     81     82     98   5     0.00000     0.00000     1.25520  0.0
     80     81     82     99   5     0.00000     0.00000     1.25520  0.0
     96     81     82     83   5     0.00000     0.00000     1.25520  0.0
     96     81     82     98   5     0.00000     0.00000     1.25520  0.0
     96     81     82     99   5     0.00000     0.00000     1.25520  0.0
     97     81     82     83   5     0.00000     0.00000     1.25520  0.0
     97     81     82     98   5     0.00000     0.00000     1.25520  0.0
     97     81     82     99   5     0.00000     0.00000     1.25520  0.0
     81     82     83     84   5     4.74884    -0.63178     1.67360  0.0
     81     82     83    100   5     0.00000     0.00000     1.25520  0.0
     81     82     83    101   5     0.00000     0.00000     1.25520  0.0
     98     82     83     84   5     0.00000     0.00000     1.25520  0.0
     98     82     83    100   5     0.00000     0.00000     1.25520  0.0
     98     82     83    101   5     0.00000     0.00000     1.25520  0.0
     99     82     83     84   5     0.00000     0.00000     1.25520  0.0
     99     82     83    100   5     0.00000     0.00000     1.25520  0.0
     99     82     83    101   5     0.00000     0.00000     1.25520  0.0
     82     83     84     85   5     4.74884    -0.63178     1.67360  0.0
     82     83     84    102   5     0.00000     0.00000     1.25520  0.0
     82     83     84    103   5     0.00000     0.00000     1.25520  0.0
    100     83     84     85   5     0.00000     0.00000     1.25520  0.0
    100     83     84    102   5     0.00000     0.00000     1.25520  0.0
    100     83     84    103   5     0.00000     0.00000     1.25520  0.0
    101     83     84     85   5     0.00000     0.00000     1.25520  0.0
    101     83     84    102   5     0.00000     0.00000     1.25520  0.0
    101     83     84    103   5     0.00000     0.00000     1.25520  0.0
     83     84     85     86   5     4.74884    -0.63178     1.67360  0.0
     83     84     85    104   5     0.00000     0.00000     1.25520  0.0
     83     84     85    105   5     0.00000     0.00000     1.25520  0.0
    102     84     85     86   5     0.00000     0.00000     1.25520  0.0
    102     84     85    104   5     0.00000     0.00000     1.25520  0.0
    102     84     85    105   5     0.00000     0.00000     1.25520  0.0
    103     84     85     86   5     0.00000     0.00000     1.25520  0.0
    103     84     85    104   5     0.00000     0.00000     1.25520  0.0
    103     84     85    105   5     0.00000     0.00000     1.25520  0.0
     84     85     86     87   5     4.74884    -0.63178     1.67360  0.0
     84     85     86    106   5     0.00000     0.00000     1.25520  0.0
     84     85     86    107   5     0.00000     0.00000     1.25520  0.0
    104     85     86     87   5     0.00000     0.00000     1.25520  0.0
    104     85     86    106   5     0.00000     0.00000     1.25520  0.0
    104     85     86    107   5     0.00000     0.00000     1.25520  0.0
    105     85     86     87   5     0.00000     0.00000     1.25520  0.0
    105     85     86    106   5     0.00000     0.00000     1.25520  0.0
    105     85     86    107   5     0.00000     0.00000     1.25520  0.0
     85     86     87     88   5     4.74884    -0.63178     1.67360  0.0
     85     86     87    108   5     0.00000     0.00000     1.25520  0.0
     85     86     87    109   5     0.00000     0.00000     1.25520  0.0
    106     86     87     88   5     0.00000     0.00000     1.25520  0.0
    106     86     87    108   5     0.00000     0.00000     1.25520  0.0
    106     86     87    109   5     0.00000     0.00000     1.25520  0.0
    107     86     87     88   5     0.00000     0.00000     1.25520  0.0
    107     86     87    108   5     0.00000     0.00000     1.25520  0.0
    107     86     87    109   5     0.00000     0.00000     1.25520  0.0
     86     87     88     89   5     3.67355     4.10869     2.37651  0.0
     86     87     88    110   5     0.00000     0.00000     1.25520  0.0
     86     87     88    111   5     0.00000     0.00000     1.25520  0.0
    108     87     88     89   5     0.00000     0.00000     1.25520  0.0
    108     87     88    110   5     0.00000     0.00000     1.25520  0.0
    108     87     88    111   5     0.00000     0.00000     1.25520  0.0
    109     87     88     89   5     0.00000     0.00000     1.25520  0.0
    109     87     88    110   5     0.00000     0.00000     1.25520  0.0
    109     87     88    111   5     0.00000     0.00000     1.25520  0.0
     87     88     89    112   5     0.00000     0.00000     0.00000  0.0
     87     88     89    113   5    -3.67774    -0.67781     0.28033  0.0
    110     88     89    112   5     0.00000     0.00000     0.00000  0.0
    110     88     89    113   5     0.00000     0.00000     0.00000  0.0
    111     88     89    112   5     0.00000     0.00000     0.00000  0.0
    111     88     89    113   5     0.00000     0.00000     0.00000  0.0
     88     89    113    114   5     0.00000    25.47638     0.00000  0.0
     88     89    113    115   5    12.53945    12.88254     0.00000  0.0
    112     89    113    114   5     0.00000    20.50160     0.00000  0.0
    112     89    113    115   5     0.00000    20.50160     0.00000  0.0
     89    113    115    116   5    11.69428    -0.66526    -1.56900  0.0
     89    113    115    127   5     0.00000     0.00000     0.00000  0.0
     89    113    115    128   5     0.00000     0.00000     0.00000  0.0
    114    113    115    116   5     0.00000     2.52295     0.00000  0.0
    114    113    115    127   5     0.00000     0.00000     0.00000  0.0
    114    113    115    128   5     0.00000     0.00000     0.00000  0.0
    113    115    116    117   5    -8.00818    -1.52298     2.46438  0.0
    113    115    116    129   5     0.00000     0.00000    -0.94140  0.0
    113    115    116    130   5     0.00000     0.00000    -0.94140  0.0
    127    115    116    117   5     0.00000     0.00000     1.25520  0.0
    127    115    116    129   5     0.00000     0.00000     1.25520  0.0
    127    115    116    130   5     0.00000     0.00000     1.25520  0.0
    128    115    116    117   5     0.00000     0.00000     1.25520  0.0
    128    115    116    129   5     0.00000     0.00000     1.25520  0.0
    128    115    116    130   5     0.00000     0.00000     1.25520  0.0
    115    116    117    118   5     4.74884    -0.63178     1.67360  0.0
    115    116    117    131   5     0.00000     0.00000     1.25520  0.0
    115    116    117    132   5     0.00000     0.00000     1.25520  0.0
    129    116    117    118   5     0.00000     0.00000     1.25520  0.0
    129    116    117    131   5     0.00000     0.00000     1.25520  0.0
    129    116    117    132   5     0.00000     0.00000     1.25520  0.0
    130    116    117    118   5     0.00000     0.00000     1.25520  0.0
    130    116    117    131   5     0.00000     0.00000     1.25520  0.0
    130    116    117    132   5     0.00000     0.00000     1.25520  0.0
    116    117    118    119   5     4.74884    -0.63178     1.67360  0.0
    116    117    118    133   5     0.00000     0.00000     1.25520  0.0
    116    117    118    134   5     0.00000     0.00000     1.25520  0.0
    131    117    118    119   5     0.00000     0.00000     1.25520  0.0
    131    117    118    133   5     0.00000     0.00000     1.25520  0.0
    131    117    118    134   5     0.00000     0.00000     1.25520  0.0
    132    117    118    119   5     0.00000     0.00000     1.25520  0.0
    132    117    118    133   5     0.00000     0.00000     1.25520  0.0
    132    117    118    134   5     0.00000     0.00000     1.25520  0.0
    117    118    119    120   5     4.74884    -0.63178     1.67360  0.0
    117    118    119    135   5     0.00000     0.00000     1.25520  0.0
    117    118    119    136   5     0.00000     0.00000     1.25520  0.0
    133    118    119    120   5     0.00000     0.00000     1.25520  0.0
    133    118    119    135   5     0.00000     0.00000     1.25520  0.0
    133    118    119    136   5     0.00000     0.00000     1.25520  0.0
    134    118    119    120   5     0.00000     0.00000     1.25520  0.0
    134    118    119    135   5     0.00000     0.00000     1.25520  0.0
    134    118    119    136   5     0.00000     0.00000     1.25520  0.0
    118    119    120    121   5     4.74884    -0.63178     1.67360  0.0
    118    119    120    137   5     0.00000     0.00000     1.25520  0.0
    118    119    120    138   5     0.00000     0.00000     1.25520  0.0
    135    119    120    121   5     0.00000     0.00000     1.25520  0.0
    135    119    120    137   5     0.00000     0.00000     1.25520  0.0
    135    119    120    138   5     0.00000     0.00000     1.25520  0.0
    136    119    120    121   5     0.00000     0.00000     1.25520  0.0
    136    119    120    137   5     0.00000     0.00000     1.25520  0.0
    136    119    120    138   5     0.00000     0.00000     1.25520  0.0
    119    120    121    122   5     4.74884    -0.63178     1.67360  0.0
    119    120    121    139   5     0.00000     0.00000     1.25520  0.0
    119    120    121    140   5     0.00000     0.00000     1.25520  0.0
    137    120    121    122   5     0.00000     0.00000     1.25520  0.0
    137    120    121    139   5     0.00000     0.00000     1.25520  0.0
    137    120    121    140   5     0.00000     0.00000     1.25520  0.0
    138    120    121    122   5     0.00000     0.00000     1.25520  0.0
    138    120    121    139   5     0.00000     0.00000     1.25520  0.0
    138    120    121    140   5     0.00000     0.00000     1.25520  0.0
    120    121    122    123   5     4.74884    -0.63178     1.67360  0.0
    120    121    122    141   5     0.00000     0.00000     1.25520  0.0
    120    121    122    142   5     0.00000     0.00000     1.25520  0.0
    139    121    122    123   5     0.00000     0.00000     1.25520  0.0
    139    121    122    141   5     0.00000     0.00000     1.25520  0.0
    139    121    122    142   5     0.00000     0.00000     1.25520  0.0
    140    121    122    123   5     0.00000     0.00000     1.25520  0.0
    140    121    122    141   5     0.00000     0.00000     1.25520  0.0
    140    121    122    142   5     0.00000     0.00000     1.25520  0.0
    121    122    123    124   5     4.74884    -0.63178     1.67360  0.0
    121    122    123    143   5     0.00000     0.00000     1.25520  0.0
    121    122    123    144   5     0.00000     0.00000     1.25520  0.0
    141    122    123    124   5     0.00000     0.00000     1.25520  0.0
    141    122    123    143   5     0.00000     0.00000     1.25520  0.0
    141    122    123    144   5     0.00000     0.00000     1.25520  0.0
    142    122    123    124   5     0.00000     0.00000     1.25520  0.0
    142    122    123    143   5     0.00000     0.00000     1.25520  0.0
    142    122    123    144   5     0.00000     0.00000     1.25520  0.0
    122    123    124    125   5     4.74884    -0.63178     1.67360  0.0
    122    123    124    145   5     0.00000     0.00000     1.25520  0.0
    122    123    124    146   5     0.00000     0.00000     1.25520  0.0
    143    123    124    125   5     0.00000     0.00000     1.25520  0.0
    143    123    124    145   5     0.00000     0.00000     1.25520  0.0
    143    123    124    146   5     0.00000     0.00000     1.25520  0.0
    144    123    124    125   5     0.00000     0.00000     1.25520  0.0
    144    123    124    145   5     0.00000     0.00000     1.25520  0.0
    144    123    124    146   5     0.00000     0.00000     1.25520  0.0
    123    124    125    126   5     3.67355     4.10869     2.37651  0.0
    123    124    125    147   5     0.00000     0.00000     1.25520  0.0
    123    124    125    148   5     0.00000     0.00000     1.25520  0.0
    145    124    125    126   5     0.00000     0.00000     1.25520  0.0
    145    124    125    147   5     0.00000     0.00000     1.25520  0.0
    145    124    125    148   5     0.00000     0.00000     1.25520  0.0
    146    124    125    126   5     0.00000     0.00000     1.25520  0.0
    146    124    125    147   5     0.00000     0.00000     1.25520  0.0
    146    124    125    148   5     0.00000     0.00000     1.25520  0.0
    124    125    126    149   5     0.00000     0.00000     0.00000  0.0
    124    125    126    150   5    -3.67774    -0.67781     0.28033  0.0
    147    125    126    149   5     0.00000     0.00000     0.00000  0.0
    147    125    126    150   5     0.00000     0.00000     0.00000  0.0
    148    125    126    149   5     0.00000     0.00000     0.00000  0.0
    148    125    126    150   5     0.00000     0.00000     0.00000  0.0
    125    126    150    151   5     0.00000    25.47638     0.00000  0.0
    125    126    150    152   5    12.53945    12.88254     0.00000  0.0
    149    126    150    151   5     0.00000    20.50160     0.00000  0.0
    149    126    150    152   5     0.00000    20.50160     0.00000  0.0
    126    150    152    153   5    11.69428    -0.66526    -1.56900  0.0
    126    150    152    164   5     0.00000     0.00000     0.00000  0.0
    126    150    152    165   5     0.00000     0.00000     0.00000  0.0
    151    150    152    153   5     0.00000     2.52295     0.00000  0.0
    151    150    152    164   5     0.00000     0.00000     0.00000  0.0
    151    150    152    165   5     0.00000     0.00000     0.00000  0.0
    150    152    153    154   5    -8.00818    -1.52298     2.46438  0.0
    150    152    153    166   5     0.00000     0.00000    -0.94140  0.0
    150    152    153    167   5     0.00000     0.00000    -0.94140  0.0
    164    152    153    154   5     0.00000     0.00000     1.25520  0.0
    164    152    153    166   5     0.00000     0.00000     1.25520  0.0
    164    152    153    167   5     0.00000     0.00000     1.25520  0.0
    165    152    153    154   5     0.00000     0.00000     1.25520  0.0
    165    152    153    166   5     0.00000     0.00000     1.25520  0.0
    165    152    153    167   5     0.00000     0.00000     1.25520  0.0
    152    153    154    155   5     4.74884    -0.63178     1.67360  0.0
    152    153    154    168   5     0.00000     0.00000     1.25520  0.0
    152    153    154    169   5     0.00000     0.00000     1.25520  0.0
    166    153    154    155   5     0.00000     0.00000     1.25520  0.0
    166    153    154    168   5     0.00000     0.00000     1.25520  0.0
    166    153    154    169   5     0.00000     0.00000     1.25520  0.0
    167    153    154    155   5     0.00000     0.00000     1.25520  0.0
    167    153    154    168   5     0.00000     0.00000     1.25520  0.0
    167    153    154    169   5     0.00000     0.00000     1.25520  0.0
    153    154    155    156   5     4.74884    -0.63178     1.67360  0.0
    153    154    155    170   5     0.00000     0.00000     1.25520  0.0
    153    154    155    171   5     0.00000     0.00000     1.25520  0.0
    168    154    155    156   5     0.00000     0.00000     1.25520  0.0
    168    154    155    170   5     0.00000     0.00000     1.25520  0.0
    168    154    155    171   5     0.00000     0.00000     1.25520  0.0
    169    154    155    156   5     0.00000     0.00000     1.25520  0.0
    169    154    155    170   5     0.00000     0.00000     1.25520  0.0
    169    154    155    171   5     0.00000     0.00000     1.25520  0.0
    154    155    156    157   5     4.74884    -0.63178     1.67360  0.0
    154    155    156    172   5     0.00000     0.00000     1.25520  0.0
    154    155    156    173   5     0.00000     0.00000     1.25520  0.0
    170    155    156    157   5     0.00000     0.00000     1.25520  0.0
    170    155    156    172   5     0.00000     0.00000     1.25520  0.0
    170    155    156    173   5     0.00000     0.00000     1.25520  0.0
    171    155    156    157   5     0.00000     0.00000     1.25520  0.0
    171    155    156    172   5     0.00000     0.00000     1.25520  0.0
    171    155    156    173   5     0.00000     0.00000     1.25520  0.0
    155    156    157    158   5     4.74884    -0.63178     1.67360  0.0
    155    156    157    174   5     0.00000     0.00000     1.25520  0.0
    155    156    157    175   5     0.00000     0.00000     1.25520  0.0
    172    156    157    158   5     0.00000     0.00000     1.25520  0.0
    172    156    157    174   5     0.00000     0.00000     1.25520  0.0
    172    156    157    175   5     0.00000     0.00000     1.25520  0.0
    173    156    157    158   5     0.00000     0.00000     1.25520  0.0
    173    156    157    174   5     0.00000     0.00000     1.25520  0.0
    173    156    157    175   5     0.00000     0.00000     1.25520  0.0
    156    157    158    159   5     4.74884    -0.63178     1.67360  0.0
    156    157    158    176   5     0.00000     0.00000     1.25520  0.0
    156    157    158    177   5     0.00000     0.00000     1.25520  0.0
    174    157    158    159   5     0.00000     0.00000     1.25520  0.0
    174    157    158    176   5     0.00000     0.00000     1.25520  0.0
    174    157    158    177   5     0.00000     0.00000     1.25520  0.0
    175    157    158    159   5     0.00000     0.00000     1.25520  0.0
    175    157    158    176   5     0.00000     0.00000     1.25520  0.0
    175    157    158    177   5     0.00000     0.00000     1.25520  0.0
    157    158    159    160   5     4.74884    -0.63178     1.67360  0.0
    157    158    159    178   5     0.00000     0.00000     1.25520  0.0
    157    158    159    179   5     0.00000     0.00000     1.25520  0.0
    176    158    159    160   5     0.00000     0.00000     1.25520  0.0
    176    158    159    178   5     0.00000     0.00000     1.25520  0.0
    176    158    159    179   5     0.00000     0.00000     1.25520  0.0
    177    158    159    160   5     0.00000     0.00000     1.25520  0.0
    177    158    159    178   5     0.00000     0.00000     1.25520  0.0
    177    158    159    179   5     0.00000     0.00000     1.25520  0.0
    158    159    160    161   5     4.74884    -0.63178     1.67360  0.0
    158    159    160    180   5     0.00000     0.00000     1.25520  0.0
    158    159    160    181   5     0.00000     0.00000     1.25520  0.0
    178    159    160    161   5     0.00000     0.00000     1.25520  0.0
    178    159    160    180   5     0.00000     0.00000     1.25520  0.0
    178    159    160    181   5     0.00000     0.00000     1.25520  0.0
    179    159    160    161   5     0.00000     0.00000     1.25520  0.0
    179    159    160    180   5     0.00000     0.00000     1.25520  0.0
    179    159    160    181   5     0.00000     0.00000     1.25520  0.0
    159    160    161    162   5     4.74884    -0.63178     1.67360  0.0
    159    160    161    182   5     0.00000     0.00000     1.25520  0.0
    159    160    161    183   5     0.00000     0.00000     1.25520  0.0
    180    160    161    162   5     0.00000     0.00000     1.25520  0.0
    180    160    161    182   5     0.00000     0.00000     1.25520  0.0
    180    160    161    183   5     0.00000     0.00000     1.25520  0.0
    181    160    161    162   5     0.00000     0.00000     1.25520  0.0
    181    160    161    182   5     0.00000     0.00000     1.25520  0.0
    181    160    161    183   5     0.00000     0.00000     1.25520  0.0
    160    161    162    163   5     3.67355     4.10869     2.37651  0.0
    160    161    162    184   5     0.00000     0.00000     1.25520  0.0
    160    161    162    185   5     0.00000     0.00000     1.25520  0.0
    182    161    162    163   5     0.00000     0.00000     1.25520  0.0
    182    161    162    184   5     0.00000     0.00000     1.25520  0.0
    182    161    162    185   5     0.00000     0.00000     1.25520  0.0
    183    161    162    163   5     0.00000     0.00000     1.25520  0.0
    183    161    162    184   5     0.00000     0.00000     1.25520  0.0
    183    161    162    185   5     0.00000     0.00000     1.25520  0.0
    161    162    163    186   5     0.00000     0.00000     0.00000  0.0
    161    162    163    187   5    -3.67774    -0.67781     0.28033  0.0
    184    162    163    186   5     0.00000     0.00000     0.00000  0.0
    184    162    163    187   5     0.00000     0.00000     0.00000  0.0
    185    162    163    186   5     0.00000     0.00000     0.00000  0.0
    185    162    163    187   5     0.00000     0.00000     0.00000  0.0
    162    163    187    188   5     0.00000    25.47638     0.00000  0.0
    162    163    187    189   5    12.53945    12.88254     0.00000  0.0
    186    163    187    188   5     0.00000    20.50160     0.00000  0.0
    186    163    187    189   5     0.00000    20.50160     0.00000  0.0
    163    187    189    190   5    11.69428    -0.66526    -1.56900  0.0
    163    187    189    201   5     0.00000     0.00000     0.00000  0.0
    163    187    189    202   5     0.00000     0.00000     0.00000  0.0
    188    187    189    190   5     0.00000     2.52295     0.00000  0.0
    188    187    189    201   5     0.00000     0.00000     0.00000  0.0
    188    187    189    202   5     0.00000     0.00000     0.00000  0.0
    187    189    190    191   5    -8.00818    -1.52298     2.46438  0.0
    187    189    190    203   5     0.00000     0.00000    -0.94140  0.0
    187    189    190    204   5     0.00000     0.00000    -0.94140  0.0
    201    189    190    191   5     0.00000     0.00000     1.25520  0.0
    201    189    190    203   5     0.00000     0.00000     1.25520  0.0
    201    189    190    204   5     0.00000     0.00000     1.25520  0.0
    202    189    190    191   5     0.00000     0.00000     1.25520  0.0
    202    189    190    203   5     0.00000     0.00000     1.25520  0.0
    202    189    190    204   5     0.00000     0.00000     1.25520  0.0
    189    190    191    192   5     4.74884    -0.63178     1.67360  0.0
    189    190    191    205   5     0.00000     0.00000     1.25520  0.0
    189    190    191    206   5     0.00000     0.00000     1.25520  0.0
    203    190    191    192   5     0.00000     0.00000     1.25520  0.0
    203    190    191    205   5     0.00000     0.00000     1.25520  0.0
    203    190    191    206   5     0.00000     0.00000     1.25520  0.0
    204    190    191    192   5     0.00000     0.00000     1.25520  0.0
    204    190    191    205   5     0.00000     0.00000     1.25520  0.0
    204    190    191    206   5     0.00000     0.00000     1.25520  0.0
    190    191    192    193   5     4.74884    -0.63178     1.67360  0.0
    190    191    192    207   5     0.00000     0.00000     1.25520  0.0
    190    191    192    208   5     0.00000     0.00000     1.25520  0.0
    205    191    192    193   5     0.00000     0.00000     1.25520  0.0
    205    191    192    207   5     0.00000     0.00000     1.25520  0.0
    205    191    192    208   5     0.00000     0.00000     1.25520  0.0
    206    191    192    193   5     0.00000     0.00000     1.25520  0.0
    206    191    192    207   5     0.00000     0.00000     1.25520  0.0
    206    191    192    208   5     0.00000     0.00000     1.25520  0.0
    191    192    193    194   5     4.74884    -0.63178     1.67360  0.0
    191    192    193    209   5     0.00000     0.00000     1.25520  0.0
    191    192    193    210   5     0.00000     0.00000     1.25520  0.0
    207    192    193    194   5     0.00000     0.00000     1.25520  0.0
    207    192    193    209   5     0.00000     0.00000     1.25520  0.0
    207    192    193    210   5     0.00000     0.00000     1.25520  0.0
    208    192    193    194   5     0.00000     0.00000     1.25520  0.0
    208    192    193    209   5     0.00000     0.00000     1.25520  0.0
    208    192    193    210   5     0.00000     0.00000     1.25520  0.0
    192    193    194    195   5     4.74884    -0.63178     1.67360  0.0
    192    193    194    211   5     0.00000     0.00000     1.25520  0.0
    192    193    194    212   5     0.00000     0.00000     1.25520  0.0
    209    193    194    195   5     0.00000     0.00000     1.25520  0.0
    209    193    194    211   5     0.00000     0.00000     1.25520  0.0
    209    193    194    212   5     0.00000     0.00000     1.25520  0.0
    210    193    194    195   5     0.00000     0.00000     1.25520  0.0
    210    193    194    211   5     0.00000     0.00000     1.25520  0.0
    210    193    194    212   5     0.00000     0.00000     1.25520  0.0
    193    194    195    196   5     4.74884    -0.63178     1.67360  0.0
    193    194    195    213   5     0.00000     0.00000     1.25520  0.0
    193    194    195    214   5     0.00000     0.00000     1.25520  0.0
    211    194    195    196   5     0.00000     0.00000     1.25520  0.0
    211    194    195    213   5     0.00000     0.00000     1.25520  0.0
    211    194    195    214   5     0.00000     0.00000     1.25520  0.0
    212    194    195    196   5     0.00000     0.00000     1.25520  0.0
    212    194    195    213   5     0.00000     0.00000     1.25520  0.0
    212    194    195    214   5     0.00000     0.00000     1.25520  0.0
    194    195    196    197   5     4.74884    -0.63178     1.67360  0.0
    194    195    196    215   5     0.00000     0.00000     1.25520  0.0
    194    195    196    216   5     0.00000     0.00000     1.25520  0.0
    213    195    196    197   5     0.00000     0.00000     1.25520  0.0
    213    195    196    215   5     0.00000     0.00000     1.25520  0.0
    213    195    196    216   5     0.00000     0.00000     1.25520  0.0
    214    195    196    197   5     0.00000     0.00000     1.25520  0.0
    214    195    196    215   5     0.00000     0.00000     1.25520  0.0
    214    195    196    216   5     0.00000     0.00000     1.25520  0.0
    195    196    197    198   5     4.74884    -0.63178     1.67360  0.0
    195    196    197    217   5     0.00000     0.00000     1.25520  0.0
    195    196    197    218   5     0.00000     0.00000     1.25520  0.0
    215    196    197    198   5     0.00000     0.00000     1.25520  0.0
    215    196    197    217   5     0.00000     0.00000     1.25520  0.0
    215    196    197    218   5     0.00000     0.00000     1.25520  0.0
    216    196    197    198   5     0.00000     0.00000     1.25520  0.0
    216    196    197    217   5     0.00000     0.00000     1.25520  0.0
    216    196    197    218   5     0.00000     0.00000     1.25520  0.0
    196    197    198    199   5     4.74884    -0.63178     1.67360  0.0
    196    197    198    219   5     0.00000     0.00000     1.25520  0.0
    196    197    198    220   5     0.00000     0.00000     1.25520  0.0
    217    197    198    199   5     0.00000     0.00000     1.25520  0.0
    217    197    198    219   5     0.00000     0.00000     1.25520  0.0
    217    197    198    220   5     0.00000     0.00000     1.25520  0.0
    218    197    198    199   5     0.00000     0.00000     1.25520  0.0
    218    197    198    219   5     0.00000     0.00000     1.25520  0.0
    218    197    198    220   5     0.00000     0.00000     1.25520  0.0
    197    198    199    200   5     3.67355     4.10869     2.37651  0.0
    197    198    199    221   5     0.00000     0.00000     1.25520  0.0
    197    198    199    222   5     0.00000     0.00000     1.25520  0.0
    219    198    199    200   5     0.00000     0.00000     1.25520  0.0
    219    198    199    221   5     0.00000     0.00000     1.25520  0.0
    219    198    199    222   5     0.00000     0.00000     1.25520  0.0
    220    198    199    200   5     0.00000     0.00000     1.25520  0.0
    220    198    199    221   5     0.00000     0.00000     1.25520  0.0
    220    198    199    222   5     0.00000     0.00000     1.25520  0.0
    198    199    200    223   5     0.00000     0.00000     0.00000  0.0
    198    199    200    224   5    -3.67774    -0.67781     0.28033  0.0
    221    199    200    223   5     0.00000     0.00000     0.00000  0.0
    221    199    200    224   5     0.00000     0.00000     0.00000  0.0
    222    199    200    223   5     0.00000     0.00000     0.00000  0.0
    222    199    200    224   5     0.00000     0.00000     0.00000  0.0
    199    200    224    225   5     0.00000    25.47638     0.00000  0.0
    199    200    224    226   5    12.53945    12.88254     0.00000  0.0
    223    200    224    225   5     0.00000    20.50160     0.00000  0.0
    223    200    224    226   5     0.00000    20.50160     0.00000  0.0
    200    224    226    227   5    11.69428    -0.66526    -1.56900  0.0
    200    224    226    238   5     0.00000     0.00000     0.00000  0.0
    200    224    226    239   5     0.00000     0.00000     0.00000  0.0
    225    224    226    227   5     0.00000     2.52295     0.00000  0.0
    225    224    226    238   5     0.00000     0.00000     0.00000  0.0
    225    224    226    239   5     0.00000     0.00000     0.00000  0.0
    224    226    227    228   5    -8.00818    -1.52298     2.46438  0.0
    224    226    227    240   5     0.00000     0.00000    -0.94140  0.0
    224    226    227    241   5     0.00000     0.00000    -0.94140  0.0
    238    226    227    228   5     0.00000     0.00000     1.25520  0.0
    238    226    227    240   5     0.00000     0.00000     1.25520  0.0
    238    226    227    241   5     0.00000     0.00000     1.25520  0.0
    239    226    227    228   5     0.00000     0.00000     1.25520  0.0
    239    226    227    240   5     0.00000     0.00000     1.25520  0.0
    239    226    227    241   5     0.00000     0.00000     1.25520  0.0
    226    227    228    229   5     4.74884    -0.63178     1.67360  0.0
    226    227    228    242   5     0.00000     0.00000     1.25520  0.0
    226    227    228    243   5     0.00000     0.00000     1.25520  0.0
    240    227    228    229   5     0.00000     0.00000     1.25520  0.0
    240    227    228    242   5     0.00000     0.00000     1.25520  0.0
    240    227    228    243   5     0.00000     0.00000     1.25520  0.0
    241    227    228    229   5     0.00000     0.00000     1.25520  0.0
    241    227    228    242   5     0.00000     0.00000     1.25520  0.0
    241    227    228    243   5     0.00000     0.00000     1.25520  0.0
    227    228    229    230   5     4.74884    -0.63178     1.67360  0.0
    227    228    229    244   5     0.00000     0.00000     1.25520  0.0
    227    228    229    245   5     0.00000     0.00000     1.25520  0.0
    242    228    229    230   5     0.00000     0.00000     1.25520  0.0
    242    228    229    244   5     0.00000     0.00000     1.25520  0.0
    242    228    229    245   5     0.00000     0.00000     1.25520  0.0
    243    228    229    230   5     0.00000     0.00000     1.25520  0.0
    243    228    229    244   5     0.00000     0.00000     1.25520  0.0
    243    228    229    245   5     0.00000     0.00000     1.25520  0.0
    228    229    230    231   5     4.74884    -0.63178     1.67360  0.0
    228    229    230    246   5     0.00000     0.00000     1.25520  0.0
    228    229    230    247   5     0.00000     0.00000     1.25520  0.0
    244    229    230    231   5     0.00000     0.00000     1.25520  0.0
    244    229    230    246   5     0.00000     0.00000     1.25520  0.0
    244    229    230    247   5     0.00000     0.00000     1.25520  0.0
    245    229    230    231   5     0.00000     0.00000     1.25520  0.0
    245    229    230    246   5     0.00000     0.00000     1.25520  0.0
    245    229    230    247   5     0.00000     0.00000     1.25520  0.0
    229    230    231    232   5     4.74884    -0.63178     1.67360  0.0
    229    230    231    248   5     0.00000     0.00000     1.25520  0.0
    229    230    231    249   5     0.00000     0.00000     1.25520  0.0
    246    230    231    232   5     0.00000     0.00000     1.25520  0.0
    246    230    231    248   5     0.00000     0.00000     1.25520  0.0
    246    230    231    249   5     0.00000     0.00000     1.25520  0.0
    247    230    231    232   5     0.00000     0.00000     1.25520  0.0
    247    230    231    248   5     0.00000     0.00000     1.25520  0.0
    247    230    231    249   5     0.00000     0.00000     1.25520  0.0
    230    231    232    233   5     4.74884    -0.63178     1.67360  0.0
    230    231    232    250   5     0.00000     0.00000     1.25520  0.0
    230    231    232    251   5     0.00000     0.00000     1.25520  0.0
    248    231    232    233   5     0.00000     0.00000     1.25520  0.0
    248    231    232    250   5     0.00000     0.00000     1.25520  0.0
    248    231    232    251   5     0.00000     0.00000     1.25520  0.0
    249    231    232    233   5     0.00000     0.00000     1.25520  0.0
    249    231    232    250   5     0.00000     0.00000     1.25520  0.0
    249    231    232    251   5     0.00000     0.00000     1.25520  0.0
    231    232    233    234   5     4.74884    -0.63178     1.67360  0.0
    231    232    233    252   5     0.00000     0.00000     1.25520  0.0
    231    232    233    253   5     0.00000     0.00000     1.25520  0.0
    250    232    233    234   5     0.00000     0.00000     1.25520  0.0
    250    232    233    252   5     0.00000     0.00000     1.25520  0.0
    250    232    233    253   5     0.00000     0.00000     1.25520  0.0
    251    232    233    234   5     0.00000     0.00000     1.25520  0.0
    251    232    233    252   5     0.00000     0.00000     1.25520  0.0
    251    232    233    253   5     0.00000     0.00000     1.25520  0.0
    232    233    234    235   5     4.74884    -0.63178     1.67360  0.0
    232    233    234    254   5     0.00000     0.00000     1.25520  0.0
    232    233    234    255   5     0.00000     0.00000     1.25520  0.0
    252    233    234    235   5     0.00000     0.00000     1.25520  0.0
    252    233    234    254   5     0.00000     0.00000     1.25520  0.0
    252    233    234    255   5     0.00000     0.00000     1.25520  0.0
    253    233    234    235   5     0.00000     0.00000     1.25520  0.0
    253    233    234    254   5     0.00000     0.00000     1.25520  0.0
    253    233    234    255   5     0.00000     0.00000     1.25520  0.0
    233    234    235    236   5     4.74884    -0.63178     1.67360  0.0
    233    234    235    256   5     0.00000     0.00000     1.25520  0.0
    233    234    235    257   5     0.00000     0.00000     1.25520  0.0
    254    234    235    236   5     0.00000     0.00000     1.25520  0.0
    254    234    235    256   5     0.00000     0.00000     1.25520  0.0
    254    234    235    257   5     0.00000     0.00000     1.25520  0.0
    255    234    235    236   5     0.00000     0.00000     1.25520  0.0
    255    234    235    256   5     0.00000     0.00000     1.25520  0.0
    255    234    235    257   5     0.00000     0.00000     1.25520  0.0
    234    235    236    237   5     3.67355     4.10869     2.37651  0.0
    234    235    236    258   5     0.00000     0.00000     1.25520  0.0
    234    235    236    259   5     0.00000     0.00000     1.25520  0.0
    256    235    236    237   5     0.00000     0.00000     1.25520  0.0
    256    235    236    258   5     0.00000     0.00000     1.25520  0.0
    256    235    236    259   5     0.00000     0.00000     1.25520  0.0
    257    235    236    237   5     0.00000     0.00000     1.25520  0.0
    257    235    236    258   5     0.00000     0.00000     1.25520  0.0
    257    235    236    259   5     0.00000     0.00000     1.25520  0.0
    235    236    237    260   5     0.00000     0.00000     0.00000  0.0
    235    236    237    261   5    -3.67774    -0.67781     0.28033  0.0
    258    236    237    260   5     0.00000     0.00000     0.00000  0.0
    258    236    237    261   5     0.00000     0.00000     0.00000  0.0
    259    236    237    260   5     0.00000     0.00000     0.00000  0.0
    259    236    237    261   5     0.00000     0.00000     0.00000  0.0
    236    237    261    262   5     0.00000    25.47638     0.00000  0.0
    236    237    261    263   5    12.53945    12.88254     0.00000  0.0
    260    237    261    262   5     0.00000    20.50160     0.00000  0.0
    260    237    261    263   5     0.00000    20.50160     0.00000  0.0
    237    261    263    264   5    11.69428    -0.66526    -1.56900  0.0
    237    261    263    275   5     0.00000     0.00000     0.00000  0.0
    237    261    263    276   5     0.00000     0.00000     0.00000  0.0
    262    261    263    264   5     0.00000     2.52295     0.00000  0.0
    262    261    263    275   5     0.00000     0.00000     0.00000  0.0
    262    261    263    276   5     0.00000     0.00000     0.00000  0.0
    261    263    264    265   5    -8.00818    -1.52298     2.46438  0.0
    261    263    264    277   5     0.00000     0.00000    -0.94140  0.0
    261    263    264    278   5     0.00000     0.00000    -0.94140  0.0
    275    263    264    265   5     0.00000     0.00000     1.25520  0.0
    275    263    264    277   5     0.00000     0.00000     1.25520  0.0
    275    263    264    278   5     0.00000     0.00000     1.25520  0.0
    276    263    264    265   5     0.00000     0.00000     1.25520  0.0
    276    263    264    277   5     0.00000     0.00000     1.25520  0.0
    276    263    264    278   5     0.00000     0.00000     1.25520  0.0
    263    264    265    266   5     4.74884    -0.63178     1.67360  0.0
    263    264    265    279   5     0.00000     0.00000     1.25520  0.0
    263    264    265    280   5     0.00000     0.00000     1.25520  0.0
    277    264    265    266   5     0.00000     0.00000     1.25520  0.0
    277    264    265    279   5     0.00000     0.00000     1.25520  0.0
    277    264    265    280   5     0.00000     0.00000     1.25520  0.0
    278    264    265    266   5     0.00000     0.00000     1.25520  0.0
    278    264    265    279   5     0.00000     0.00000     1.25520  0.0
    278    264    265    280   5     0.00000     0.00000     1.25520  0.0
    264    265    266    267   5     4.74884    -0.63178     1.67360  0.0
    264    265    266    281   5     0.00000     0.00000     1.25520  0.0
    264    265    266    282   5     0.00000     0.00000     1.25520  0.0
    279    265    266    267   5     0.00000     0.00000     1.25520  0.0
    279    265    266    281   5     0.00000     0.00000     1.25520  0.0
    279    265    266    282   5     0.00000     0.00000     1.25520  0.0
    280    265    266    267   5     0.00000     0.00000     1.25520  0.0
    280    265    266    281   5     0.00000     0.00000     1.25520  0.0
    280    265    266    282   5     0.00000     0.00000     1.25520  0.0
    265    266    267    268   5     4.74884    -0.63178     1.67360  0.0
    265    266    267    283   5     0.00000     0.00000     1.25520  0.0
    265    266    267    284   5     0.00000     0.00000     1.25520  0.0
    281    266    267    268   5     0.00000     0.00000     1.25520  0.0
    281    266    267    283   5     0.00000     0.00000     1.25520  0.0
    281    266    267    284   5     0.00000     0.00000     1.25520  0.0
    282    266    267    268   5     0.00000     0.00000     1.25520  0.0
    282    266    267    283   5     0.00000     0.00000     1.25520  0.0
    282    266    267    284   5     0.00000     0.00000     1.25520  0.0
    266    267    268    269   5     4.74884    -0.63178     1.67360  0.0
    266    267    268    285   5     0.00000     0.00000     1.25520  0.0
    266    267    268    286   5     0.00000     0.00000     1.25520  0.0
    283    267    268    269   5     0.00000     0.00000     1.25520  0.0
    283    267    268    285   5     0.00000     0.00000     1.25520  0.0
    283    267    268    286   5     0.00000     0.00000     1.25520  0.0
    284    267    268    269   5     0.00000     0.00000     1.25520  0.0
    284    267    268    285   5     0.00000     0.00000     1.25520  0.0
    284    267    268    286   5     0.00000     0.00000     1.25520  0.0
    267    268    269    270   5     4.74884    -0.63178     1.67360  0.0
    267    268    269    287   5     0.00000     0.00000     1.25520  0.0
    267    268    269    288   5     0.00000     0.00000     1.25520  0.0
    285    268    269    270   5     0.00000     0.00000     1.25520  0.0
    285    268    269    287   5     0.00000     0.00000     1.25520  0.0
    285    268    269    288   5     0.00000     0.00000     1.25520  0.0
    286    268    269    270   5     0.00000     0.00000     1.25520  0.0
    286    268    269    287   5     0.00000     0.00000     1.25520  0.0
    286    268    269    288   5     0.00000     0.00000     1.25520  0.0
    268    269    270    271   5     4.74884    -0.63178     1.67360  0.0
    268    269    270    289   5     0.00000     0.00000     1.25520  0.0
    268    269    270    290   5     0.00000     0.00000     1.25520  0.0
    287    269    270    271   5     0.00000     0.00000     1.25520  0.0
    287    269    270    289   5     0.00000     0.00000     1.25520  0.0
    287    269    270    290   5     0.00000     0.00000     1.25520  0.0
    288    269    270    271   5     0.00000     0.00000     1.25520  0.0
    288    269    270    289   5     0.00000     0.00000     1.25520  0.0
    288    269    270    290   5     0.00000     0.00000     1.25520  0.0
    269    270    271    272   5     4.74884    -0.63178     1.67360  0.0
    269    270    271    291   5     0.00000     0.00000     1.25520  0.0
    269    270    271    292   5     0.00000     0.00000     1.25520  0.0
    289    270    271    272   5     0.00000     0.00000     1.25520  0.0
    289    270    271    291   5     0.00000     0.00000     1.25520  0.0
    289    270    271    292   5     0.00000     0.00000     1.25520  0.0
    290    270    271    272   5     0.00000     0.00000     1.25520  0.0
    290    270    271    291   5     0.00000     0.00000     1.25520  0.0
    290    270    271    292   5     0.00000     0.00000     1.25520  0.0
    270    271    272    273   5     4.74884    -0.63178     1.67360  0.0
    270    271    272    293   5     0.00000     0.00000     1.25520  0.0
    270    271    272    294   5     0.00000     0.00000     1.25520  0.0
    291    271    272    273   5     0.00000     0.00000     1.25520  0.0
    291    271    272    293   5     0.00000     0.00000     1.25520  0.0
    291    271    272    294   5     0.00000     0.00000     1.25520  0.0
    292    271    272    273   5     0.00000     0.00000     1.25520  0.0
    292    271    272    293   5     0.00000     0.00000     1.25520  0.0
    292    271    272    294   5     0.00000     0.00000     1.25520  0.0
    271    272    273    274   5     3.67355     4.10869     2.37651  0.0
    271    272    273    295   5     0.00000     0.00000     1.25520  0.0
    271    272    273    296   5     0.00000     0.00000     1.25520  0.0
    293    272    273    274   5     0.00000     0.00000     1.25520  0.0
    293    272    273    295   5     0.00000     0.00000     1.25520  0.0
    293    272    273    296   5     0.00000     0.00000     1.25520  0.0
    294    272    273    274   5     0.00000     0.00000     1.25520  0.0
    294    272    273    295   5     0.00000     0.00000     1.25520  0.0
    294    272    273    296   5     0.00000     0.00000     1.25520  0.0
    272    273    274    297   5     0.00000     0.00000     0.00000  0.0
    272    273    274    298   5    -3.67774    -0.67781     0.28033  0.0
    295    273    274    297   5     0.00000     0.00000     0.00000  0.0
    295    273    274    298   5     0.00000     0.00000     0.00000  0.0
    296    273    274    297   5     0.00000     0.00000     0.00000  0.0
    296    273    274    298   5     0.00000     0.00000     0.00000  0.0
    273    274    298    299   5     0.00000    25.47638     0.00000  0.0
    273    274    298    300   5    12.53945    12.88254     0.00000  0.0
    297    274    298    299   5     0.00000    20.50160     0.00000  0.0
    297    274    298    300   5     0.00000    20.50160     0.00000  0.0
    274    298    300    301   5    11.69428    -0.66526    -1.56900  0.0
    274    298    300    312   5     0.00000     0.00000     0.00000  0.0
    274    298    300    313   5     0.00000     0.00000     0.00000  0.0
    299    298    300    301   5     0.00000     2.52295     0.00000  0.0
    299    298    300    312   5     0.00000     0.00000     0.00000  0.0
    299    298    300    313   5     0.00000     0.00000     0.00000  0.0
    298    300    301    302   5    -8.00818    -1.52298     2.46438  0.0
    298    300    301    314   5     0.00000     0.00000    -0.94140  0.0
    298    300    301    315   5     0.00000     0.00000    -0.94140  0.0
    312    300    301    302   5     0.00000     0.00000     1.25520  0.0
    312    300    301    314   5     0.00000     0.00000     1.25520  0.0
    312    300    301    315   5     0.00000     0.00000     1.25520  0.0
    313    300    301    302   5     0.00000     0.00000     1.25520  0.0
    313    300    301    314   5     0.00000     0.00000     1.25520  0.0
    313    300    301    315   5     0.00000     0.00000     1.25520  0.0
    300    301    302    303   5     4.74884    -0.63178     1.67360  0.0
    300    301    302    316   5     0.00000     0.00000     1.25520  0.0
    300    301    302    317   5     0.00000     0.00000     1.25520  0.0
    314    301    302    303   5     0.00000     0.00000     1.25520  0.0
    314    301    302    316   5     0.00000     0.00000     1.25520  0.0
    314    301    302    317   5     0.00000     0.00000     1.25520  0.0
    315    301    302    303   5     0.00000     0.00000     1.25520  0.0
    315    301    302    316   5     0.00000     0.00000     1.25520  0.0
    315    301    302    317   5     0.00000     0.00000     1.25520  0.0
    301    302    303    304   5     4.74884    -0.63178     1.67360  0.0
    301    302    303    318   5     0.00000     0.00000     1.25520  0.0
    301    302    303    319   5     0.00000     0.00000     1.25520  0.0
    316    302    303    304   5     0.00000     0.00000     1.25520  0.0
    316    302    303    318   5     0.00000     0.00000     1.25520  0.0
    316    302    303    319   5     0.00000     0.00000     1.25520  0.0
    317    302    303    304   5     0.00000     0.00000     1.25520  0.0
    317    302    303    318   5     0.00000     0.00000     1.25520  0.0
    317    302    303    319   5     0.00000     0.00000     1.25520  0.0
    302    303    304    305   5     4.74884    -0.63178     1.67360  0.0
    302    303    304    320   5     0.00000     0.00000     1.25520  0.0
    302    303    304    321   5     0.00000     0.00000     1.25520  0.0
    318    303    304    305   5     0.00000     0.00000     1.25520  0.0
    318    303    304    320   5     0.00000     0.00000     1.25520  0.0
    318    303    304    321   5     0.00000     0.00000     1.25520  0.0
    319    303    304    305   5     0.00000     0.00000     1.25520  0.0
    319    303    304    320   5     0.00000     0.00000     1.25520  0.0
    319    303    304    321   5     0.00000     0.00000     1.25520  0.0
    303    304    305    306   5     4.74884    -0.63178     1.67360  0.0
    303    304    305    322   5     0.00000     0.00000     1.25520  0.0
    303    304    305    323   5     0.00000     0.00000     1.25520  0.0
    320    304    305    306   5     0.00000     0.00000     1.25520  0.0
    320    304    305    322   5     0.00000     0.00000     1.25520  0.0
    320    304    305    323   5     0.00000     0.00000     1.25520  0.0
    321    304    305    306   5     0.00000     0.00000     1.25520  0.0
    321    304    305    322   5     0.00000     0.00000     1.25520  0.0
    321    304    305    323   5     0.00000     0.00000     1.25520  0.0
    304    305    306    307   5     4.74884    -0.63178     1.67360  0.0
    304    305    306    324   5     0.00000     0.00000     1.25520  0.0
    304    305    306    325   5     0.00000     0.00000     1.25520  0.0
    322    305    306    307   5     0.00000     0.00000     1.25520  0.0
    322    305    306    324   5     0.00000     0.00000     1.25520  0.0
    322    305    306    325   5     0.00000     0.00000     1.25520  0.0
    323    305    306    307   5     0.00000     0.00000     1.25520  0.0
    323    305    306    324   5     0.00000     0.00000     1.25520  0.0
    323    305    306    325   5     0.00000     0.00000     1.25520  0.0
    305    306    307    308   5     4.74884    -0.63178     1.67360  0.0
    305    306    307    326   5     0.00000     0.00000     1.25520  0.0
    305    306    307    327   5     0.00000     0.00000     1.25520  0.0
    324    306    307    308   5     0.00000     0.00000     1.25520  0.0
    324    306    307    326   5     0.00000     0.00000     1.25520  0.0
    324    306    307    327   5     0.00000     0.00000     1.25520  0.0
    325    306    307    308   5     0.00000     0.00000     1.25520  0.0
    325    306    307    326   5     0.00000     0.00000     1.25520  0.0
    325    306    307    327   5     0.00000     0.00000     1.25520  0.0
    306    307    308    309   5     4.74884    -0.63178     1.67360  0.0
    306    307    308    328   5     0.00000     0.00000     1.25520  0.0
    306    307    308    329   5     0.00000     0.00000     1.25520  0.0
    326    307    308    309   5     0.00000     0.00000     1.25520  0.0
    326    307    308    328   5     0.00000     0.00000     1.25520  0.0
    326    307    308    329   5     0.00000     0.00000     1.25520  0.0
    327    307    308    309   5     0.00000     0.00000     1.25520  0.0
    327    307    308    328   5     0.00000     0.00000     1.25520  0.0
    327    307    308    329   5     0.00000     0.00000     1.25520  0.0
    307    308    309    310   5     4.74884    -0.63178     1.67360  0.0
    307    308    309    330   5     0.00000     0.00000     1.25520  0.0
    307    308    309    331   5     0.00000     0.00000     1.25520  0.0
    328    308    309    310   5     0.00000     0.00000     1.25520  0.0
    328    308    309    330   5     0.00000     0.00000     1.25520  0.0
    328    308    309    331   5     0.00000     0.00000     1.25520  0.0
    329    308    309    310   5     0.00000     0.00000     1.25520  0.0
    329    308    309    330   5     0.00000     0.00000     1.25520  0.0
    329    308    309    331   5     0.00000     0.00000     1.25520  0.0
    308    309    310    311   5     3.67355     4.10869     2.37651  0.0
    308    309    310    332   5     0.00000     0.00000     1.25520  0.0
    308    309    310    333   5     0.00000     0.00000     1.25520  0.0
    330    309    310    311   5     0.00000     0.00000     1.25520  0.0
    330    309    310    332   5     0.00000     0.00000     1.25520  0.0
    330    309    310    333   5     0.00000     0.00000     1.25520  0.0
    331    309    310    311   5     0.00000     0.00000     1.25520  0.0
    331    309    310    332   5     0.00000     0.00000     1.25520  0.0
    331    309    310    333   5     0.00000     0.00000     1.25520  0.0
    309    310    311    334   5     0.00000     0.00000     0.00000  0.0
    309    310    311    335   5    -3.67774    -0.67781     0.28033  0.0
    332    310    311    334   5     0.00000     0.00000     0.00000  0.0
    332    310    311    335   5     0.00000     0.00000     0.00000  0.0
    333    310    311    334   5     0.00000     0.00000     0.00000  0.0
    333    310    311    335   5     0.00000     0.00000     0.00000  0.0
    310    311    335    336   5     0.00000    25.47638     0.00000  0.0
    310    311    335    337   5    12.53945    12.88254     0.00000  0.0
    334    311    335    336   5     0.00000    20.50160     0.00000  0.0
    334    311    335    337   5     0.00000    20.50160     0.00000  0.0
    311    335    337    338   5    11.69428    -0.66526    -1.56900  0.0
    311    335    337    349   5     0.00000     0.00000     0.00000  0.0
    311    335    337    350   5     0.00000     0.00000     0.00000  0.0
    336    335    337    338   5     0.00000     2.52295     0.00000  0.0
    336    335    337    349   5     0.00000     0.00000     0.00000  0.0
    336    335    337    350   5     0.00000     0.00000     0.00000  0.0
    335    337    338    339   5    -8.00818    -1.52298     2.46438  0.0
    335    337    338    351   5     0.00000     0.00000    -0.94140  0.0
    335    337    338    352   5     0.00000     0.00000    -0.94140  0.0
    349    337    338    339   5     0.00000     0.00000     1.25520  0.0
    349    337    338    351   5     0.00000     0.00000     1.25520  0.0
    349    337    338    352   5     0.00000     0.00000     1.25520  0.0
    350    337    338    339   5     0.00000     0.00000     1.25520  0.0
    350    337    338    351   5     0.00000     0.00000     1.25520  0.0
    350    337    338    352   5     0.00000     0.00000     1.25520  0.0
    337    338    339    340   5     4.74884    -0.63178     1.67360  0.0
    337    338    339    353   5     0.00000     0.00000     1.25520  0.0
    337    338    339    354   5     0.00000     0.00000     1.25520  0.0
    351    338    339    340   5     0.00000     0.00000     1.25520  0.0
    351    338    339    353   5     0.00000     0.00000     1.25520  0.0
    351    338    339    354   5     0.00000     0.00000     1.25520  0.0
    352    338    339    340   5     0.00000     0.00000     1.25520  0.0
    352    338    339    353   5     0.00000     0.00000     1.25520  0.0
    352    338    339    354   5     0.00000     0.00000     1.25520  0.0
    338    339    340    341   5     4.74884    -0.63178     1.67360  0.0
    338    339    340    355   5     0.00000     0.00000     1.25520  0.0
    338    339    340    356   5     0.00000     0.00000     1.25520  0.0
    353    339    340    341   5     0.00000     0.00000     1.25520  0.0
    353    339    340    355   5     0.00000     0.00000     1.25520  0.0
    353    339    340    356   5     0.00000     0.00000     1.25520  0.0
    354    339    340    341   5     0.00000     0.00000     1.25520  0.0
    354    339    340    355   5     0.00000     0.00000     1.25520  0.0
    354    339    340    356   5     0.00000     0.00000     1.25520  0.0
    339    340    341    342   5     4.74884    -0.63178     1.67360  0.0
    339    340    341    357   5     0.00000     0.00000     1.25520  0.0
    339    340    341    358   5     0.00000     0.00000     1.25520  0.0
    355    340    341    342   5     0.00000     0.00000     1.25520  0.0
    355    340    341    357   5     0.00000     0.00000     1.25520  0.0
    355    340    341    358   5     0.00000     0.00000     1.25520  0.0
    356    340    341    342   5     0.00000     0.00000     1.25520  0.0
    356    340    341    357   5     0.00000     0.00000     1.25520  0.0
    356    340    341    358   5     0.00000     0.00000     1.25520  0.0
    340    341    342    343   5     4.74884    -0.63178     1.67360  0.0
    340    341    342    359   5     0.00000     0.00000     1.25520  0.0
    340    341    342    360   5     0.00000     0.00000     1.25520  0.0
    357    341    342    343   5     0.00000     0.00000     1.25520  0.0
    357    341    342    359   5     0.00000     0.00000     1.25520  0.0
    357    341    342    360   5     0.00000     0.00000     1.25520  0.0
    358    341    342    343   5     0.00000     0.00000     1.25520  0.0
    358    341    342    359   5     0.00000     0.00000     1.25520  0.0
    358    341    342    360   5     0.00000     0.00000     1.25520  0.0
    341    342    343    344   5     4.74884    -0.63178     1.67360  0.0
    341    342    343    361   5     0.00000     0.00000     1.25520  0.0
    341    342    343    362   5     0.00000     0.00000     1.25520  0.0
    359    342    343    344   5     0.00000     0.00000     1.25520  0.0
    359    342    343    361   5     0.00000     0.00000     1.25520  0.0
    359    342    343    362   5     0.00000     0.00000     1.25520  0.0
    360    342    343    344   5     0.00000     0.00000     1.25520  0.0
    360    342    343    361   5     0.00000     0.00000     1.25520  0.0
    360    342    343    362   5     0.00000     0.00000     1.25520  0.0
    342    343    344    345   5     4.74884    -0.63178     1.67360  0.0
    342    343    344    363   5     0.00000     0.00000     1.25520  0.0
    342    343    344    364   5     0.00000     0.00000     1.25520  0.0
    361    343    344    345   5     0.00000     0.00000     1.25520  0.0
    361    343    344    363   5     0.00000     0.00000     1.25520  0.0
    361    343    344    364   5     0.00000     0.00000     1.25520  0.0
    362    343    344    345   5     0.00000     0.00000     1.25520  0.0
    362    343    344    363   5     0.00000     0.00000     1.25520  0.0
    362    343    344    364   5     0.00000     0.00000     1.25520  0.0
    343    344    345    346   5     4.74884    -0.63178     1.67360  0.0
    343    344    345    365   5     0.00000     0.00000     1.25520  0.0
    343    344    345    366   5     0.00000     0.00000     1.25520  0.0
    363    344    345    346   5     0.00000     0.00000     1.25520  0.0
    363    344    345    365   5     0.00000     0.00000     1.25520  0.0
    363    344    345    366   5     0.00000     0.00000     1.25520  0.0
    364    344    345    346   5     0.00000     0.00000     1.25520  0.0
    364    344    345    365   5     0.00000     0.00000     1.25520  0.0
    364    344    345    366   5     0.00000     0.00000     1.25520  0.0
    344    345    346    347   5     4.74884    -0.63178     1.67360  0.0
    344    345    346    367   5     0.00000     0.00000     1.25520  0.0
    344    345    346    368   5     0.00000     0.00000     1.25520  0.0
    365    345    346    347   5     0.00000     0.00000     1.25520  0.0
    365    345    346    367   5     0.00000     0.00000     1.25520  0.0
    365    345    346    368   5     0.00000     0.00000     1.25520  0.0
    366    345    346    347   5     0.00000     0.00000     1.25520  0.0
    366    345    346    367   5     0.00000     0.00000     1.25520  0.0
    366    345    346    368   5     0.00000     0.00000     1.25520  0.0
    345    346    347    348   5     3.67355     4.10869     2.37651  0.0
    345    346    347    369   5     0.00000     0.00000     1.25520  0.0
    345    346    347    370   5     0.00000     0.00000     1.25520  0.0
    367    346    347    348   5     0.00000     0.00000     1.25520  0.0
    367    346    347    369   5     0.00000     0.00000     1.25520  0.0
    367    346    347    370   5     0.00000     0.00000     1.25520  0.0
    368    346    347    348   5     0.00000     0.00000     1.25520  0.0
    368    346    347    369   5     0.00000     0.00000     1.25520  0.0
    368    346    347    370   5     0.00000     0.00000     1.25520  0.0
    346    347    348    371   5     0.00000     0.00000     0.00000  0.0
    346    347    348    372   5    -3.67774    -0.67781     0.28033  0.0
    369    347    348    371   5     0.00000     0.00000     0.00000  0.0
    369    347    348    372   5     0.00000     0.00000     0.00000  0.0
    370    347    348    371   5     0.00000     0.00000     0.00000  0.0
    370    347    348    372   5     0.00000     0.00000     0.00000  0.0
    347    348    372    373   5     0.00000    25.47638     0.00000  0.0
    347    348    372    374   5    12.53945    12.88254     0.00000  0.0
    371    348    372    373   5     0.00000    20.50160     0.00000  0.0
    371    348    372    374   5     0.00000    20.50160     0.00000  0.0
    348    372    374    375   5    11.69428    -0.66526    -1.56900  0.0
    348    372    374    386   5     0.00000     0.00000     0.00000  0.0
    348    372    374    387   5     0.00000     0.00000     0.00000  0.0
    373    372    374    375   5     0.00000     2.52295     0.00000  0.0
    373    372    374    386   5     0.00000     0.00000     0.00000  0.0
    373    372    374    387   5     0.00000     0.00000     0.00000  0.0
    372    374    375    376   5    -8.00818    -1.52298     2.46438  0.0
    372    374    375    388   5     0.00000     0.00000    -0.94140  0.0
    372    374    375    389   5     0.00000     0.00000    -0.94140  0.0
    386    374    375    376   5     0.00000     0.00000     1.25520  0.0
    386    374    375    388   5     0.00000     0.00000     1.25520  0.0
    386    374    375    389   5     0.00000     0.00000     1.25520  0.0
    387    374    375    376   5     0.00000     0.00000     1.25520  0.0
    387    374    375    388   5     0.00000     0.00000     1.25520  0.0
    387    374    375    389   5     0.00000     0.00000     1.25520  0.0
    374    375    376    377   5     4.74884    -0.63178     1.67360  0.0
    374    375    376    390   5     0.00000     0.00000     1.25520  0.0
    374    375    376    391   5     0.00000     0.00000     1.25520  0.0
    388    375    376    377   5     0.00000     0.00000     1.25520  0.0
    388    375    376    390   5     0.00000     0.00000     1.25520  0.0
    388    375    376    391   5     0.00000     0.00000     1.25520  0.0
    389    375    376    377   5     0.00000     0.00000     1.25520  0.0
    389    375    376    390   5     0.00000     0.00000     1.25520  0.0
    389    375    376    391   5     0.00000     0.00000     1.25520  0.0
    375    376    377    378   5     4.74884    -0.63178     1.67360  0.0
    375    376    377    392   5     0.00000     0.00000     1.25520  0.0
    375    376    377    393   5     0.00000     0.00000     1.25520  0.0
    390    376    377    378   5     0.00000     0.00000     1.25520  0.0
    390    376    377    392   5     0.00000     0.00000     1.25520  0.0
    390    376    377    393   5     0.00000     0.00000     1.25520  0.0
    391    376    377    378   5     0.00000     0.00000     1.25520  0.0
    391    376    377    392   5     0.00000     0.00000     1.25520  0.0
    391    376    377    393   5     0.00000     0.00000     1.25520  0.0
    376    377    378    379   5     4.74884    -0.63178     1.67360  0.0
    376    377    378    394   5     0.00000     0.00000     1.25520  0.0
    376    377    378    395   5     0.00000     0.00000     1.25520  0.0
    392    377    378    379   5     0.00000     0.00000     1.25520  0.0
    392    377    378    394   5     0.00000     0.00000     1.25520  0.0
    392    377    378    395   5     0.00000     0.00000     1.25520  0.0
    393    377    378    379   5     0.00000     0.00000     1.25520  0.0
    393    377    378    394   5     0.00000     0.00000     1.25520  0.0
    393    377    378    395   5     0.00000     0.00000     1.25520  0.0
    377    378    379    380   5     4.74884    -0.63178     1.67360  0.0
    377    378    379    396   5     0.00000     0.00000     1.25520  0.0
    377    378    379    397   5     0.00000     0.00000     1.25520  0.0
    394    378    379    380   5     0.00000     0.00000     1.25520  0.0
    394    378    379    396   5     0.00000     0.00000     1.25520  0.0
    394    378    379    397   5     0.00000     0.00000     1.25520  0.0
    395    378    379    380   5     0.00000     0.00000     1.25520  0.0
    395    378    379    396   5     0.00000     0.00000     1.25520  0.0
    395    378    379    397   5     0.00000     0.00000     1.25520  0.0
    378    379    380    381   5     4.74884    -0.63178     1.67360  0.0
    378    379    380    398   5     0.00000     0.00000     1.25520  0.0
    378    379    380    399   5     0.00000     0.00000     1.25520  0.0
    396    379    380    381   5     0.00000     0.00000     1.25520  0.0
    396    379    380    398   5     0.00000     0.00000     1.25520  0.0
    396    379    380    399   5     0.00000     0.00000     1.25520  0.0
    397    379    380    381   5     0.00000     0.00000     1.25520  0.0
    397    379    380    398   5     0.00000     0.00000     1.25520  0.0
    397    379    380    399   5     0.00000     0.00000     1.25520  0.0
    379    380    381    382   5     4.74884    -0.63178     1.67360  0.0
    379    380    381    400   5     0.00000     0.00000     1.25520  0.0
    379    380    381    401   5     0.00000     0.00000     1.25520  0.0
    398    380    381    382   5     0.00000     0.00000     1.25520  0.0
    398    380    381    400   5     0.00000     0.00000     1.25520  0.0
    398    380    381    401   5     0.00000     0.00000     1.25520  0.0
    399    380    381    382   5     0.00000     0.00000     1.25520  0.0
    399    380    381    400   5     0.00000     0.00000     1.25520  0.0
    399    380    381    401   5     0.00000     0.00000     1.25520  0.0
    380    381    382    383   5     4.74884    -0.63178     1.67360  0.0
    380    381    382    402   5     0.00000     0.00000     1.25520  0.0
    380    381    382    403   5     0.00000     0.00000     1.25520  0.0
    400    381    382    383   5     0.00000     0.00000     1.25520  0.0
    400    381    382    402   5     0.00000     0.00000     1.25520  0.0
    400    381    382    403   5     0.00000     0.00000     1.25520  0.0
    401    381    382    383   5     0.00000     0.00000     1.25520  0.0
    401    381    382    402   5     0.00000     0.00000     1.25520  0.0
    401    381    382    403   5     0.00000     0.00000     1.25520  0.0
    381    382    383    384   5     4.74884    -0.63178     1.67360  0.0
    381    382    383    404   5     0.00000     0.00000     1.25520  0.0
    381    382    383    405   5     0.00000     0.00000     1.25520  0.0
    402    382    383    384   5     0.00000     0.00000     1.25520  0.0
    402    382    383    404   5     0.00000     0.00000     1.25520  0.0
    402    382    383    405   5     0.00000     0.00000     1.25520  0.0
    403    382    383    384   5     0.00000     0.00000     1.25520  0.0
    403    382    383    404   5     0.00000     0.00000     1.25520  0.0
    403    382    383    405   5     0.00000     0.00000     1.25520  0.0
    382    383    384    385   5     3.67355     4.10869     2.37651  0.0
    382    383    384    406   5     0.00000     0.00000     1.25520  0.0
    382    383    384    407   5     0.00000     0.00000     1.25520  0.0
    404    383    384    385   5     0.00000     0.00000     1.25520  0.0
    404    383    384    406   5     0.00000     0.00000     1.25520  0.0
    404    383    384    407   5     0.00000     0.00000     1.25520  0.0
    405    383    384    385   5     0.00000     0.00000     1.25520  0.0
    405    383    384    406   5     0.00000     0.00000     1.25520  0.0
    405    383    384    407   5     0.00000     0.00000     1.25520  0.0
    383    384    385    408   5     0.00000     0.00000     0.00000  0.0
    383    384    385    409   5    -3.67774    -0.67781     0.28033  0.0
    406    384    385    408   5     0.00000     0.00000     0.00000  0.0
    406    384    385    409   5     0.00000     0.00000     0.00000  0.0
    407    384    385    408   5     0.00000     0.00000     0.00000  0.0
    407    384    385    409   5     0.00000     0.00000     0.00000  0.0
    384    385    409    410   5     0.00000    25.47638     0.00000  0.0
    384    385    409    411   5    12.53945    12.88254     0.00000  0.0
    408    385    409    410   5     0.00000    20.50160     0.00000  0.0
    408    385    409    411   5     0.00000    20.50160     0.00000  0.0
    385    409    411    412   5    11.69428    -0.66526    -1.56900  0.0
    385    409    411    423   5     0.00000     0.00000     0.00000  0.0
    385    409    411    424   5     0.00000     0.00000     0.00000  0.0
    410    409    411    412   5     0.00000     2.52295     0.00000  0.0
    410    409    411    423   5     0.00000     0.00000     0.00000  0.0
    410    409    411    424   5     0.00000     0.00000     0.00000  0.0
    409    411    412    413   5    -8.00818    -1.52298     2.46438  0.0
    409    411    412    425   5     0.00000     0.00000    -0.94140  0.0
    409    411    412    426   5     0.00000     0.00000    -0.94140  0.0
    423    411    412    413   5     0.00000     0.00000     1.25520  0.0
    423    411    412    425   5     0.00000     0.00000     1.25520  0.0
    423    411    412    426   5     0.00000     0.00000     1.25520  0.0
    424    411    412    413   5     0.00000     0.00000     1.25520  0.0
    424    411    412    425   5     0.00000     0.00000     1.25520  0.0
    424    411    412    426   5     0.00000     0.00000     1.25520  0.0
    411    412    413    414   5     4.74884    -0.63178     1.67360  0.0
    411    412    413    427   5     0.00000     0.00000     1.25520  0.0
    411    412    413    428   5     0.00000     0.00000     1.25520  0.0
    425    412    413    414   5     0.00000     0.00000     1.25520  0.0
    425    412    413    427   5     0.00000     0.00000     1.25520  0.0
    425    412    413    428   5     0.00000     0.00000     1.25520  0.0
    426    412    413    414   5     0.00000     0.00000     1.25520  0.0
    426    412    413    427   5     0.00000     0.00000     1.25520  0.0
    426    412    413    428   5     0.00000     0.00000     1.25520  0.0
    412    413    414    415   5     4.74884    -0.63178     1.67360  0.0
    412    413    414    429   5     0.00000     0.00000     1.25520  0.0
    412    413    414    430   5     0.00000     0.00000     1.25520  0.0
    427    413    414    415   5     0.00000     0.00000     1.25520  0.0
    427    413    414    429   5     0.00000     0.00000     1.25520  0.0
    427    413    414    430   5     0.00000     0.00000     1.25520  0.0
    428    413    414    415   5     0.00000     0.00000     1.25520  0.0
    428    413    414    429   5     0.00000     0.00000     1.25520  0.0
    428    413    414    430   5     0.00000     0.00000     1.25520  0.0
    413    414    415    416   5     4.74884    -0.63178     1.67360  0.0
    413    414    415    431   5     0.00000     0.00000     1.25520  0.0
    413    414    415    432   5     0.00000     0.00000     1.25520  0.0
    429    414    415    416   5     0.00000     0.00000     1.25520  0.0
    429    414    415    431   5     0.00000     0.00000     1.25520  0.0
    429    414    415    432   5     0.00000     0.00000     1.25520  0.0
    430    414    415    416   5     0.00000     0.00000     1.25520  0.0
    430    414    415    431   5     0.00000     0.00000     1.25520  0.0
    430    414    415    432   5     0.00000     0.00000     1.25520  0.0
    414    415    416    417   5     4.74884    -0.63178     1.67360  0.0
    414    415    416    433   5     0.00000     0.00000     1.25520  0.0
    414    415    416    434   5     0.00000     0.00000     1.25520  0.0
    431    415    416    417   5     0.00000     0.00000     1.25520  0.0
    431    415    416    433   5     0.00000     0.00000     1.25520  0.0
    431    415    416    434   5     0.00000     0.00000     1.25520  0.0
    432    415    416    417   5     0.00000     0.00000     1.25520  0.0
    432    415    416    433   5     0.00000     0.00000     1.25520  0.0
    432    415    416    434   5     0.00000     0.00000     1.25520  0.0
    415    416    417    418   5     4.74884    -0.63178     1.67360  0.0
    415    416    417    435   5     0.00000     0.00000     1.25520  0.0
    415    416    417    436   5     0.00000     0.00000     1.25520  0.0
    433    416    417    418   5     0.00000     0.00000     1.25520  0.0
    433    416    417    435   5     0.00000     0.00000     1.25520  0.0
    433    416    417    436   5     0.00000     0.00000     1.25520  0.0
    434    416    417    418   5     0.00000     0.00000     1.25520  0.0
    434    416    417    435   5     0.00000     0.00000     1.25520  0.0
    434    416    417    436   5     0.00000     0.00000     1.25520  0.0
    416    417    418    419   5     4.74884    -0.63178     1.67360  0.0
    416    417    418    437   5     0.00000     0.00000     1.25520  0.0
    416    417    418    438   5     0.00000     0.00000     1.25520  0.0
    435    417    418    419   5     0.00000     0.00000     1.25520  0.0
    435    417    418    437   5     0.00000     0.00000     1.25520  0.0
    435    417    418    438   5     0.00000     0.00000     1.25520  0.0
    436    417    418    419   5     0.00000     0.00000     1.25520  0.0
    436    417    418    437   5     0.00000     0.00000     1.25520  0.0
    436    417    418    438   5     0.00000     0.00000     1.25520  0.0
    417    418    419    420   5     4.74884    -0.63178     1.67360  0.0
    417    418    419    439   5     0.00000     0.00000     1.25520  0.0
    417    418    419    440   5     0.00000     0.00000     1.25520  0.0
    437    418    419    420   5     0.00000     0.00000     1.25520  0.0
    437    418    419    439   5     0.00000     0.00000     1.25520  0.0
    437    418    419    440   5     0.00000     0.00000     1.25520  0.0
    438    418    419    420   5     0.00000     0.00000     1.25520  0.0
    438    418    419    439   5     0.00000     0.00000     1.25520  0.0
    438    418    419    440   5     0.00000     0.00000     1.25520  0.0
    418    419    420    421   5     4.74884    -0.63178     1.67360  0.0
    418    419    420    441   5     0.00000     0.00000     1.25520  0.0
    418    419    420    442   5     0.00000     0.00000     1.25520  0.0
    439    419    420    421   5     0.00000     0.00000     1.25520  0.0
    439    419    420    441   5     0.00000     0.00000     1.25520  0.0
    439    419    420    442   5     0.00000     0.00000     1.25520  0.0
    440    419    420    421   5     0.00000     0.00000     1.25520  0.0
    440    419    420    441   5     0.00000     0.00000     1.25520  0.0
    440    419    420    442   5     0.00000     0.00000     1.25520  0.0
    419    420    421    422   5     3.67355     4.10869     2.37651  0.0
    419    420    421    443   5     0.00000     0.00000     1.25520  0.0
    419    420    421    444   5     0.00000     0.00000     1.25520  0.0
    441    420    421    422   5     0.00000     0.00000     1.25520  0.0
    441    420    421    443   5     0.00000     0.00000     1.25520  0.0
    441    420    421    444   5     0.00000     0.00000     1.25520  0.0
    442    420    421    422   5     0.00000     0.00000     1.25520  0.0
    442    420    421    443   5     0.00000     0.00000     1.25520  0.0
    442    420    421    444   5     0.00000     0.00000     1.25520  0.0
    420    421    422    445   5     0.00000     0.00000     0.00000  0.0
    420    421    422    446   5    -3.67774    -0.67781     0.28033  0.0
    443    421    422    445   5     0.00000     0.00000     0.00000  0.0
    443    421    422    446   5     0.00000     0.00000     0.00000  0.0
    444    421    422    445   5     0.00000     0.00000     0.00000  0.0
    444    421    422    446   5     0.00000     0.00000     0.00000  0.0
    421    422    446    447   5     0.00000    25.47638     0.00000  0.0
    421    422    446    448   5    12.53945    12.88254     0.00000  0.0
    445    422    446    447   5     0.00000    20.50160     0.00000  0.0
    445    422    446    448   5     0.00000    20.50160     0.00000  0.0
    422    446    448    449   5    11.69428    -0.66526    -1.56900  0.0
    422    446    448    460   5     0.00000     0.00000     0.00000  0.0
    422    446    448    461   5     0.00000     0.00000     0.00000  0.0
    447    446    448    449   5     0.00000     2.52295     0.00000  0.0
    447    446    448    460   5     0.00000     0.00000     0.00000  0.0
    447    446    448    461   5     0.00000     0.00000     0.00000  0.0
    446    448    449    450   5    -8.00818    -1.52298     2.46438  0.0
    446    448    449    462   5     0.00000     0.00000    -0.94140  0.0
    446    448    449    463   5     0.00000     0.00000    -0.94140  0.0
    460    448    449    450   5     0.00000     0.00000     1.25520  0.0
    460    448    449    462   5     0.00000     0.00000     1.25520  0.0
    460    448    449    463   5     0.00000     0.00000     1.25520  0.0
    461    448    449    450   5     0.00000     0.00000     1.25520  0.0
    461    448    449    462   5     0.00000     0.00000     1.25520  0.0
    461    448    449    463   5     0.00000     0.00000     1.25520  0.0
    448    449    450    451   5     4.74884    -0.63178     1.67360  0.0
    448    449    450    464   5     0.00000     0.00000     1.25520  0.0
    448    449    450    465   5     0.00000     0.00000     1.25520  0.0
    462    449    450    451   5     0.00000     0.00000     1.25520  0.0
    462    449    450    464   5     0.00000     0.00000     1.25520  0.0
    462    449    450    465   5     0.00000     0.00000     1.25520  0.0
    463    449    450    451   5     0.00000     0.00000     1.25520  0.0
    463    449    450    464   5     0.00000     0.00000     1.25520  0.0
    463    449    450    465   5     0.00000     0.00000     1.25520  0.0
    449    450    451    452   5     4.74884    -0.63178     1.67360  0.0
    449    450    451    466   5     0.00000     0.00000     1.25520  0.0
    449    450    451    467   5     0.00000     0.00000     1.25520  0.0
    464    450    451    452   5     0.00000     0.00000     1.25520  0.0
    464    450    451    466   5     0.00000     0.00000     1.25520  0.0
    464    450    451    467   5     0.00000     0.00000     1.25520  0.0
    465    450    451    452   5     0.00000     0.00000     1.25520  0.0
    465    450    451    466   5     0.00000     0.00000     1.25520  0.0
    465    450    451    467   5     0.00000     0.00000     1.25520  0.0
    450    451    452    453   5     4.74884    -0.63178     1.67360  0.0
    450    451    452    468   5     0.00000     0.00000     1.25520  0.0
    450    451    452    469   5     0.00000     0.00000     1.25520  0.0
    466    451    452    453   5     0.00000     0.00000     1.25520  0.0
    466    451    452    468   5     0.00000     0.00000     1.25520  0.0
    466    451    452    469   5     0.00000     0.00000     1.25520  0.0
    467    451    452    453   5     0.00000     0.00000     1.25520  0.0
    467    451    452    468   5     0.00000     0.00000     1.25520  0.0
    467    451    452    469   5     0.00000     0.00000     1.25520  0.0
    451    452    453    454   5     4.74884    -0.63178     1.67360  0.0
    451    452    453    470   5     0.00000     0.00000     1.25520  0.0
    451    452    453    471   5     0.00000     0.00000     1.25520  0.0
    468    452    453    454   5     0.00000     0.00000     1.25520  0.0
    468    452    453    470   5     0.00000     0.00000     1.25520  0.0
    468    452    453    471   5     0.00000     0.00000     1.25520  0.0
    469    452    453    454   5     0.00000     0.00000     1.25520  0.0
    469    452    453    470   5     0.00000     0.00000     1.25520  0.0
    469    452    453    471   5     0.00000     0.00000     1.25520  0.0
    452    453    454    455   5     4.74884    -0.63178     1.67360  0.0
    452    453    454    472   5     0.00000     0.00000     1.25520  0.0
    452    453    454    473   5     0.00000     0.00000     1.25520  0.0
    470    453    454    455   5     0.00000     0.00000     1.25520  0.0
    470    453    454    472   5     0.00000     0.00000     1.25520  0.0
    470    453    454    473   5     0.00000     0.00000     1.25520  0.0
    471    453    454    455   5     0.00000     0.00000     1.25520  0.0
    471    453    454    472   5     0.00000     0.00000     1.25520  0.0
    471    453    454    473   5     0.00000     0.00000     1.25520  0.0
    453    454    455    456   5     4.74884    -0.63178     1.67360  0.0
    453    454    455    474   5     0.00000     0.00000     1.25520  0.0
    453    454    455    475   5     0.00000     0.00000     1.25520  0.0
    472    454    455    456   5     0.00000     0.00000     1.25520  0.0
    472    454    455    474   5     0.00000     0.00000     1.25520  0.0
    472    454    455    475   5     0.00000     0.00000     1.25520  0.0
    473    454    455    456   5     0.00000     0.00000     1.25520  0.0
    473    454    455    474   5     0.00000     0.00000     1.25520  0.0
    473    454    455    475   5     0.00000     0.00000     1.25520  0.0
    454    455    456    457   5     4.74884    -0.63178     1.67360  0.0
    454    455    456    476   5     0.00000     0.00000     1.25520  0.0
    454    455    456    477   5     0.00000     0.00000     1.25520  0.0
    474    455    456    457   5     0.00000     0.00000     1.25520  0.0
    474    455    456    476   5     0.00000     0.00000     1.25520  0.0
    474    455    456    477   5     0.00000     0.00000     1.25520  0.0
    475    455    456    457   5     0.00000     0.00000     1.25520  0.0
    475    455    456    476   5     0.00000     0.00000     1.25520  0.0
    475    455    456    477   5     0.00000     0.00000     1.25520  0.0
    455    456    457    458   5     4.74884    -0.63178     1.67360  0.0
    455    456    457    478   5     0.00000     0.00000     1.25520  0.0
    455    456    457    479   5     0.00000     0.00000     1.25520  0.0
    476    456    457    458   5     0.00000     0.00000     1.25520  0.0
    476    456    457    478   5     0.00000     0.00000     1.25520  0.0
    476    456    457    479   5     0.00000     0.00000     1.25520  0.0
    477    456    457    458   5     0.00000     0.00000     1.25520  0.0
    477    456    457    478   5     0.00000     0.00000     1.25520  0.0
    477    456    457    479   5     0.00000     0.00000     1.25520  0.0
    456    457    458    459   5     3.67355     4.10869     2.37651  0.0
    456    457    458    480   5     0.00000     0.00000     1.25520  0.0
    456    457    458    481   5     0.00000     0.00000     1.25520  0.0
    478    457    458    459   5     0.00000     0.00000     1.25520  0.0
    478    457    458    480   5     0.00000     0.00000     1.25520  0.0
    478    457    458    481   5     0.00000     0.00000     1.25520  0.0
    479    457    458    459   5     0.00000     0.00000     1.25520  0.0
    479    457    458    480   5     0.00000     0.00000     1.25520  0.0
    479    457    458    481   5     0.00000     0.00000     1.25520  0.0
    457    458    459    482   5     0.00000     0.00000     0.00000  0.0
    457    458    459    483   5    -3.67774    -0.67781     0.28033  0.0
    480    458    459    482   5     0.00000     0.00000     0.00000  0.0
    480    458    459    483   5     0.00000     0.00000     0.00000  0.0
    481    458    459    482   5     0.00000     0.00000     0.00000  0.0
    481    458    459    483   5     0.00000     0.00000     0.00000  0.0
    458    459    483    484   5     0.00000    25.47638     0.00000  0.0
    458    459    483    485   5    12.53945    12.88254     0.00000  0.0
    482    459    483    484   5     0.00000    20.50160     0.00000  0.0
    482    459    483    485   5     0.00000    20.50160     0.00000  0.0
    459    483    485    486   5    11.69428    -0.66526    -1.56900  0.0
    459    483    485    497   5     0.00000     0.00000     0.00000  0.0
    459    483    485    498   5     0.00000     0.00000     0.00000  0.0
    484    483    485    486   5     0.00000     2.52295     0.00000  0.0
    484    483    485    497   5     0.00000     0.00000     0.00000  0.0
    484    483    485    498   5     0.00000     0.00000     0.00000  0.0
    483    485    486    487   5    -8.00818    -1.52298     2.46438  0.0
    483    485    486    499   5     0.00000     0.00000    -0.94140  0.0
    483    485    486    500   5     0.00000     0.00000    -0.94140  0.0
    497    485    486    487   5     0.00000     0.00000     1.25520  0.0
    497    485    486    499   5     0.00000     0.00000     1.25520  0.0
    497    485    486    500   5     0.00000     0.00000     1.25520  0.0
    498    485    486    487   5     0.00000     0.00000     1.25520  0.0
    498    485    486    499   5     0.00000     0.00000     1.25520  0.0
    498    485    486    500   5     0.00000     0.00000     1.25520  0.0
    485    486    487    488   5     4.74884    -0.63178     1.67360  0.0
    485    486    487    501   5     0.00000     0.00000     1.25520  0.0
    485    486    487    502   5     0.00000     0.00000     1.25520  0.0
    499    486    487    488   5     0.00000     0.00000     1.25520  0.0
    499    486    487    501   5     0.00000     0.00000     1.25520  0.0
    499    486    487    502   5     0.00000     0.00000     1.25520  0.0
    500    486    487    488   5     0.00000     0.00000     1.25520  0.0
    500    486    487    501   5     0.00000     0.00000     1.25520  0.0
    500    486    487    502   5     0.00000     0.00000     1.25520  0.0
    486    487    488    489   5     4.74884    -0.63178     1.67360  0.0
    486    487    488    503   5     0.00000     0.00000     1.25520  0.0
    486    487    488    504   5     0.00000     0.00000     1.25520  0.0
    501    487    488    489   5     0.00000     0.00000     1.25520  0.0
    501    487    488    503   5     0.00000     0.00000     1.25520  0.0
    501    487    488    504   5     0.00000     0.00000     1.25520  0.0
    502    487    488    489   5     0.00000     0.00000     1.25520  0.0
    502    487    488    503   5     0.00000     0.00000     1.25520  0.0
    502    487    488    504   5     0.00000     0.00000     1.25520  0.0
    487    488    489    490   5     4.74884    -0.63178     1.67360  0.0
    487    488    489    505   5     0.00000     0.00000     1.25520  0.0
    487    488    489    506   5     0.00000     0.00000     1.25520  0.0
    503    488    489    490   5     0.00000     0.00000     1.25520  0.0
    503    488    489    505   5     0.00000     0.00000     1.25520  0.0
    503    488    489    506   5     0.00000     0.00000     1.25520  0.0
    504    488    489    490   5     0.00000     0.00000     1.25520  0.0
    504    488    489    505   5     0.00000     0.00000     1.25520  0.0
    504    488    489    506   5     0.00000     0.00000     1.25520  0.0
    488    489    490    491   5     4.74884    -0.63178     1.67360  0.0
    488    489    490    507   5     0.00000     0.00000     1.25520  0.0
    488    489    490    508   5     0.00000     0.00000     1.25520  0.0
    505    489    490    491   5     0.00000     0.00000     1.25520  0.0
    505    489    490    507   5     0.00000     0.00000     1.25520  0.0
    505    489    490    508   5     0.00000     0.00000     1.25520  0.0
    506    489    490    491   5     0.00000     0.00000     1.25520  0.0
    506    489    490    507   5     0.00000     0.00000     1.25520  0.0
    506    489    490    508   5     0.00000     0.00000     1.25520  0.0
    489    490    491    492   5     4.74884    -0.63178     1.67360  0.0
    489    490    491    509   5     0.00000     0.00000     1.25520  0.0
    489    490    491    510   5     0.00000     0.00000     1.25520  0.0
    507    490    491    492   5     0.00000     0.00000     1.25520  0.0
    507    490    491    509   5     0.00000     0.00000     1.25520  0.0
    507    490    491    510   5     0.00000     0.00000     1.25520  0.0
    508    490    491    492   5     0.00000     0.00000     1.25520  0.0
    508    490    491    509   5     0.00000     0.00000     1.25520  0.0
    508    490    491    510   5     0.00000     0.00000     1.25520  0.0
    490    491    492    493   5     4.74884    -0.63178     1.67360  0.0
    490    491    492    511   5     0.00000     0.00000     1.25520  0.0
    490    491    492    512   5     0.00000     0.00000     1.25520  0.0
    509    491    492    493   5     0.00000     0.00000     1.25520  0.0
    509    491    492    511   5     0.00000     0.00000     1.25520  0.0
    509    491    492    512   5     0.00000     0.00000     1.25520  0.0
    510    491    492    493   5     0.00000     0.00000     1.25520  0.0
    510    491    492    511   5     0.00000     0.00000     1.25520  0.0
    510    491    492    512   5     0.00000     0.00000     1.25520  0.0
    491    492    493    494   5     4.74884    -0.63178     1.67360  0.0
    491    492    493    513   5     0.00000     0.00000     1.25520  0.0
    491    492    493    514   5     0.00000     0.00000     1.25520  0.0
    511    492    493    494   5     0.00000     0.00000     1.25520  0.0
    511    492    493    513   5     0.00000     0.00000     1.25520  0.0
    511    492    493    514   5     0.00000     0.00000     1.25520  0.0
    512    492    493    494   5     0.00000     0.00000     1.25520  0.0
    512    492    493    513   5     0.00000     0.00000     1.25520  0.0
    512    492    493    514   5     0.00000     0.00000     1.25520  0.0
    492    493    494    495   5     4.74884    -0.63178     1.67360  0.0
    492    493    494    515   5     0.00000     0.00000     1.25520  0.0
    492    493    494    516   5     0.00000     0.00000     1.25520  0.0
    513    493    494    495   5     0.00000     0.00000     1.25520  0.0
    513    493    494    515   5     0.00000     0.00000     1.25520  0.0
    513    493    494    516   5     0.00000     0.00000     1.25520  0.0
    514    493    494    495   5     0.00000     0.00000     1.25520  0.0
    514    493    494    515   5     0.00000     0.00000     1.25520  0.0
    514    493    494    516   5     0.00000     0.00000     1.25520  0.0
    493    494    495    496   5     3.67355     4.10869     2.37651  0.0
    493    494    495    517   5     0.00000     0.00000     1.25520  0.0
    493    494    495    518   5     0.00000     0.00000     1.25520  0.0
    515    494    495    496   5     0.00000     0.00000     1.25520  0.0
    515    494    495    517   5     0.00000     0.00000     1.25520  0.0
    515    494    495    518   5     0.00000     0.00000     1.25520  0.0
    516    494    495    496   5     0.00000     0.00000     1.25520  0.0
    516    494    495    517   5     0.00000     0.00000     1.25520  0.0
    516    494    495    518   5     0.00000     0.00000     1.25520  0.0
    494    495    496    519   5     0.00000     0.00000     0.00000  0.0
    494    495    496    520   5    -3.67774    -0.67781     0.28033  0.0
    517    495    496    519   5     0.00000     0.00000     0.00000  0.0
    517    495    496    520   5     0.00000     0.00000     0.00000  0.0
    518    495    496    519   5     0.00000     0.00000     0.00000  0.0
    518    495    496    520   5     0.00000     0.00000     0.00000  0.0
    495    496    520    521   5     0.00000    25.47638     0.00000  0.0
    495    496    520    522   5    12.53945    12.88254     0.00000  0.0
    519    496    520    521   5     0.00000    20.50160     0.00000  0.0
    519    496    520    522   5     0.00000    20.50160     0.00000  0.0
    496    520    522    523   5    11.69428    -0.66526    -1.56900  0.0
    496    520    522    534   5     0.00000     0.00000     0.00000  0.0
    496    520    522    535   5     0.00000     0.00000     0.00000  0.0
    521    520    522    523   5     0.00000     2.52295     0.00000  0.0
    521    520    522    534   5     0.00000     0.00000     0.00000  0.0
    521    520    522    535   5     0.00000     0.00000     0.00000  0.0
    520    522    523    524   5    -8.00818    -1.52298     2.46438  0.0
    520    522    523    536   5     0.00000     0.00000    -0.94140  0.0
    520    522    523    537   5     0.00000     0.00000    -0.94140  0.0
    534    522    523    524   5     0.00000     0.00000     1.25520  0.0
    534    522    523    536   5     0.00000     0.00000     1.25520  0.0
    534    522    523    537   5     0.00000     0.00000     1.25520  0.0
    535    522    523    524   5     0.00000     0.00000     1.25520  0.0
    535    522    523    536   5     0.00000     0.00000     1.25520  0.0
    535    522    523    537   5     0.00000     0.00000     1.25520  0.0
    522    523    524    525   5     4.74884    -0.63178     1.67360  0.0
    522    523    524    538   5     0.00000     0.00000     1.25520  0.0
    522    523    524    539   5     0.00000     0.00000     1.25520  0.0
    536    523    524    525   5     0.00000     0.00000     1.25520  0.0
    536    523    524    538   5     0.00000     0.00000     1.25520  0.0
    536    523    524    539   5     0.00000     0.00000     1.25520  0.0
    537    523    524    525   5     0.00000     0.00000     1.25520  0.0
    537    523    524    538   5     0.00000     0.00000     1.25520  0.0
    537    523    524    539   5     0.00000     0.00000     1.25520  0.0
    523    524    525    526   5     4.74884    -0.63178     1.67360  0.0
    523    524    525    540   5     0.00000     0.00000     1.25520  0.0
    523    524    525    541   5     0.00000     0.00000     1.25520  0.0
    538    524    525    526   5     0.00000     0.00000     1.25520  0.0
    538    524    525    540   5     0.00000     0.00000     1.25520  0.0
    538    524    525    541   5     0.00000     0.00000     1.25520  0.0
    539    524    525    526   5     0.00000     0.00000     1.25520  0.0
    539    524    525    540   5     0.00000     0.00000     1.25520  0.0
    539    524    525    541   5     0.00000     0.00000     1.25520  0.0
    524    525    526    527   5     4.74884    -0.63178     1.67360  0.0
    524    525    526    542   5     0.00000     0.00000     1.25520  0.0
    524    525    526    543   5     0.00000     0.00000     1.25520  0.0
    540    525    526    527   5     0.00000     0.00000     1.25520  0.0
    540    525    526    542   5     0.00000     0.00000     1.25520  0.0
    540    525    526    543   5     0.00000     0.00000     1.25520  0.0
    541    525    526    527   5     0.00000     0.00000     1.25520  0.0
    541    525    526    542   5     0.00000     0.00000     1.25520  0.0
    541    525    526    543   5     0.00000     0.00000     1.25520  0.0
    525    526    527    528   5     4.74884    -0.63178     1.67360  0.0
    525    526    527    544   5     0.00000     0.00000     1.25520  0.0
    525    526    527    545   5     0.00000     0.00000     1.25520  0.0
    542    526    527    528   5     0.00000     0.00000     1.25520  0.0
    542    526    527    544   5     0.00000     0.00000     1.25520  0.0
    542    526    527    545   5     0.00000     0.00000     1.25520  0.0
    543    526    527    528   5     0.00000     0.00000     1.25520  0.0
    543    526    527    544   5     0.00000     0.00000     1.25520  0.0
    543    526    527    545   5     0.00000     0.00000     1.25520  0.0
    526    527    528    529   5     4.74884    -0.63178     1.67360  0.0
    526    527    528    546   5     0.00000     0.00000     1.25520  0.0
    526    527    528    547   5     0.00000     0.00000     1.25520  0.0
    544    527    528    529   5     0.00000     0.00000     1.25520  0.0
    544    527    528    546   5     0.00000     0.00000     1.25520  0.0
    544    527    528    547   5     0.00000     0.00000     1.25520  0.0
    545    527    528    529   5     0.00000     0.00000     1.25520  0.0
    545    527    528    546   5     0.00000     0.00000     1.25520  0.0
    545    527    528    547   5     0.00000     0.00000     1.25520  0.0
    527    528    529    530   5     4.74884    -0.63178     1.67360  0.0
    527    528    529    548   5     0.00000     0.00000     1.25520  0.0
    527    528    529    549   5     0.00000     0.00000     1.25520  0.0
    546    528    529    530   5     0.00000     0.00000     1.25520  0.0
    546    528    529    548   5     0.00000     0.00000     1.25520  0.0
    546    528    529    549   5     0.00000     0.00000     1.25520  0.0
    547    528    529    530   5     0.00000     0.00000     1.25520  0.0
    547    528    529    548   5     0.00000     0.00000     1.25520  0.0
    547    528    529    549   5     0.00000     0.00000     1.25520  0.0
    528    529    530    531   5     4.74884    -0.63178     1.67360  0.0
    528    529    530    550   5     0.00000     0.00000     1.25520  0.0
    528    529    530    551   5     0.00000     0.00000     1.25520  0.0
    548    529    530    531   5     0.00000     0.00000     1.25520  0.0
    548    529    530    550   5     0.00000     0.00000     1.25520  0.0
    548    529    530    551   5     0.00000     0.00000     1.25520  0.0
    549    529    530    531   5     0.00000     0.00000     1.25520  0.0
    549    529    530    550   5     0.00000     0.00000     1.25520  0.0
    549    529    530    551   5     0.00000     0.00000     1.25520  0.0
    529    530    531    532   5     4.74884    -0.63178     1.67360  0.0
    529    530    531    552   5     0.00000     0.00000     1.25520  0.0
    529    530    531    553   5     0.00000     0.00000     1.25520  0.0
    550    530    531    532   5     0.00000     0.00000     1.25520  0.0
    550    530    531    552   5     0.00000     0.00000     1.25520  0.0
    550    530    531    553   5     0.00000     0.00000     1.25520  0.0
    551    530    531    532   5     0.00000     0.00000     1.25520  0.0
    551    530    531    552   5     0.00000     0.00000     1.25520  0.0
    551    530    531    553   5     0.00000     0.00000     1.25520  0.0
    530    531    532    533   5     3.67355     4.10869     2.37651  0.0
    530    531    532    554   5     0.00000     0.00000     1.25520  0.0
    530    531    532    555   5     0.00000     0.00000     1.25520  0.0
    552    531    532    533   5     0.00000     0.00000     1.25520  0.0
    552    531    532    554   5     0.00000     0.00000     1.25520  0.0
    552    531    532    555   5     0.00000     0.00000     1.25520  0.0
    553    531    532    533   5     0.00000     0.00000     1.25520  0.0
    553    531    532    554   5     0.00000     0.00000     1.25520  0.0
    553    531    532    555   5     0.00000     0.00000     1.25520  0.0
    531    532    533    556   5     0.00000     0.00000     0.00000  0.0
    531    532    533    557   5    -3.67774    -0.67781     0.28033  0.0
    554    532    533    556   5     0.00000     0.00000     0.00000  0.0
    554    532    533    557   5     0.00000     0.00000     0.00000  0.0
    555    532    533    556   5     0.00000     0.00000     0.00000  0.0
    555    532    533    557   5     0.00000     0.00000     0.00000  0.0
    532    533    557    558   5     0.00000    25.47638     0.00000  0.0
    532    533    557    559   5    12.53945    12.88254     0.00000  0.0
    556    533    557    558   5     0.00000    20.50160     0.00000  0.0
    556    533    557    559   5     0.00000    20.50160     0.00000  0.0
    533    557    559    560   5    11.69428    -0.66526    -1.56900  0.0
    533    557    559    571   5     0.00000     0.00000     0.00000  0.0
    533    557    559    572   5     0.00000     0.00000     0.00000  0.0
    558    557    559    560   5     0.00000     2.52295     0.00000  0.0
    558    557    559    571   5     0.00000     0.00000     0.00000  0.0
    558    557    559    572   5     0.00000     0.00000     0.00000  0.0
    557    559    560    561   5    -8.00818    -1.52298     2.46438  0.0
    557    559    560    573   5     0.00000     0.00000    -0.94140  0.0
    557    559    560    574   5     0.00000     0.00000    -0.94140  0.0
    571    559    560    561   5     0.00000     0.00000     1.25520  0.0
    571    559    560    573   5     0.00000     0.00000     1.25520  0.0
    571    559    560    574   5     0.00000     0.00000     1.25520  0.0
    572    559    560    561   5     0.00000     0.00000     1.25520  0.0
    572    559    560    573   5     0.00000     0.00000     1.25520  0.0
    572    559    560    574   5     0.00000     0.00000     1.25520  0.0
    559    560    561    562   5     4.74884    -0.63178     1.67360  0.0
    559    560    561    575   5     0.00000     0.00000     1.25520  0.0
    559    560    561    576   5     0.00000     0.00000     1.25520  0.0
    573    560    561    562   5     0.00000     0.00000     1.25520  0.0
    573    560    561    575   5     0.00000     0.00000     1.25520  0.0
    573    560    561    576   5     0.00000     0.00000     1.25520  0.0
    574    560    561    562   5     0.00000     0.00000     1.25520  0.0
    574    560    561    575   5     0.00000     0.00000     1.25520  0.0
    574    560    561    576   5     0.00000     0.00000     1.25520  0.0
    560    561    562    563   5     4.74884    -0.63178     1.67360  0.0
    560    561    562    577   5     0.00000     0.00000     1.25520  0.0
    560    561    562    578   5     0.00000     0.00000     1.25520  0.0
    575    561    562    563   5     0.00000     0.00000     1.25520  0.0
    575    561    562    577   5     0.00000     0.00000     1.25520  0.0
    575    561    562    578   5     0.00000     0.00000     1.25520  0.0
    576    561    562    563   5     0.00000     0.00000     1.25520  0.0
    576    561    562    577   5     0.00000     0.00000     1.25520  0.0
    576    561    562    578   5     0.00000     0.00000     1.25520  0.0
    561    562    563    564   5     4.74884    -0.63178     1.67360  0.0
    561    562    563    579   5     0.00000     0.00000     1.25520  0.0
    561    562    563    580   5     0.00000     0.00000     1.25520  0.0
    577    562    563    564   5     0.00000     0.00000     1.25520  0.0
    577    562    563    579   5     0.00000     0.00000     1.25520  0.0
    577    562    563    580   5     0.00000     0.00000     1.25520  0.0
    578    562    563    564   5     0.00000     0.00000     1.25520  0.0
    578    562    563    579   5     0.00000     0.00000     1.25520  0.0
    578    562    563    580   5     0.00000     0.00000     1.25520  0.0
    562    563    564    565   5     4.74884    -0.63178     1.67360  0.0
    562    563    564    581   5     0.00000     0.00000     1.25520  0.0
    562    563    564    582   5     0.00000     0.00000     1.25520  0.0
    579    563    564    565   5     0.00000     0.00000     1.25520  0.0
    579    563    564    581   5     0.00000     0.00000     1.25520  0.0
    579    563    564    582   5     0.00000     0.00000     1.25520  0.0
    580    563    564    565   5     0.00000     0.00000     1.25520  0.0
    580    563    564    581   5     0.00000     0.00000     1.25520  0.0
    580    563    564    582   5     0.00000     0.00000     1.25520  0.0
    563    564    565    566   5     4.74884    -0.63178     1.67360  0.0
    563    564    565    583   5     0.00000     0.00000     1.25520  0.0
    563    564    565    584   5     0.00000     0.00000     1.25520  0.0
    581    564    565    566   5     0.00000     0.00000     1.25520  0.0
    581    564    565    583   5     0.00000     0.00000     1.25520  0.0
    581    564    565    584   5     0.00000     0.00000     1.25520  0.0
    582    564    565    566   5     0.00000     0.00000     1.25520  0.0
    582    564    565    583   5     0.00000     0.00000     1.25520  0.0
    582    564    565    584   5     0.00000     0.00000     1.25520  0.0
    564    565    566    567   5     4.74884    -0.63178     1.67360  0.0
    564    565    566    585   5     0.00000     0.00000     1.25520  0.0
    564    565    566    586   5     0.00000     0.00000     1.25520  0.0
    583    565    566    567   5     0.00000     0.00000     1.25520  0.0
    583    565    566    585   5     0.00000     0.00000     1.25520  0.0
    583    565    566    586   5     0.00000     0.00000     1.25520  0.0
    584    565    566    567   5     0.00000     0.00000     1.25520  0.0
    584    565    566    585   5     0.00000     0.00000     1.25520  0.0
    584    565    566    586   5     0.00000     0.00000     1.25520  0.0
    565    566    567    568   5     4.74884    -0.63178     1.67360  0.0
    565    566    567    587   5     0.00000     0.00000     1.25520  0.0
    565    566    567    588   5     0.00000     0.00000     1.25520  0.0
    585    566    567    568   5     0.00000     0.00000     1.25520  0.0
    585    566    567    587   5     0.00000     0.00000     1.25520  0.0
    585    566    567    588   5     0.00000     0.00000     1.25520  0.0
    586    566    567    568   5     0.00000     0.00000     1.25520  0.0
    586    566    567    587   5     0.00000     0.00000     1.25520  0.0
    586    566    567    588   5     0.00000     0.00000     1.25520  0.0
    566    567    568    569   5     4.74884    -0.63178     1.67360  0.0
    566    567    568    589   5     0.00000     0.00000     1.25520  0.0
    566    567    568    590   5     0.00000     0.00000     1.25520  0.0
    587    567    568    569   5     0.00000     0.00000     1.25520  0.0
    587    567    568    589   5     0.00000     0.00000     1.25520  0.0
    587    567    568    590   5     0.00000     0.00000     1.25520  0.0
    588    567    568    569   5     0.00000     0.00000     1.25520  0.0
    588    567    568    589   5     0.00000     0.00000     1.25520  0.0
    588    567    568    590   5     0.00000     0.00000     1.25520  0.0
    567    568    569    570   5     3.67355     4.10869     2.37651  0.0
    567    568    569    591   5     0.00000     0.00000     1.25520  0.0
    567    568    569    592   5     0.00000     0.00000     1.25520  0.0
    589    568    569    570   5     0.00000     0.00000     1.25520  0.0
    589    568    569    591   5     0.00000     0.00000     1.25520  0.0
    589    568    569    592   5     0.00000     0.00000     1.25520  0.0
    590    568    569    570   5     0.00000     0.00000     1.25520  0.0
    590    568    569    591   5     0.00000     0.00000     1.25520  0.0
    590    568    569    592   5     0.00000     0.00000     1.25520  0.0
    568    569    570    593   5     0.00000     0.00000     0.00000  0.0
    568    569    570    594   5    -3.67774    -0.67781     0.28033  0.0
    591    569    570    593   5     0.00000     0.00000     0.00000  0.0
    591    569    570    594   5     0.00000     0.00000     0.00000  0.0
    592    569    570    593   5     0.00000     0.00000     0.00000  0.0
    592    569    570    594   5     0.00000     0.00000     0.00000  0.0
    569    570    594    595   5     0.00000    25.47638     0.00000  0.0
    569    570    594    596   5    12.53945    12.88254     0.00000  0.0
    593    570    594    595   5     0.00000    20.50160     0.00000  0.0
    593    570    594    596   5     0.00000    20.50160     0.00000  0.0
    570    594    596    597   5    11.69428    -0.66526    -1.56900  0.0
    570    594    596    608   5     0.00000     0.00000     0.00000  0.0
    570    594    596    609   5     0.00000     0.00000     0.00000  0.0
    595    594    596    597   5     0.00000     2.52295     0.00000  0.0
    595    594    596    608   5     0.00000     0.00000     0.00000  0.0
    595    594    596    609   5     0.00000     0.00000     0.00000  0.0
    594    596    597    598   5    -8.00818    -1.52298     2.46438  0.0
    594    596    597    610   5     0.00000     0.00000    -0.94140  0.0
    594    596    597    611   5     0.00000     0.00000    -0.94140  0.0
    608    596    597    598   5     0.00000     0.00000     1.25520  0.0
    608    596    597    610   5     0.00000     0.00000     1.25520  0.0
    608    596    597    611   5     0.00000     0.00000     1.25520  0.0
    609    596    597    598   5     0.00000     0.00000     1.25520  0.0
    609    596    597    610   5     0.00000     0.00000     1.25520  0.0
    609    596    597    611   5     0.00000     0.00000     1.25520  0.0
    596    597    598    599   5     4.74884    -0.63178     1.67360  0.0
    596    597    598    612   5     0.00000     0.00000     1.25520  0.0
    596    597    598    613   5     0.00000     0.00000     1.25520  0.0
    610    597    598    599   5     0.00000     0.00000     1.25520  0.0
    610    597    598    612   5     0.00000     0.00000     1.25520  0.0
    610    597    598    613   5     0.00000     0.00000     1.25520  0.0
    611    597    598    599   5     0.00000     0.00000     1.25520  0.0
    611    597    598    612   5     0.00000     0.00000     1.25520  0.0
    611    597    598    613   5     0.00000     0.00000     1.25520  0.0
    597    598    599    600   5     4.74884    -0.63178     1.67360  0.0
    597    598    599    614   5     0.00000     0.00000     1.25520  0.0
    597    598    599    615   5     0.00000     0.00000     1.25520  0.0
    612    598    599    600   5     0.00000     0.00000     1.25520  0.0
    612    598    599    614   5     0.00000     0.00000     1.25520  0.0
    612    598    599    615   5     0.00000     0.00000     1.25520  0.0
    613    598    599    600   5     0.00000     0.00000     1.25520  0.0
    613    598    599    614   5     0.00000     0.00000     1.25520  0.0
    613    598    599    615   5     0.00000     0.00000     1.25520  0.0
    598    599    600    601   5     4.74884    -0.63178     1.67360  0.0
    598    599    600    616   5     0.00000     0.00000     1.25520  0.0
    598    599    600    617   5     0.00000     0.00000     1.25520  0.0
    614    599    600    601   5     0.00000     0.00000     1.25520  0.0
    614    599    600    616   5     0.00000     0.00000     1.25520  0.0
    614    599    600    617   5     0.00000     0.00000     1.25520  0.0
    615    599    600    601   5     0.00000     0.00000     1.25520  0.0
    615    599    600    616   5     0.00000     0.00000     1.25520  0.0
    615    599    600    617   5     0.00000     0.00000     1.25520  0.0
    599    600    601    602   5     4.74884    -0.63178     1.67360  0.0
    599    600    601    618   5     0.00000     0.00000     1.25520  0.0
    599    600    601    619   5     0.00000     0.00000     1.25520  0.0
    616    600    601    602   5     0.00000     0.00000     1.25520  0.0
    616    600    601    618   5     0.00000     0.00000     1.25520  0.0
    616    600    601    619   5     0.00000     0.00000     1.25520  0.0
    617    600    601    602   5     0.00000     0.00000     1.25520  0.0
    617    600    601    618   5     0.00000     0.00000     1.25520  0.0
    617    600    601    619   5     0.00000     0.00000     1.25520  0.0
    600    601    602    603   5     4.74884    -0.63178     1.67360  0.0
    600    601    602    620   5     0.00000     0.00000     1.25520  0.0
    600    601    602    621   5     0.00000     0.00000     1.25520  0.0
    618    601    602    603   5     0.00000     0.00000     1.25520  0.0
    618    601    602    620   5     0.00000     0.00000     1.25520  0.0
    618    601    602    621   5     0.00000     0.00000     1.25520  0.0
    619    601    602    603   5     0.00000     0.00000     1.25520  0.0
    619    601    602    620   5     0.00000     0.00000     1.25520  0.0
    619    601    602    621   5     0.00000     0.00000     1.25520  0.0
    601    602    603    604   5     4.74884    -0.63178     1.67360  0.0
    601    602    603    622   5     0.00000     0.00000     1.25520  0.0
    601    602    603    623   5     0.00000     0.00000     1.25520  0.0
    620    602    603    604   5     0.00000     0.00000     1.25520  0.0
    620    602    603    622   5     0.00000     0.00000     1.25520  0.0
    620    602    603    623   5     0.00000     0.00000     1.25520  0.0
    621    602    603    604   5     0.00000     0.00000     1.25520  0.0
    621    602    603    622   5     0.00000     0.00000     1.25520  0.0
    621    602    603    623   5     0.00000     0.00000     1.25520  0.0
    602    603    604    605   5     4.74884    -0.63178     1.67360  0.0
    602    603    604    624   5     0.00000     0.00000     1.25520  0.0
    602    603    604    625   5     0.00000     0.00000     1.25520  0.0
    622    603    604    605   5     0.00000     0.00000     1.25520  0.0
    622    603    604    624   5     0.00000     0.00000     1.25520  0.0
    622    603    604    625   5     0.00000     0.00000     1.25520  0.0
    623    603    604    605   5     0.00000     0.00000     1.25520  0.0
    623    603    604    624   5     0.00000     0.00000     1.25520  0.0
    623    603    604    625   5     0.00000     0.00000     1.25520  0.0
    603    604    605    606   5     4.74884    -0.63178     1.67360  0.0
    603    604    605    626   5     0.00000     0.00000     1.25520  0.0
    603    604    605    627   5     0.00000     0.00000     1.25520  0.0
    624    604    605    606   5     0.00000     0.00000     1.25520  0.0
    624    604    605    626   5     0.00000     0.00000     1.25520  0.0
    624    604    605    627   5     0.00000     0.00000     1.25520  0.0
    625    604    605    606   5     0.00000     0.00000     1.25520  0.0
    625    604    605    626   5     0.00000     0.00000     1.25520  0.0
    625    604    605    627   5     0.00000     0.00000     1.25520  0.0
    604    605    606    607   5     3.67355     4.10869     2.37651  0.0
    604    605    606    628   5     0.00000     0.00000     1.25520  0.0
    604    605    606    629   5     0.00000     0.00000     1.25520  0.0
    626    605    606    607   5     0.00000     0.00000     1.25520  0.0
    626    605    606    628   5     0.00000     0.00000     1.25520  0.0
    626    605    606    629   5     0.00000     0.00000     1.25520  0.0
    627    605    606    607   5     0.00000     0.00000     1.25520  0.0
    627    605    606    628   5     0.00000     0.00000     1.25520  0.0
    627    605    606    629   5     0.00000     0.00000     1.25520  0.0
    605    606    607    630   5     0.00000     0.00000     0.00000  0.0
    605    606    607    631   5    -3.67774    -0.67781     0.28033  0.0
    628    606    607    630   5     0.00000     0.00000     0.00000  0.0
    628    606    607    631   5     0.00000     0.00000     0.00000  0.0
    629    606    607    630   5     0.00000     0.00000     0.00000  0.0
    629    606    607    631   5     0.00000     0.00000     0.00000  0.0
    606    607    631    632   5     0.00000    25.47638     0.00000  0.0
    606    607    631    633   5    12.53945    12.88254     0.00000  0.0
    630    607    631    632   5     0.00000    20.50160     0.00000  0.0
    630    607    631    633   5     0.00000    20.50160     0.00000  0.0
    607    631    633    634   5    11.69428    -0.66526    -1.56900  0.0
    607    631    633    645   5     0.00000     0.00000     0.00000  0.0
    607    631    633    646   5     0.00000     0.00000     0.00000  0.0
    632    631    633    634   5     0.00000     2.52295     0.00000  0.0
    632    631    633    645   5     0.00000     0.00000     0.00000  0.0
    632    631    633    646   5     0.00000     0.00000     0.00000  0.0
    631    633    634    635   5    -8.00818    -1.52298     2.46438  0.0
    631    633    634    647   5     0.00000     0.00000    -0.94140  0.0
    631    633    634    648   5     0.00000     0.00000    -0.94140  0.0
    645    633    634    635   5     0.00000     0.00000     1.25520  0.0
    645    633    634    647   5     0.00000     0.00000     1.25520  0.0
    645    633    634    648   5     0.00000     0.00000     1.25520  0.0
    646    633    634    635   5     0.00000     0.00000     1.25520  0.0
    646    633    634    647   5     0.00000     0.00000     1.25520  0.0
    646    633    634    648   5     0.00000     0.00000     1.25520  0.0
    633    634    635    636   5     4.74884    -0.63178     1.67360  0.0
    633    634    635    649   5     0.00000     0.00000     1.25520  0.0
    633    634    635    650   5     0.00000     0.00000     1.25520  0.0
    647    634    635    636   5     0.00000     0.00000     1.25520  0.0
    647    634    635    649   5     0.00000     0.00000     1.25520  0.0
    647    634    635    650   5     0.00000     0.00000     1.25520  0.0
    648    634    635    636   5     0.00000     0.00000     1.25520  0.0
    648    634    635    649   5     0.00000     0.00000     1.25520  0.0
    648    634    635    650   5     0.00000     0.00000     1.25520  0.0
    634    635    636    637   5     4.74884    -0.63178     1.67360  0.0
    634    635    636    651   5     0.00000     0.00000     1.25520  0.0
    634    635    636    652   5     0.00000     0.00000     1.25520  0.0
    649    635    636    637   5     0.00000     0.00000     1.25520  0.0
    649    635    636    651   5     0.00000     0.00000     1.25520  0.0
    649    635    636    652   5     0.00000     0.00000     1.25520  0.0
    650    635    636    637   5     0.00000     0.00000     1.25520  0.0
    650    635    636    651   5     0.00000     0.00000     1.25520  0.0
    650    635    636    652   5     0.00000     0.00000     1.25520  0.0
    635    636    637    638   5     4.74884    -0.63178     1.67360  0.0
    635    636    637    653   5     0.00000     0.00000     1.25520  0.0
    635    636    637    654   5     0.00000     0.00000     1.25520  0.0
    651    636    637    638   5     0.00000     0.00000     1.25520  0.0
    651    636    637    653   5     0.00000     0.00000     1.25520  0.0
    651    636    637    654   5     0.00000     0.00000     1.25520  0.0
    652    636    637    638   5     0.00000     0.00000     1.25520  0.0
    652    636    637    653   5     0.00000     0.00000     1.25520  0.0
    652    636    637    654   5     0.00000     0.00000     1.25520  0.0
    636    637    638    639   5     4.74884    -0.63178     1.67360  0.0
    636    637    638    655   5     0.00000     0.00000     1.25520  0.0
    636    637    638    656   5     0.00000     0.00000     1.25520  0.0
    653    637    638    639   5     0.00000     0.00000     1.25520  0.0
    653    637    638    655   5     0.00000     0.00000     1.25520  0.0
    653    637    638    656   5     0.00000     0.00000     1.25520  0.0
    654    637    638    639   5     0.00000     0.00000     1.25520  0.0
    654    637    638    655   5     0.00000     0.00000     1.25520  0.0
    654    637    638    656   5     0.00000     0.00000     1.25520  0.0
    637    638    639    640   5     4.74884    -0.63178     1.67360  0.0
    637    638    639    657   5     0.00000     0.00000     1.25520  0.0
    637    638    639    658   5     0.00000     0.00000     1.25520  0.0
    655    638    639    640   5     0.00000     0.00000     1.25520  0.0
    655    638    639    657   5     0.00000     0.00000     1.25520  0.0
    655    638    639    658   5     0.00000     0.00000     1.25520  0.0
    656    638    639    640   5     0.00000     0.00000     1.25520  0.0
    656    638    639    657   5     0.00000     0.00000     1.25520  0.0
    656    638    639    658   5     0.00000     0.00000     1.25520  0.0
    638    639    640    641   5     4.74884    -0.63178     1.67360  0.0
    638    639    640    659   5     0.00000     0.00000     1.25520  0.0
    638    639    640    660   5     0.00000     0.00000     1.25520  0.0
    657    639    640    641   5     0.00000     0.00000     1.25520  0.0
    657    639    640    659   5     0.00000     0.00000     1.25520  0.0
    657    639    640    660   5     0.00000     0.00000     1.25520  0.0
    658    639    640    641   5     0.00000     0.00000     1.25520  0.0
    658    639    640    659   5     0.00000     0.00000     1.25520  0.0
    658    639    640    660   5     0.00000     0.00000     1.25520  0.0
    639    640    641    642   5     4.74884    -0.63178     1.67360  0.0
    639    640    641    661   5     0.00000     0.00000     1.25520  0.0
    639    640    641    662   5     0.00000     0.00000     1.25520  0.0
    659    640    641    642   5     0.00000     0.00000     1.25520  0.0
    659    640    641    661   5     0.00000     0.00000     1.25520  0.0
    659    640    641    662   5     0.00000     0.00000     1.25520  0.0
    660    640    641    642   5     0.00000     0.00000     1.25520  0.0
    660    640    641    661   5     0.00000     0.00000     1.25520  0.0
    660    640    641    662   5     0.00000     0.00000     1.25520  0.0
    640    641    642    643   5     4.74884    -0.63178     1.67360  0.0
    640    641    642    663   5     0.00000     0.00000     1.25520  0.0
    640    641    642    664   5     0.00000     0.00000     1.25520  0.0
    661    641    642    643   5     0.00000     0.00000     1.25520  0.0
    661    641    642    663   5     0.00000     0.00000     1.25520  0.0
    661    641    642    664   5     0.00000     0.00000     1.25520  0.0
    662    641    642    643   5     0.00000     0.00000     1.25520  0.0
    662    641    642    663   5     0.00000     0.00000     1.25520  0.0
    662    641    642    664   5     0.00000     0.00000     1.25520  0.0
    641    642    643    644   5     3.67355     4.10869     2.37651  0.0
    641    642    643    665   5     0.00000     0.00000     1.25520  0.0
    641    642    643    666   5     0.00000     0.00000     1.25520  0.0
    663    642    643    644   5     0.00000     0.00000     1.25520  0.0
    663    642    643    665   5     0.00000     0.00000     1.25520  0.0
    663    642    643    666   5     0.00000     0.00000     1.25520  0.0
    664    642    643    644   5     0.00000     0.00000     1.25520  0.0
    664    642    643    665   5     0.00000     0.00000     1.25520  0.0
    664    642    643    666   5     0.00000     0.00000     1.25520  0.0
    642    643    644    667   5     0.00000     0.00000     0.00000  0.0
    642    643    644    668   5    -3.67774    -0.67781     0.28033  0.0
    665    643    644    667   5     0.00000     0.00000     0.00000  0.0
    665    643    644    668   5     0.00000     0.00000     0.00000  0.0
    666    643    644    667   5     0.00000     0.00000     0.00000  0.0
    666    643    644    668   5     0.00000     0.00000     0.00000  0.0
    643    644    668    669   5     0.00000    25.47638     0.00000  0.0
    643    644    668    670   5    12.53945    12.88254     0.00000  0.0
    667    644    668    669   5     0.00000    20.50160     0.00000  0.0
    667    644    668    670   5     0.00000    20.50160     0.00000  0.0
    644    668    670    671   5    11.69428    -0.66526    -1.56900  0.0
    644    668    670    682   5     0.00000     0.00000     0.00000  0.0
    644    668    670    683   5     0.00000     0.00000     0.00000  0.0
    669    668    670    671   5     0.00000     2.52295     0.00000  0.0
    669    668    670    682   5     0.00000     0.00000     0.00000  0.0
    669    668    670    683   5     0.00000     0.00000     0.00000  0.0
    668    670    671    672   5    -8.00818    -1.52298     2.46438  0.0
    668    670    671    684   5     0.00000     0.00000    -0.94140  0.0
    668    670    671    685   5     0.00000     0.00000    -0.94140  0.0
    682    670    671    672   5     0.00000     0.00000     1.25520  0.0
    682    670    671    684   5     0.00000     0.00000     1.25520  0.0
    682    670    671    685   5     0.00000     0.00000     1.25520  0.0
    683    670    671    672   5     0.00000     0.00000     1.25520  0.0
    683    670    671    684   5     0.00000     0.00000     1.25520  0.0
    683    670    671    685   5     0.00000     0.00000     1.25520  0.0
    670    671    672    673   5     4.74884    -0.63178     1.67360  0.0
    670    671    672    686   5     0.00000     0.00000     1.25520  0.0
    670    671    672    687   5     0.00000     0.00000     1.25520  0.0
    684    671    672    673   5     0.00000     0.00000     1.25520  0.0
    684    671    672    686   5     0.00000     0.00000     1.25520  0.0
    684    671    672    687   5     0.00000     0.00000     1.25520  0.0
    685    671    672    673   5     0.00000     0.00000     1.25520  0.0
    685    671    672    686   5     0.00000     0.00000     1.25520  0.0
    685    671    672    687   5     0.00000     0.00000     1.25520  0.0
    671    672    673    674   5     4.74884    -0.63178     1.67360  0.0
    671    672    673    688   5     0.00000     0.00000     1.25520  0.0
    671    672    673    689   5     0.00000     0.00000     1.25520  0.0
    686    672    673    674   5     0.00000     0.00000     1.25520  0.0
    686    672    673    688   5     0.00000     0.00000     1.25520  0.0
    686    672    673    689   5     0.00000     0.00000     1.25520  0.0
    687    672    673    674   5     0.00000     0.00000     1.25520  0.0
    687    672    673    688   5     0.00000     0.00000     1.25520  0.0
    687    672    673    689   5     0.00000     0.00000     1.25520  0.0
    672    673    674    675   5     4.74884    -0.63178     1.67360  0.0
    672    673    674    690   5     0.00000     0.00000     1.25520  0.0
    672    673    674    691   5     0.00000     0.00000     1.25520  0.0
    688    673    674    675   5     0.00000     0.00000     1.25520  0.0
    688    673    674    690   5     0.00000     0.00000     1.25520  0.0
    688    673    674    691   5     0.00000     0.00000     1.25520  0.0
    689    673    674    675   5     0.00000     0.00000     1.25520  0.0
    689    673    674    690   5     0.00000     0.00000     1.25520  0.0
    689    673    674    691   5     0.00000     0.00000     1.25520  0.0
    673    674    675    676   5     4.74884    -0.63178     1.67360  0.0
    673    674    675    692   5     0.00000     0.00000     1.25520  0.0
    673    674    675    693   5     0.00000     0.00000     1.25520  0.0
    690    674    675    676   5     0.00000     0.00000     1.25520  0.0
    690    674    675    692   5     0.00000     0.00000     1.25520  0.0
    690    674    675    693   5     0.00000     0.00000     1.25520  0.0
    691    674    675    676   5     0.00000     0.00000     1.25520  0.0
    691    674    675    692   5     0.00000     0.00000     1.25520  0.0
    691    674    675    693   5     0.00000     0.00000     1.25520  0.0
    674    675    676    677   5     4.74884    -0.63178     1.67360  0.0
    674    675    676    694   5     0.00000     0.00000     1.25520  0.0
    674    675    676    695   5     0.00000     0.00000     1.25520  0.0
    692    675    676    677   5     0.00000     0.00000     1.25520  0.0
    692    675    676    694   5     0.00000     0.00000     1.25520  0.0
    692    675    676    695   5     0.00000     0.00000     1.25520  0.0
    693    675    676    677   5     0.00000     0.00000     1.25520  0.0
    693    675    676    694   5     0.00000     0.00000     1.25520  0.0
    693    675    676    695   5     0.00000     0.00000     1.25520  0.0
    675    676    677    678   5     4.74884    -0.63178     1.67360  0.0
    675    676    677    696   5     0.00000     0.00000     1.25520  0.0
    675    676    677    697   5     0.00000     0.00000     1.25520  0.0
    694    676    677    678   5     0.00000     0.00000     1.25520  0.0
    694    676    677    696   5     0.00000     0.00000     1.25520  0.0
    694    676    677    697   5     0.00000     0.00000     1.25520  0.0
    695    676    677    678   5     0.00000     0.00000     1.25520  0.0
    695    676    677    696   5     0.00000     0.00000     1.25520  0.0
    695    676    677    697   5     0.00000     0.00000     1.25520  0.0
    676    677    678    679   5     4.74884    -0.63178     1.67360  0.0
    676    677    678    698   5     0.00000     0.00000     1.25520  0.0
    676    677    678    699   5     0.00000     0.00000     1.25520  0.0
    696    677    678    679   5     0.00000     0.00000     1.25520  0.0
    696    677    678    698   5     0.00000     0.00000     1.25520  0.0
    696    677    678    699   5     0.00000     0.00000     1.25520  0.0
    697    677    678    679   5     0.00000     0.00000     1.25520  0.0
    697    677    678    698   5     0.00000     0.00000     1.25520  0.0
    697    677    678    699   5     0.00000     0.00000     1.25520  0.0
    677    678    679    680   5     4.74884    -0.63178     1.67360  0.0
    677    678    679    700   5     0.00000     0.00000     1.25520  0.0
    677    678    679    701   5     0.00000     0.00000     1.25520  0.0
    698    678    679    680   5     0.00000     0.00000     1.25520  0.0
    698    678    679    700   5     0.00000     0.00000     1.25520  0.0
    698    678    679    701   5     0.00000     0.00000     1.25520  0.0
    699    678    679    680   5     0.00000     0.00000     1.25520  0.0
    699    678    679    700   5     0.00000     0.00000     1.25520  0.0
    699    678    679    701   5     0.00000     0.00000     1.25520  0.0
    678    679    680    681   5     3.67355     4.10869     2.37651  0.0
    678    679    680    702   5     0.00000     0.00000     1.25520  0.0
    678    679    680    703   5     0.00000     0.00000     1.25520  0.0
    700    679    680    681   5     0.00000     0.00000     1.25520  0.0
    700    679    680    702   5     0.00000     0.00000     1.25520  0.0
    700    679    680    703   5     0.00000     0.00000     1.25520  0.0
    701    679    680    681   5     0.00000     0.00000     1.25520  0.0
    701    679    680    702   5     0.00000     0.00000     1.25520  0.0
    701    679    680    703   5     0.00000     0.00000     1.25520  0.0
    679    680    681    704   5     0.00000     0.00000     0.00000  0.0
    679    680    681    705   5    -3.67774    -0.67781     0.28033  0.0
    702    680    681    704   5     0.00000     0.00000     0.00000  0.0
    702    680    681    705   5     0.00000     0.00000     0.00000  0.0
    703    680    681    704   5     0.00000     0.00000     0.00000  0.0
    703    680    681    705   5     0.00000     0.00000     0.00000  0.0
    680    681    705    706   5     0.00000    25.47638     0.00000  0.0
    680    681    705    707   5    12.53945    12.88254     0.00000  0.0
    704    681    705    706   5     0.00000    20.50160     0.00000  0.0
    704    681    705    707   5     0.00000    20.50160     0.00000  0.0
    681    705    707    708   5    11.69428    -0.66526    -1.56900  0.0
    681    705    707    719   5     0.00000     0.00000     0.00000  0.0
    681    705    707    720   5     0.00000     0.00000     0.00000  0.0
    706    705    707    708   5     0.00000     2.52295     0.00000  0.0
    706    705    707    719   5     0.00000     0.00000     0.00000  0.0
    706    705    707    720   5     0.00000     0.00000     0.00000  0.0
    705    707    708    709   5    -8.00818    -1.52298     2.46438  0.0
    705    707    708    721   5     0.00000     0.00000    -0.94140  0.0
    705    707    708    722   5     0.00000     0.00000    -0.94140  0.0
    719    707    708    709   5     0.00000     0.00000     1.25520  0.0
    719    707    708    721   5     0.00000     0.00000     1.25520  0.0
    719    707    708    722   5     0.00000     0.00000     1.25520  0.0
    720    707    708    709   5     0.00000     0.00000     1.25520  0.0
    720    707    708    721   5     0.00000     0.00000     1.25520  0.0
    720    707    708    722   5     0.00000     0.00000     1.25520  0.0
    707    708    709    710   5     4.74884    -0.63178     1.67360  0.0
    707    708    709    723   5     0.00000     0.00000     1.25520  0.0
    707    708    709    724   5     0.00000     0.00000     1.25520  0.0
    721    708    709    710   5     0.00000     0.00000     1.25520  0.0
    721    708    709    723   5     0.00000     0.00000     1.25520  0.0
    721    708    709    724   5     0.00000     0.00000     1.25520  0.0
    722    708    709    710   5     0.00000     0.00000     1.25520  0.0
    722    708    709    723   5     0.00000     0.00000     1.25520  0.0
    722    708    709    724   5     0.00000     0.00000     1.25520  0.0
    708    709    710    711   5     4.74884    -0.63178     1.67360  0.0
    708    709    710    725   5     0.00000     0.00000     1.25520  0.0
    708    709    710    726   5     0.00000     0.00000     1.25520  0.0
    723    709    710    711   5     0.00000     0.00000     1.25520  0.0
    723    709    710    725   5     0.00000     0.00000     1.25520  0.0
    723    709    710    726   5     0.00000     0.00000     1.25520  0.0
    724    709    710    711   5     0.00000     0.00000     1.25520  0.0
    724    709    710    725   5     0.00000     0.00000     1.25520  0.0
    724    709    710    726   5     0.00000     0.00000     1.25520  0.0
    709    710    711    712   5     4.74884    -0.63178     1.67360  0.0
    709    710    711    727   5     0.00000     0.00000     1.25520  0.0
    709    710    711    728   5     0.00000     0.00000     1.25520  0.0
    725    710    711    712   5     0.00000     0.00000     1.25520  0.0
    725    710    711    727   5     0.00000     0.00000     1.25520  0.0
    725    710    711    728   5     0.00000     0.00000     1.25520  0.0
    726    710    711    712   5     0.00000     0.00000     1.25520  0.0
    726    710    711    727   5     0.00000     0.00000     1.25520  0.0
    726    710    711    728   5     0.00000     0.00000     1.25520  0.0
    710    711    712    713   5     4.74884    -0.63178     1.67360  0.0
    710    711    712    729   5     0.00000     0.00000     1.25520  0.0
    710    711    712    730   5     0.00000     0.00000     1.25520  0.0
    727    711    712    713   5     0.00000     0.00000     1.25520  0.0
    727    711    712    729   5     0.00000     0.00000     1.25520  0.0
    727    711    712    730   5     0.00000     0.00000     1.25520  0.0
    728    711    712    713   5     0.00000     0.00000     1.25520  0.0
    728    711    712    729   5     0.00000     0.00000     1.25520  0.0
    728    711    712    730   5     0.00000     0.00000     1.25520  0.0
    711    712    713    714   5     4.74884    -0.63178     1.67360  0.0
    711    712    713    731   5     0.00000     0.00000     1.25520  0.0
    711    712    713    732   5     0.00000     0.00000     1.25520  0.0
    729    712    713    714   5     0.00000     0.00000     1.25520  0.0
    729    712    713    731   5     0.00000     0.00000     1.25520  0.0
    729    712    713    732   5     0.00000     0.00000     1.25520  0.0
    730    712    713    714   5     0.00000     0.00000     1.25520  0.0
    730    712    713    731   5     0.00000     0.00000     1.25520  0.0
    730    712    713    732   5     0.00000     0.00000     1.25520  0.0
    712    713    714    715   5     4.74884    -0.63178     1.67360  0.0
    712    713    714    733   5     0.00000     0.00000     1.25520  0.0
    712    713    714    734   5     0.00000     0.00000     1.25520  0.0
    731    713    714    715   5     0.00000     0.00000     1.25520  0.0
    731    713    714    733   5     0.00000     0.00000     1.25520  0.0
    731    713    714    734   5     0.00000     0.00000     1.25520  0.0
    732    713    714    715   5     0.00000     0.00000     1.25520  0.0
    732    713    714    733   5     0.00000     0.00000     1.25520  0.0
    732    713    714    734   5     0.00000     0.00000     1.25520  0.0
    713    714    715    716   5     4.74884    -0.63178     1.67360  0.0
    713    714    715    735   5     0.00000     0.00000     1.25520  0.0
    713    714    715    736   5     0.00000     0.00000     1.25520  0.0
    733    714    715    716   5     0.00000     0.00000     1.25520  0.0
    733    714    715    735   5     0.00000     0.00000     1.25520  0.0
    733    714    715    736   5     0.00000     0.00000     1.25520  0.0
    734    714    715    716   5     0.00000     0.00000     1.25520  0.0
    734    714    715    735   5     0.00000     0.00000     1.25520  0.0
    734    714    715    736   5     0.00000     0.00000     1.25520  0.0
    714    715    716    717   5     4.74884    -0.63178     1.67360  0.0
    714    715    716    737   5     0.00000     0.00000     1.25520  0.0
    714    715    716    738   5     0.00000     0.00000     1.25520  0.0
    735    715    716    717   5     0.00000     0.00000     1.25520  0.0
    735    715    716    737   5     0.00000     0.00000     1.25520  0.0
    735    715    716    738   5     0.00000     0.00000     1.25520  0.0
    736    715    716    717   5     0.00000     0.00000     1.25520  0.0
    736    715    716    737   5     0.00000     0.00000     1.25520  0.0
    736    715    716    738   5     0.00000     0.00000     1.25520  0.0
    715    716    717    718   5    12.83651    -0.83262     0.47698  0.0
    715    716    717    739   5     0.00000     0.00000     1.25520  0.0
    715    716    717    740   5     0.00000     0.00000     1.25520  0.0
    737    716    717    718   5     0.00000     0.00000     1.25520  0.0
    737    716    717    739   5     0.00000     0.00000     1.25520  0.0
    737    716    717    740   5     0.00000     0.00000     1.25520  0.0
    738    716    717    718   5     0.00000     0.00000     1.25520  0.0
    738    716    717    739   5     0.00000     0.00000     1.25520  0.0
    738    716    717    740   5     0.00000     0.00000     1.25520  0.0
    716    717    718    741   5    -0.49790     0.74057     0.98324  0.0
    716    717    718    742   5    -0.49790     0.74057     0.98324  0.0
    739    717    718    741   5     0.00000     0.00000     1.67360  0.0
    739    717    718    742   5     0.00000     0.00000     1.67360  0.0
    740    717    718    741   5     0.00000     0.00000     1.67360  0.0
    740    717    718    742   5     0.00000     0.00000     1.67360  0.0

[ dihedrals ]
; Improper dihedrals
; h   i   j   k   funct
      2      3      1     38   5     0.00000    87.86400     0.00000  0.0
     13     37     14     39   5     0.00000     8.36800     0.00000  0.0
     14     40     39     41   5     0.00000    87.86400     0.00000  0.0
     51     75     52     76   5     0.00000     8.36800     0.00000  0.0
     52     77     76     78   5     0.00000    87.86400     0.00000  0.0
     88    112     89    113   5     0.00000     8.36800     0.00000  0.0
     89    114    113    115   5     0.00000    87.86400     0.00000  0.0
    125    149    126    150   5     0.00000     8.36800     0.00000  0.0
    126    151    150    152   5     0.00000    87.86400     0.00000  0.0
    162    186    163    187   5     0.00000     8.36800     0.00000  0.0
    163    188    187    189   5     0.00000    87.86400     0.00000  0.0
    199    223    200    224   5     0.00000     8.36800     0.00000  0.0
    200    225    224    226   5     0.00000    87.86400     0.00000  0.0
    236    260    237    261   5     0.00000     8.36800     0.00000  0.0
    237    262    261    263   5     0.00000    87.86400     0.00000  0.0
    273    297    274    298   5     0.00000     8.36800     0.00000  0.0
    274    299    298    300   5     0.00000    87.86400     0.00000  0.0
    310    334    311    335   5     0.00000     8.36800     0.00000  0.0
    311    336    335    337   5     0.00000    87.86400     0.00000  0.0
    347    371    348    372   5     0.00000     8.36800     0.00000  0.0
    348    373    372    374   5     0.00000    87.86400     0.00000  0.0
    384    408    385    409   5     0.00000     8.36800     0.00000  0.0
    385    410    409    411   5     0.00000    87.86400     0.00000  0.0
    421    445    422    446   5     0.00000     8.36800     0.00000  0.0
    422    447    446    448   5     0.00000    87.86400     0.00000  0.0
    458    482    459    483   5     0.00000     8.36800     0.00000  0.0
    459    484    483    485   5     0.00000    87.86400     0.00000  0.0
    495    519    496    520   5     0.00000     8.36800     0.00000  0.0
    496    521    520    522   5     0.00000    87.86400     0.00000  0.0
    532    556    533    557   5     0.00000     8.36800     0.00000  0.0
    533    558    557    559   5     0.00000    87.86400     0.00000  0.0
    569    593    570    594   5     0.00000     8.36800     0.00000  0.0
    570    595    594    596   5     0.00000    87.86400     0.00000  0.0
    606    630    607    631   5     0.00000     8.36800     0.00000  0.0
    607    632    631    633   5     0.00000    87.86400     0.00000  0.0
    643    667    644    668   5     0.00000     8.36800     0.00000  0.0
    644    669    668    670   5     0.00000    87.86400     0.00000  0.0
    680    704    681    705   5     0.00000     8.36800     0.00000  0.0
    681    706    705    707   5     0.00000    87.86400     0.00000  0.0
