Control file title. For DL_FIELD 4.10
49056
    1MOL     N1    1   1.778   4.941   4.767 -0.0428 -0.0941  0.4548
    1MOL     C2    2   1.745   4.845   4.867  0.1472 -0.4073  0.7287
    1MOL     C3    3   1.625   4.841   4.935 -0.7377  0.0818 -0.2252
    1MOL     C4    4   1.603   4.747   5.039 -0.7504 -0.4931 -0.0597
    1MOL     C5    5   1.697   4.649   5.067 -0.0733  0.1636  0.3655
    1MOL     N6    6   1.670   4.551   5.158 -0.1483  0.3952 -0.4386
    1MOL     C7    7   1.664   4.561   5.298 -0.4409  0.3417  0.4467
    1MOL     C8    8   1.650   4.685   5.364 -0.3425 -0.6773  0.3437
    1MOL     C9    9   1.635   4.699   5.504  0.9124  0.7000 -0.0947
    1MOL    C10   10   1.639   4.579   5.582 -0.2535  0.3788  0.3464
    1MOL    N11   11   1.626   4.579   5.719 -0.2361 -0.4261 -0.7184
    1MOL    C12   12   1.596   4.684   5.807 -0.0484  0.6735  0.2481
    1MOL    C13   13   1.478   4.762   5.792 -0.0507  0.0921  0.0465
    1MOL    C14   14   1.451   4.858   5.891  0.4430  0.2397 -0.1376
    1MOL    C15   15   1.544   4.877   6.000  1.1977  0.1268 -0.4562
    1MOL    N16   16   1.501   4.982   6.091 -0.1095  0.3829 -0.0444
    1MOL    C17   17   1.578   5.045   6.189  0.1639  0.6033  0.2384
    1MOL    C18   18   1.517   5.100   6.304 -0.2992  0.7270  0.1190
    1MOL    C19   19   1.593   5.156   6.406  0.2050 -1.0129 -0.3084
    1MOL    C20   20   1.737   5.162   6.404  0.2303  0.4396  1.0385
    1MOL    C21   21   1.822   5.208   6.523 -1.0134 -0.7607 -0.0172
    1MOL    C22   22   1.793   5.120   6.281  0.3289 -0.9508  0.1180
    1MOL    C23   23   1.718   5.056   6.180 -0.3804  0.4712  0.2534
    1MOL    C24   24   1.662   4.800   6.012  0.1968  0.4776 -0.3455
    1MOL    C25   25   1.682   4.707   5.916 -0.8349 -0.0269  0.2159
    1MOL    C26   26   1.656   4.449   5.515 -0.0461 -0.4919 -0.5763
    1MOL    C27   27   1.668   4.442   5.378  0.7005 -0.0189  0.0248
    1MOL    C28   28   1.819   4.652   4.995 -0.3454  0.0214 -0.2141
    1MOL    C29   29   1.845   4.751   4.903 -0.2800 -0.5998 -0.4026
    1MOL    H30   30   1.709   5.014   4.757 -0.0813 -0.2369 -0.3633
    1MOL    H31   31   1.563   4.928   4.920  0.4007  1.1770  1.1995
    1MOL    H32   32   1.506   4.748   5.087 -2.1181  1.1752 -2.7426
    1MOL    H33   33   1.719   4.469   5.126 -0.0588 -1.0447  3.1034
    1MOL    H34   34   1.647   4.776   5.305 -0.0839 -1.8066 -1.4599
    1MOL    H35   35   1.615   4.790   5.559  0.6378 -2.8805  6.1585
    1MOL    H36   36   1.680   4.499   5.750  0.9127  0.7408  0.3038
    1MOL    H37   37   1.403   4.747   5.716  1.0123  0.4649 -1.0878
    1MOL    H38   38   1.361   4.917   5.882  0.1748 -0.0848  0.4321
    1MOL    H39   39   1.401   4.999   6.090 -0.5104 -1.7152  0.8458
    1MOL    H40   40   1.409   5.103   6.303 -0.3674 -0.1647  2.2333
    1MOL    H41   41   1.530   5.181   6.491 -0.2866  0.2352 -1.0297
    1MOL    H42   42   1.902   5.271   6.484 -0.7903 -0.7949  0.3943
    1MOL    H43   43   1.866   5.116   6.562 -0.2024 -0.9527 -1.3482
    1MOL    H44   44   1.900   5.133   6.275  0.6001 -1.1375  3.4635
    1MOL    H45   45   1.773   5.014   6.097  0.6794  2.0420  0.1528
    1MOL    H46   46   1.730   4.799   6.095  0.2998  1.2853 -0.4181
    1MOL    H47   47   1.772   4.649   5.918 -0.9854 -0.2430  1.6237
    1MOL    H48   48   1.658   4.360   5.576  3.1551  0.4042  0.7309
    1MOL    H49   49   1.681   4.345   5.332  2.4440 -0.2051  0.8889
    1MOL    H50   50   1.898   4.581   5.011  0.0397  0.1467 -1.5074
    1MOL    H51   51   1.938   4.763   4.850 -0.7131  1.9889 -0.6224
    1MOL    H52   52   1.804   4.909   4.674 -2.5881  1.6943 -0.9449
    1MOL    N53   53   1.739   5.282   6.613 -0.0209 -0.2622  0.0488
    1MOL    C54   54   1.805   5.347   6.713 -1.0885  0.6381  0.6902
    1MOL    C55   55   1.881   5.278   6.813 -0.1489 -0.1478  0.1282
    1MOL    C56   56   1.950   5.344   6.916  0.2795  0.0704  0.1338
    1MOL    C57   57   1.942   5.485   6.918 -0.2436 -0.6963  0.7349
    1MOL    N58   58   2.005   5.567   7.011 -0.2886  0.4626 -0.4784
    1MOL    C59   59   2.070   5.528   7.131 -0.1958  0.0572  0.5876
    1MOL    C60   60   2.021   5.570   7.252  0.4126  0.2359 -0.0951
    1MOL    C61   61   2.085   5.519   7.363  0.1940 -0.5906  0.2788
    1MOL    C62   62   2.196   5.435   7.360  1.6754 -0.6892  0.1851
    1MOL    N63   63   2.253   5.410   7.482  0.4108  0.3698  0.5355
    1MOL    C64   64   2.303   5.289   7.529  0.9794 -0.1608  0.8250
    1MOL    C65   65   2.320   5.175   7.450 -0.1725  0.2618  0.4709
    1MOL    C66   66   2.351   5.049   7.504 -0.0396  0.1652 -0.2252
    1MOL    C67   67   2.370   5.033   7.645 -0.0337  0.1876 -1.0981
    1MOL    N68   68   2.402   4.908   7.693  0.3230 -0.4974 -0.4464
    1MOL    C69   69   2.357   4.857   7.820 -0.2092 -0.1723  0.4379
    1MOL    C70   70   2.440   4.773   7.893 -0.1861 -0.1395  0.0688
    1MOL    C71   71   2.395   4.707   0.025 -1.0166 -0.4519  0.2103
    1MOL    C72   72   2.269   4.728   0.079  0.1834 -0.0654 -0.0908
    1MOL    C73   73   2.215   4.644   0.193 -0.6892  0.0430  0.8415
    1MOL    C74   74   2.189   4.822   0.011  0.1950  0.0782  0.3125
    1MOL    C75   75   2.233   4.884   7.873  0.7244  0.3056 -0.0528
    1MOL    C76   76   2.349   5.146   7.728  0.4847 -0.1005  0.0703
    1MOL    C77   77   2.324   5.272   7.667  0.2837  0.4389  0.1642
    1MOL    C78   78   2.248   5.392   7.233 -0.3110 -0.4782 -0.2780
    1MOL    C79   79   2.188   5.444   7.117 -0.1355 -0.3039 -0.2594
    1MOL    C80   80   1.866   5.556   6.820  0.1977 -0.0149  0.0110
    1MOL    C81   81   1.793   5.486   6.720 -0.3258 -1.1596  0.0226
    1MOL    H82   82   1.662   5.329   6.569  0.0288 -1.1390 -0.9897
    1MOL    H83   83   1.901   5.173   6.795  2.8905  0.5928 -1.2708
    1MOL    H84   84   1.990   5.287   6.999  0.0727 -0.0973  0.1171
    1MOL    H85   85   1.970   5.661   7.017  0.1749  0.5290  1.6202
    1MOL    H86   86   1.926   5.619   7.267 -1.4611 -3.4151  0.6873
    1MOL    H87   87   2.053   5.544   7.464 -1.0663 -0.4373 -0.1418
    1MOL    H88   88   2.219   5.471   7.556 -1.4438  0.6054 -0.4655
    1MOL    H89   89   2.293   5.176   7.346 -3.1275 -2.1041  1.1221
    1MOL    H90   90   2.368   4.964   7.439 -0.5761 -0.9773  1.0947
    1MOL    H91   91   2.448   4.852   7.622 -0.9964 -2.6020  0.3288
    1MOL    H92   92   2.543   4.756   7.866 -0.1736 -1.7598  1.0500
    1MOL    H93   93   2.462   4.637   0.072 -2.4662 -0.9470  1.6058
    1MOL    H94   94   2.287   4.565   0.215 -0.8666 -0.6783 -1.0672
    1MOL    H95   95   2.127   4.599   0.147 -0.4711 -0.0271  0.4972
    1MOL    H96   96   2.087   4.836   0.044 -0.5059 -0.3182 -1.6206
    1MOL    H97   97   2.166   4.953   7.825 -0.4897 -1.2755 -0.6673
    1MOL    H98   98   2.360   5.141   7.836  1.0111  0.9704  0.0770
    1MOL    H99   99   2.329   5.359   7.729  0.0729  0.0702  0.7025
    1MOL   H100  100   2.334   5.327   7.233 -1.0408 -1.4739  1.7084
    1MOL   H101  101   2.223   5.426   7.016  0.3500  2.5763 -0.6470
    1MOL   H102  102   1.865   5.663   6.828  0.1545  0.0256 -0.5114
    1MOL   H103  103   1.735   5.553   6.658  0.1093 -1.0873 -0.3040
    1MOL   N104  104   2.183   4.724   0.310 -0.2286 -0.1507 -0.3745
    1MOL   C105  105   2.172   4.639   0.421  0.1846  0.2420 -0.1131
    1MOL   C106  106   2.262   4.665   0.524 -0.3653 -1.0873  0.0615
    1MOL   C107  107   2.275   4.583   0.640  0.3981  0.0201 -0.3824
    1MOL   C108  108   2.188   4.473   0.650  0.1881  0.0097  0.6136
    1MOL   N109  109   2.188   4.391   0.764 -0.7695 -0.2636 -0.6396
    1MOL   C110  110   2.127   4.426   0.881  0.3193 -0.4954  0.3944
    1MOL   C111  111   2.031   4.524   0.894  0.7852 -0.0008  0.1964
    1MOL   C112  112   1.963   4.550   1.018  0.0377  0.3584 -0.0398
    1MOL   C113  113   1.995   4.474   1.130 -0.0559  0.1518 -0.9064
    1MOL   N114  114   1.920   4.502   1.249 -0.3088  0.1610  0.4657
    1MOL   C115  115   1.908   4.413   1.358  0.3831 -0.0616 -0.0662
    1MOL   C116  116   1.871   4.278   1.342  0.6337  0.2029 -0.6192
    1MOL   C117  117   1.873   4.189   1.451 -1.3379  0.5265 -0.4248
    1MOL   C118  118   1.916   4.235   1.578  0.1231 -0.5751 -0.8076
    1MOL   N119  119   1.928   4.152   1.690 -0.2696  0.0565  0.5521
    1MOL   C120  120   1.946   4.011   1.696  0.0588  0.6870  0.4360
    1MOL   C121  121   2.045   3.953   1.614  0.5350  0.2440 -1.0667
    1MOL   C122  122   2.076   3.818   1.626 -0.6464  0.2989 -0.2548
    1MOL   C123  123   1.999   3.740   1.709 -0.0154  0.7703 -0.1886
    1MOL   C124  124   2.045   3.597   1.732 -0.6208  0.1803 -0.0675
    1MOL   C125  125   1.886   3.793   1.777  0.2667  0.0655 -0.1274
    1MOL   C126  126   1.863   3.930   1.775 -0.2678 -0.0402  0.2454
    1MOL   C127  127   1.942   4.374   1.599  0.3468  0.1663 -0.7641
    1MOL   C128  128   1.935   4.461   1.487  0.4838 -0.7635 -0.9048
    1MOL   C129  129   2.105   4.389   1.127 -0.4030 -0.3987  0.2560
    1MOL   C130  130   2.167   4.363   1.000  0.5733 -0.3071 -0.0063
    1MOL   C131  131   2.093   4.448   0.548 -0.3573  0.8021 -0.1559
    1MOL   C132  132   2.089   4.530   0.431  0.9526  0.3881 -0.0649
    1MOL   H133  133   2.235   4.809   0.325 -1.5359  0.6257 -0.0889
    1MOL   H134  134   2.323   4.752   0.503 -2.5193  0.5911  0.6703
    1MOL   H135  135   2.343   4.606   0.721  1.3757 -0.7486 -0.9775
    1MOL   H136  136   2.221   4.296   0.754 -3.2341 -1.1839 -0.5218
    1MOL   H137  137   1.998   4.589   0.814  1.2802 -0.7780 -0.6442
    1MOL   H138  138   1.885   4.623   1.032  0.9960  1.0140  2.2387
    1MOL   H139  139   1.893   4.597   1.268 -2.0067 -0.1942 -0.0383
    1MOL   H140  140   1.851   4.249   1.240  0.2057 -2.3937  0.1530
    1MOL   H141  141   1.865   4.084   1.429  0.6678  0.0353  0.9862
    1MOL   H142  142   1.845   4.161   1.747 -1.6778 -3.8146 -0.6651
    1MOL   H143  143   2.100   4.014   1.544  0.3342  0.7407 -0.7879
    1MOL   H144  144   2.155   3.771   1.570 -1.1242  0.7305 -1.3145
    1MOL   H145  145   2.125   3.574   1.662 -0.6701  0.1739 -0.1214
    1MOL   H146  146   1.966   3.527   1.706 -1.0298  1.1406 -1.4143
    1MOL   H147  147   1.814   3.744   1.842  0.3998 -1.2616 -0.9537
    1MOL   H148  148   1.788   3.978   1.836  0.4253 -0.0763  1.1498
    1MOL   H149  149   1.982   4.406   1.695 -4.6824 -0.2677  1.6158
    1MOL   H150  150   1.955   4.567   1.498 -2.2025 -0.3730  0.8693
    1MOL   H151  151   2.146   4.347   1.216 -1.0280  0.6593  1.0648
    1MOL   H152  152   2.260   4.308   1.004  0.3095 -0.7064  0.8300
    1MOL   H153  153   2.039   4.355   0.544  1.8461 -0.4759 -1.1933
    1MOL   H154  154   2.029   4.502   0.345 -0.9735 -0.0205  1.3744
    1MOL   N155  155   2.080   3.580   1.873  0.0453  0.1217  0.0616
    1MOL   C156  156   2.201   3.518   1.907  0.2867 -0.4170 -0.2136
    1MOL   C157  157   2.279   3.572   2.009 -0.1355 -0.1150  0.0733
    1MOL   C158  158   2.385   3.500   2.061 -0.3013 -0.1486 -0.4262
    1MOL   C159  159   2.427   3.373   1.992 -0.5467  0.0707 -1.0103
    1MOL   N160  160   2.530   3.297   2.041 -0.3554 -0.3503 -0.1531
    1MOL   C161  161   2.568   3.271   2.171  0.9992  0.5056 -0.0471
    1MOL   C162  162   2.476   3.276   2.282 -0.1704 -0.1521  0.5487
    1MOL   C163  163   2.512   3.224   2.407 -0.0174 -0.1651 -0.1220
    1MOL   C164  164   2.639   3.171   2.437 -0.4575 -0.1051 -0.3119
    1MOL   N165  165   2.671   3.133   2.568  0.2999  0.4818  0.0880
    1MOL   C166  166   2.724   3.011   2.612  0.3556 -0.7772  0.2645
    1MOL   C167  167   2.726   2.987   2.751  0.1167  0.1949 -0.3943
    1MOL   C168  168   2.746   2.856   2.800  0.7701 -0.3656  0.4338
    1MOL   C169  169   2.778   2.751   2.714  0.5198  0.3360 -0.4504
    1MOL   N170  170   2.805   2.623   2.760 -0.2969  0.2845  0.0285
    1MOL   C171  171   2.717   2.536   2.820 -0.2283  0.0727  0.1539
    1MOL   C172  172   2.598   2.581   2.886  0.6728  0.4147  0.9019
    1MOL   C173  173   2.511   2.482   2.940 -0.4017  0.0752 -0.0943
    1MOL   C174  174   2.539   2.341   2.926  0.1076 -0.0697 -0.2084
    1MOL   C175  175   2.441   2.247   2.991 -0.2699 -0.3047 -0.4716
    1MOL   C176  176   2.649   2.297   2.857  0.4559  0.7708  0.1942
    1MOL   C177  177   2.737   2.396   2.809 -0.0382  0.1876 -0.6326
    1MOL   C178  178   2.785   2.775   2.579  0.1814 -0.2070 -0.3030
    1MOL   C179  179   2.760   2.904   2.531  1.1633  0.2546 -0.0197
    1MOL   C180  180   2.727   3.168   2.325  0.0961 -0.5286 -0.7510
    1MOL   C181  181   2.693   3.213   2.192 -0.3540 -0.2927 -0.2598
    1MOL   C182  182   2.356   3.331   1.877  0.4837  0.6463  0.5387
    1MOL   C183  183   2.240   3.399   1.836  0.1822 -0.5806  0.4611
    1MOL   H184  184   2.030   3.642   1.935 -1.1116  1.3888 -2.0837
    1MOL   H185  185   2.241   3.653   2.070 -0.9133  1.7240 -2.7695
    1MOL   H186  186   2.447   3.542   2.138  0.6107 -2.0100 -0.1054
    1MOL   H187  187   2.573   3.240   1.969  0.6874 -0.1808  0.3273
    1MOL   H188  188   2.376   3.317   2.270  0.8373  2.3437  0.2908
    1MOL   H189  189   2.425   3.234   2.470 -1.8962  0.8024 -2.7497
    1MOL   H190  190   2.619   3.174   2.644  0.0743 -2.0199  1.3269
    1MOL   H191  191   2.705   3.058   2.829 -0.0138 -1.4844  1.1207
    1MOL   H192  192   2.745   2.841   2.907  2.1191 -1.1618  0.3479
    1MOL   H193  193   2.872   2.572   2.704 -1.0047  1.9670 -2.4363
    1MOL   H194  194   2.561   2.683   2.894 -1.0344 -0.0948 -0.4138
    1MOL   H195  195   2.419   2.514   2.987 -0.6347 -0.7414  0.0203
    1MOL   H196  196   2.362   2.242   2.916 -0.7072  1.3567 -0.1408
    1MOL   H197  197   2.398   2.294   3.080  1.2970 -3.0947  1.8404
    1MOL   H198  198   2.671   2.193   2.837  1.8527  0.7479  1.7659
    1MOL   H199  199   2.827   2.365   2.758  0.2481 -1.4083  0.8092
    1MOL   H200  200   2.787   2.691   2.510 -3.4140 -0.9466  0.3971
    1MOL   H201  201   2.763   2.916   2.423 -0.5272  0.3396 -0.0678
    1MOL   H202  202   2.824   3.124   2.344 -0.2521 -1.0025 -0.0087
    1MOL   H203  203   2.772   3.196   2.120 -0.9269  1.2954 -1.3219
    1MOL   H204  204   2.381   3.241   1.822 -1.3319  0.3236  0.1817
    1MOL   H205  205   2.180   3.363   1.754 -2.7404  0.4469  2.0904
    1MOL   N206  206   2.484   2.113   3.038  0.2528  0.1270 -0.3148
    1MOL   C207  207   2.415   2.002   2.979 -0.5231 -0.5225  0.2508
    1MOL   C208  208   2.441   1.968   2.846  0.4310  0.1900  0.2474
    1MOL   C209  209   2.377   1.863   2.783  0.2458 -0.2795 -0.5529
    1MOL   C210  210   2.286   1.786   2.855 -0.0500  0.3109  0.5016
    1MOL   N211  211   2.204   1.689   2.796 -1.3225  0.3855  0.4790
    1MOL   C212  212   2.234   1.620   2.683 -0.3215  0.5280  0.2093
    1MOL   C213  213   2.140   1.605   2.583 -0.3201 -0.0729  0.2914
    1MOL   C214  214   2.176   1.548   2.461  0.2619 -0.5820  0.3307
    1MOL   C215  215   2.295   1.477   2.447  0.7261  0.4233  0.1281
    1MOL   N216  216   2.317   1.391   2.336  0.1034  0.1848 -0.8746
    1MOL   C217  217   2.294   1.414   2.203  0.4654 -0.9599  0.0176
    1MOL   C218  218   2.249   1.535   2.152 -0.0069 -0.6781  0.2215
    1MOL   C219  219   2.231   1.555   2.013  0.3632  0.1809 -0.2933
    1MOL   C220  220   2.256   1.452   1.921  0.1377 -0.1833 -0.1908
    1MOL   N221  221   2.241   1.463   1.778 -0.4326  0.2732 -0.3878
    1MOL   C222  222   2.233   1.585   1.706  0.3365  0.0454  0.3493
    1MOL   C223  223   2.136   1.607   1.603  0.4530  0.1284  0.2876
    1MOL   C224  224   2.137   1.725   1.526  0.8644 -0.4546  0.6712
    1MOL   C225  225   2.235   1.823   1.548  0.5664 -0.1187  0.7107
    1MOL   C226  226   2.250   1.935   1.451  0.5446  0.1104 -0.0230
    1MOL   C227  227   2.327   1.805   1.654  0.4701 -0.9138  0.0998
    1MOL   C228  228   2.328   1.692   1.734  0.2058 -0.5322  0.5525
    1MOL   C229  229   2.299   1.331   1.975 -0.6582 -0.2396  0.3757
    1MOL   C230  230   2.322   1.311   2.116  0.4235  0.6702  0.6750
    1MOL   C231  231   2.390   1.490   2.553 -0.0999  0.1495  0.1831
    1MOL   C232  232   2.356   1.557   2.668 -0.3454 -0.0337 -0.0562
    1MOL   C233  233   2.266   1.810   2.994 -0.5089 -0.4021  0.1295
    1MOL   C234  234   2.332   1.912   3.057 -0.0877 -0.2205  0.7143
    1MOL   H235  235   2.483   2.117   3.139  1.4900 -0.5477 -0.2527
    1MOL   H236  236   2.519   2.013   2.788 -0.4841  0.0136 -1.1444
    1MOL   H237  237   2.401   1.844   2.679 -0.1384  0.2824 -0.7455
    1MOL   H238  238   2.142   1.646   2.863 -1.0933 -0.0160  0.4355
    1MOL   H239  239   2.042   1.648   2.597 -0.1914  0.5093 -0.5470
    1MOL   H240  240   2.096   1.542   2.388  0.0661 -1.1272  0.5886
    1MOL   H241  241   2.362   1.301   2.344  0.4002  0.3370 -0.8034
    1MOL   H242  242   2.248   1.621   2.217 -1.2229  0.3653 -1.1440
    1MOL   H243  243   2.197   1.651   1.976 -1.6076 -0.5740 -0.4959
    1MOL   H244  244   2.228   1.374   1.733  0.5554  0.2491 -0.6389
    1MOL   H245  245   2.057   1.535   1.588  0.8881 -0.3540  0.2643
    1MOL   H246  246   2.058   1.725   1.454  0.0037  1.3423  1.5942
    1MOL   H247  247   2.152   1.984   1.449  1.4363  2.1188  2.6673
    1MOL   H248  248   2.246   1.894   1.350 -0.8582  0.9715 -0.3293
    1MOL   H249  249   2.397   1.882   1.682 -0.0876 -1.3043  2.7363
    1MOL   H250  250   2.412   1.680   1.801  0.5620 -1.4981 -0.0626
    1MOL   H251  251   2.315   1.254   1.902  0.6921  0.8561 -0.4903
    1MOL   H252  252   2.353   1.211   2.143  3.2478  1.1035 -0.7575
    1MOL   H253  253   2.481   1.431   2.554  0.1566  0.5396  0.0625
    1MOL   H254  254   2.430   1.559   2.746 -1.1653 -1.0260  0.7545
    1MOL   H255  255   2.207   1.751   3.062 -0.5053 -1.4194 -0.7316
    1MOL   H256  256   2.317   1.933   3.162  0.1608  0.3001  0.6477
    1MOL   N257  257   2.345   2.044   1.481 -0.0385 -0.2672 -0.1557
    1MOL   C258  258   2.365   2.136   1.382  0.4845 -0.1684  0.5745
    1MOL   C259  259   2.388   2.103   1.244  0.5454 -0.2443  0.6251
    1MOL   C260  260   2.414   2.209   1.150  0.8588 -0.4701 -0.0398
    1MOL   C261  261   2.404   2.342   1.195 -0.1028  0.2458  0.6290
    1MOL   N262  262   2.431   2.450   1.104 -0.0143  0.2374 -0.2561
    1MOL   C263  263   2.439   2.449   0.966 -0.1525 -0.8473 -0.0805
    1MOL   C264  264   2.525   2.540   0.904 -0.6394  0.0631  0.0776
    1MOL   C265  265   2.531   2.548   0.763 -0.3064 -0.6123 -0.4404
    1MOL   C266  266   2.435   2.483   0.687 -0.1720 -0.1376 -0.1561
    1MOL   N267  267   2.435   2.513   0.547  0.8285  0.0904  0.0341
    1MOL   C268  268   2.412   2.426   0.440  0.4000 -0.3277  0.2124
    1MOL   C269  269   2.370   2.483   0.313 -0.0986 -0.2838  0.3067
    1MOL   C270  270   2.365   2.405   0.194 -0.0931  0.1219  0.0821
    1MOL   C271  271   2.418   2.274   0.206  0.0378  0.6652 -0.2093
    1MOL   N272  272   2.408   2.179   0.102 -0.7405  0.3144  0.2812
    1MOL   C273  273   2.429   2.201   7.948 -0.0090 -0.5106  0.1138
    1MOL   C274  274   2.411   2.085   7.869  0.6976  0.5945 -0.5302
    1MOL   C275  275   2.435   2.097   7.732 -0.2952 -0.3556 -0.1752
    1MOL   C276  276   2.496   2.214   7.679  0.0871  0.4081  0.4303
    1MOL   C277  277   2.527   2.223   7.534 -0.2275 -0.3117 -0.5181
    1MOL   C278  278   2.510   2.334   7.763 -0.1115 -0.4657  0.6625
    1MOL   C279  279   2.477   2.325   7.896  0.0182 -0.2126 -0.2151
    1MOL   C280  280   2.451   2.216   0.326  0.1076 -0.1876 -0.7189
    1MOL   C281  281   2.451   2.291   0.445  0.5677  0.3562  0.3610
    1MOL   C282  282   2.346   2.390   0.749 -0.1974  0.5906  0.0098
    1MOL   C283  283   2.352   2.363   0.884 -0.6237 -0.2114 -0.3096
    1MOL   C284  284   2.374   2.371   1.324 -0.5673 -0.0372  0.2514
    1MOL   C285  285   2.368   2.268   1.424  0.7079 -1.0961 -0.2287
    1MOL   H286  286   2.370   2.052   1.579 -1.6707 -2.3611  0.4752
    1MOL   H287  287   2.386   1.999   1.216  2.5734  0.2367 -1.4308
    1MOL   H288  288   2.427   2.192   1.044  2.7381 -0.8949  0.2447
    1MOL   H289  289   2.468   2.530   1.153  0.6913  1.6083 -2.9482
    1MOL   H290  290   2.585   2.610   0.959  1.2956 -1.3937 -0.1353
    1MOL   H291  291   2.585   2.622   0.706  1.1204 -2.2085 -1.2172
    1MOL   H292  292   2.471   2.602   0.517  1.1325  0.0084  0.1538
    1MOL   H293  293   2.330   2.583   0.305  2.3453  0.7117  0.1797
    1MOL   H294  294   2.319   2.446   0.105 -1.1854  0.7101  0.9086
    1MOL   H295  295   2.433   2.087   0.134 -1.1716  0.1661  0.1847
    1MOL   H296  296   2.369   1.993   7.906  1.9317 -0.3265 -1.4031
    1MOL   H297  297   2.433   2.012   7.665  2.3431 -0.6645  0.0839
    1MOL   H298  298   2.436   2.213   7.475 -1.2443 -1.9306  1.2771
    1MOL   H299  299   2.606   2.155   7.503  0.3059  0.4365 -0.8202
    1MOL   H300  300   2.560   2.425   7.733  0.6674 -0.5793  1.6077
    1MOL   H301  301   2.502   2.405   7.963 -2.3752  0.8328 -0.5193
    1MOL   H302  302   2.484   2.113   0.327 -0.0386 -0.2299  1.4171
    1MOL   H303  303   2.489   2.247   0.536 -1.9080 -2.6162  0.0135
    1MOL   H304  304   2.281   2.340   0.679  0.0154 -0.7297  0.7296
    1MOL   H305  305   2.279   2.304   0.937  0.8833 -0.9711  0.9639
    1MOL   H306  306   2.363   2.477   1.342 -1.2739  0.0403 -0.6319
    1MOL   H307  307   2.366   2.298   1.528 -1.6702  0.8909 -0.8186
    1MOL   N308  308   2.595   2.355   7.505 -0.1163 -0.2606  0.2951
    1MOL   C309  309   2.577   2.415   7.381 -0.0643 -0.0238 -0.1508
    1MOL   C310  310   2.624   2.549   7.366 -0.1276  0.3541 -0.3796
    1MOL   C311  311   2.637   2.603   7.239 -0.3819  0.0542 -0.1023
    1MOL   C312  312   2.602   2.530   7.123  0.2396 -0.0795  0.5623
    1MOL   N313  313   2.615   2.599   6.997  0.0321 -0.0712  0.4427
    1MOL   C314  314   2.516   2.618   6.896  0.8514  0.6921 -0.5457
    1MOL   C315  315   2.548   2.669   6.772  0.5204 -0.5098  0.1319
    1MOL   C316  316   2.451   2.688   6.674  0.2745 -0.0586  0.2144
    1MOL   C317  317   2.317   2.648   6.699 -0.7133  0.3144  0.1742
    1MOL   N318  318   2.229   2.644   6.596  0.0343  0.7309  1.0378
    1MOL   C319  319   2.090   2.677   6.599  0.8119 -0.5087 -0.2239
    1MOL   C320  320   2.003   2.613   6.513 -0.3816  0.3037  0.2284
    1MOL   C321  321   1.867   2.639   6.517  0.0004 -1.0178 -0.4813
    1MOL   C322  322   1.815   2.717   6.617  1.3634 -0.5640  0.0549
    1MOL   N323  323   1.672   2.734   6.623 -0.0917 -0.1234 -0.7889
    1MOL   C324  324   1.593   2.839   6.669 -0.3320  0.0143 -0.4878
    1MOL   C325  325   1.643   2.967   6.686  1.1315 -0.0313  0.2826
    1MOL   C326  326   1.552   3.061   6.727  0.1741 -0.3078  0.2187
    1MOL   C327  327   1.416   3.029   6.757 -0.4653  0.9704  0.5765
    1MOL   C328  328   1.328   3.140   6.810 -0.4026 -0.5044 -0.1401
    1MOL   C329  329   1.370   2.899   6.741 -0.2146 -0.2172  0.1645
    1MOL   C330  330   1.453   2.807   6.686 -0.0642 -0.0352  0.8003
    1MOL   C331  331   1.900   2.777   6.711  0.5513 -0.4822 -0.0543
    1MOL   C332  332   2.038   2.754   6.707  0.1795 -0.3247 -0.7377
    1MOL   C333  333   2.284   2.601   6.826 -0.1891  1.0097  0.1883
    1MOL   C334  334   2.383   2.584   6.922  0.4231  0.0023 -0.5386
    1MOL   C335  335   2.554   2.401   7.138 -0.3649 -0.1188  0.3648
    1MOL   C336  336   2.539   2.348   7.269  0.3851  0.7003  0.6926
    1MOL   H337  337   2.658   2.395   7.572 -0.5992 -0.1504  0.6906
    1MOL   H338  338   2.664   2.607   7.447 -0.2188  0.3989 -0.3669
    1MOL   H339  339   2.680   2.701   7.227 -0.0988 -0.2038 -1.3146
    1MOL   H340  340   2.691   2.663   6.979 -1.3983  1.4457 -0.4192
    1MOL   H341  341   2.647   2.706   6.751  0.3929 -0.7416 -0.9201
    1MOL   H342  342   2.481   2.741   6.584  0.6393 -1.1396 -0.3143
    1MOL   H343  343   2.275   2.614   6.511 -0.0593 -4.4236  2.6270
    1MOL   H344  344   2.033   2.545   6.435  0.7402  0.4449  0.5325
    1MOL   H345  345   1.798   2.599   6.444 -1.5270  1.8304 -0.6812
    1MOL   H346  346   1.610   2.662   6.588  1.0768 -1.2567 -0.5546
    1MOL   H347  347   1.746   2.997   6.674  0.7181  0.9727 -0.8515
    1MOL   H348  348   1.576   3.165   6.737 -3.6115  0.5989  0.6280
    1MOL   H349  349   1.260   3.164   6.728 -0.4036 -2.9736 -0.9161
    1MOL   H350  350   1.390   3.223   6.842 -1.0248 -0.4282  0.9084
    1MOL   H351  351   1.266   2.875   6.757  0.0030 -0.8888  0.5986
    1MOL   H352  352   1.411   2.711   6.661  0.4775 -0.1367  0.2513
    1MOL   H353  353   1.863   2.832   6.796  0.9103 -2.1568  1.1913
    1MOL   H354  354   2.108   2.786   6.782 -2.0245 -1.3905  1.8654
    1MOL   H355  355   2.187   2.558   6.846 -0.3081  1.9171  1.6659
    1MOL   H356  356   2.353   2.554   7.022  1.8060  3.1473  0.8921
    1MOL   H357  357   2.521   2.351   7.048 -0.5129 -1.4664  1.1579
    1MOL   H358  358   2.495   2.249   7.267 -0.0157  0.8614  1.3691
    1MOL   N359  359   1.238   3.113   6.927 -0.1989 -0.3173  0.0918
    1MOL   C360  360   1.279   3.113   7.057 -0.1060 -0.4662 -0.0193
    1MOL   C361  361   1.183   3.100   7.162 -0.2445 -0.2368 -0.1174
    1MOL   C362  362   1.221   3.101   7.304 -0.4439 -0.9775 -0.0906
    1MOL   C363  363   1.355   3.115   7.334  0.2069 -0.8955  0.1376
    1MOL   N364  364   1.398   3.117   7.468  0.1803  0.0363  0.3306
    1MOL   C365  365   1.335   3.174   7.582  0.1615  0.1218  0.0733
    1MOL   C366  366   1.264   3.299   7.575  0.2525  0.4670  0.2227
    1MOL   C367  367   1.200   3.357   7.689 -0.2204 -0.1220 -0.8337
    1MOL   C368  368   1.217   3.294   7.814  0.5311 -0.1232  0.3274
    1MOL   N369  369   1.155   3.361   7.928 -0.7254 -0.1299 -0.4831
    1MOL   C370  370   1.200   3.353   0.082 -0.5101  0.6069  0.1118
    1MOL   C371  371   1.101   3.361   0.184  1.0334  0.2038 -0.2723
    1MOL   C372  372   1.143   3.350   0.317 -0.0845 -0.0142 -0.4898
    1MOL   C373  373   1.281   3.333   0.351 -0.1158  0.0820 -0.2230
    1MOL   N374  374   1.309   3.294   0.484 -0.2812 -0.4358 -0.1095
    1MOL   C375  375   1.422   3.309   0.559 -0.1565  0.8977 -0.1434
    1MOL   C376  376   1.446   3.215   0.665  0.1865  0.6448  0.3680
    1MOL   C377  377   1.560   3.243   0.748  0.7309 -0.6582  0.0883
    1MOL   C378  378   1.644   3.357   0.731  0.3970 -0.0911 -0.5334
    1MOL   C379  379   1.759   3.380   0.831 -0.0046 -0.1481 -0.3217
    1MOL   C380  380   1.630   3.433   0.617  1.0917 -0.4218  0.5653
    1MOL   C381  381   1.521   3.409   0.528  0.4184 -0.6448  0.1358
    1MOL   C382  382   1.381   3.328   0.248 -0.0606 -0.3533  0.0750
    1MOL   C383  383   1.334   3.318   0.112 -0.5202 -0.1953 -0.3759
    1MOL   C384  384   1.297   3.174   7.824  0.1285  0.0990 -0.4800
    1MOL   C385  385   1.348   3.112   7.708 -0.5172 -0.5803 -0.3248
    1MOL   C386  386   1.449   3.125   7.231  0.6558 -0.3064 -0.0866
    1MOL   C387  387   1.410   3.118   7.097 -0.0392  0.2094  0.1881
    1MOL   H388  388   1.142   3.144   6.918  0.3346  0.7333 -2.4093
    1MOL   H389  389   1.078   3.081   7.146 -0.5678 -0.3121  1.9145
    1MOL   H390  390   1.144   3.107   7.379 -2.5502  0.9814 -2.3312
    1MOL   H391  391   1.493   3.089   7.486  0.8004  0.1915 -2.4446
    1MOL   H392  392   1.246   3.356   7.486 -1.7352 -0.2542  0.1356
    1MOL   H393  393   1.154   3.454   7.684  1.5423  0.6591 -2.5346
    1MOL   H394  394   1.068   3.408   7.909 -0.7458 -0.4970 -1.2911
    1MOL   H395  395   0.995   3.369   0.167  1.1913 -0.2970 -1.5533
    1MOL   H396  396   1.064   3.356   0.390 -1.6481 -0.1687 -2.1305
    1MOL   H397  397   1.232   3.259   0.537 -0.5160  0.7552  0.3583
    1MOL   H398  398   1.386   3.128   0.687  0.3706  0.1834 -0.9436
    1MOL   H399  399   1.584   3.171   0.825  3.2409  0.7763  0.6941
    1MOL   H400  400   1.850   3.371   0.772  0.6385 -2.1764  0.9157
    1MOL   H401  401   1.758   3.308   0.913  2.0496  1.4239  1.1153
    1MOL   H402  402   1.702   3.510   0.594  0.0844  0.1634 -0.6931
    1MOL   H403  403   1.510   3.466   0.437 -1.0273 -2.2188 -0.7206
    1MOL   H404  404   1.482   3.310   0.279 -0.1160 -0.5620  0.1371
    1MOL   H405  405   1.405   3.306   0.031  1.1020  2.3557  0.6035
    1MOL   H406  406   1.303   3.112   7.913  0.2199 -1.2237 -1.3992
    1MOL   H407  407   1.389   3.013   7.712 -0.3261 -0.6106 -2.7343
    1MOL   H408  408   1.555   3.123   7.248  0.5259 -0.6425  0.7526
    1MOL   H409  409   1.483   3.128   7.018  0.0257 -0.0340  0.2188
    1MOL   N410  410   1.758   3.513   0.894  0.2693  0.2223  0.2281
    1MOL   C411  411   1.879   3.557   0.955  0.4248  0.4344  0.6405
    1MOL   C412  412   1.878   3.601   1.084 -0.3144 -0.2479 -0.3532
    1MOL   C413  413   1.992   3.655   1.146  0.0236  0.4990 -0.4128
    1MOL   C414  414   2.119   3.664   1.073  0.4148 -0.0148 -0.0445
    1MOL   N415  415   2.237   3.707   1.138 -0.9345  0.0698 -0.0838
    1MOL   C416  416   2.243   3.826   1.202 -0.2002 -0.0373  0.1533
    1MOL   C417  417   2.358   3.849   1.276  0.4432  0.2662 -0.8362
    1MOL   C418  418   2.376   3.967   1.343 -0.4761  0.3622  0.5709
    1MOL   C419  419   2.273   4.060   1.341  0.1636  0.1036  0.0019
    1MOL   N420  420   2.278   4.191   1.394 -0.3403 -1.1706 -0.3737
    1MOL   C421  421   2.378   4.245   1.473  0.2626  0.4367  0.5640
    1MOL   C422  422   2.339   4.281   1.600  0.0355 -0.3842 -0.1990
    1MOL   C423  423   2.435   4.339   1.690  0.5417 -0.4403  0.5348
    1MOL   C424  424   2.570   4.354   1.647  0.1198  0.2370 -0.5267
    1MOL   N425  425   2.675   4.393   1.727 -0.2223 -0.0722  0.3591
    1MOL   C426  426   2.675   4.483   1.833  0.1149  0.5098  0.4589
    1MOL   C427  427   2.585   4.591   1.842 -0.4870  0.4039 -0.3723
    1MOL   C428  428   2.588   4.680   1.952  0.0940 -0.6802 -0.4389
    1MOL   C429  429   2.693   4.672   2.047 -0.4441  0.3294  0.5508
    1MOL   C430  430   2.696   4.772   2.162  0.0928  0.2859  0.3852
    1MOL   C431  431   2.784   4.564   2.040  0.2401  0.4219 -0.5412
    1MOL   C432  432   2.778   4.474   1.932  0.1455 -0.1536  0.1040
    1MOL   C433  433   2.604   4.310   1.521 -0.1322  0.4772  0.3227
    1MOL   C434  434   2.510   4.255   1.431 -0.5468 -0.2350 -0.1738
    1MOL   C435  435   2.158   4.037   1.265  0.1785  0.2457  0.9287
    1MOL   C436  436   2.142   3.927   1.188  0.3375  0.3744  0.0269
    1MOL   C437  437   2.118   3.618   0.944  0.5665  0.0189 -0.5122
    1MOL   C438  438   2.001   3.561   0.882  0.5538 -0.0383  0.0867
    1MOL   H439  439   1.676   3.531   0.950  0.3278  0.4796  0.2302
    1MOL   H440  440   1.780   3.605   1.130 -0.3227  1.6846 -0.4726
    1MOL   H441  441   1.980   3.682   1.250  0.4371  0.5133 -0.3687
    1MOL   H442  442   2.307   3.635   1.143 -0.1995  0.9263  3.0465
    1MOL   H443  443   2.433   3.772   1.288  0.2775  0.0803 -0.9911
    1MOL   H444  444   2.469   3.979   1.397 -0.1838  2.4657 -0.3285
    1MOL   H445  445   2.190   4.241   1.401  0.0419 -0.2370 -1.9879
    1MOL   H446  446   2.236   4.271   1.629 -0.5554  0.6917 -1.8553
    1MOL   H447  447   2.403   4.368   1.789  2.0233 -0.8244  1.1526
    1MOL   H448  448   2.765   4.356   1.698 -0.0294  1.0141 -0.4815
    1MOL   H449  449   2.503   4.606   1.773  1.2532 -1.8558 -3.0180
    1MOL   H450  450   2.510   4.753   1.943  1.3369  1.0967  2.4828
    1MOL   H451  451   2.761   4.728   2.238  1.6467  1.2337 -0.3636
    1MOL   H452  452   2.600   4.787   2.211  0.9576  0.5616  2.0547
    1MOL   H453  453   2.873   4.550   2.100  0.8780  3.0196 -0.8415
    1MOL   H454  454   2.852   4.395   1.932 -0.8089 -1.0784 -1.5987
    1MOL   H455  455   2.707   4.291   1.497  0.1118  2.1855 -0.0053
    1MOL   H456  456   2.540   4.229   1.331  0.0362 -1.0441  0.2095
    1MOL   H457  457   2.087   4.117   1.247 -0.6956 -0.3569  1.6400
    1MOL   H458  458   2.059   3.920   1.119  0.1467  0.1748  0.2783
    1MOL   H459  459   2.206   3.623   0.881  1.5537  2.3530  1.0024
    1MOL   H460  460   2.016   3.528   0.780 -0.6405  1.7377 -0.6875
    1MOL   N461  461   2.748   4.895   2.106  0.0125  0.1095 -0.1902
    1MOL   C462  462   2.676   5.012   2.111 -0.0711  0.4234 -0.1213
    1MOL   C463  463   2.626   5.061   2.237  0.2745 -0.5233  0.2753
    1MOL   C464  464   2.563   5.182   2.246  0.6821 -0.5255  0.5631
    1MOL   C465  465   2.549   5.265   2.127 -0.0649 -0.5274 -0.0139
    1MOL   N466  466   2.475   5.385   2.134  0.2984 -0.2757 -0.2115
    1MOL   C467  467   2.366   5.416   2.216  0.0693  0.3795  0.5876
    1MOL   C468  468   2.345   5.548   2.255  0.2381 -0.1857 -0.0415
    1MOL   C469  469   2.231   5.578   2.324  0.1726  0.1725 -0.2662
    1MOL   C470  470   2.150   5.475   2.382  0.4358 -0.4822 -0.4110
    1MOL   N471  471   2.059   5.514   2.483  0.0853 -0.3092 -0.5551
    1MOL   C472  472   1.967   5.444   2.562 -0.6599 -0.9162  0.4634
    1MOL   C473  473   1.899   5.336   2.511  0.7947  0.5976 -0.5857
    1MOL   C474  474   1.798   5.261   2.585  0.5313 -0.3153  0.1804
    1MOL   C475  475   1.771   5.307   2.712 -0.8403  0.2888 -0.5266
    1MOL   N476  476   1.672   5.241   2.785  0.1893 -0.1303 -0.8683
    1MOL   C477  477   1.621   5.111   2.775  0.0708 -0.1614  0.0144
    1MOL   C478  478   1.700   4.998   2.745  0.3364 -0.5327 -0.0800
    1MOL   C479  479   1.652   4.871   2.768 -0.1243 -0.1180 -0.1774
    1MOL   C480  480   1.518   4.847   2.813  0.1436  0.4611 -0.3949
    1MOL   C481  481   1.468   4.712   2.861 -0.2301 -0.5000 -0.4600
    1MOL   C482  482   1.441   4.963   2.842  0.5339 -0.3603 -0.4307
    1MOL   C483  483   1.493   5.094   2.827  0.4511  0.5351 -0.2723
    1MOL   C484  484   1.843   5.411   2.769 -0.3393 -0.0892  0.0929
    1MOL   C485  485   1.937   5.485   2.693 -0.0908  0.3589  0.2947
    1MOL   C486  486   2.176   5.341   2.349 -0.5698  0.1678 -0.2044
    1MOL   C487  487   2.284   5.313   2.259 -0.0859 -0.7404 -0.2803
    1MOL   C488  488   2.607   5.223   2.008 -0.9876  0.3944  0.7085
    1MOL   C489  489   2.680   5.102   2.003  0.3839  0.1127 -0.2188
    1MOL   H490  490   2.785   4.871   2.014  2.4962  2.4298  0.1380
    1MOL   H491  491   2.638   4.997   2.322  1.6114 -0.6765 -0.0174
    1MOL   H492  492   2.537   5.214   2.346  1.1797  3.3504 -0.4517
    1MOL   H493  493   2.474   5.426   2.042 -2.0986 -0.8462 -0.4585
    1MOL   H494  494   2.421   5.622   2.235 -0.4052 -0.1976 -2.6742
    1MOL   H495  495   2.218   5.681   2.354  1.7891  0.5216 -0.7004
    1MOL   H496  496   2.042   5.612   2.500  1.0182  0.0566 -1.6304
    1MOL   H497  497   1.908   5.311   2.407  1.3279 -0.3206 -0.3285
    1MOL   H498  498   1.749   5.176   2.539 -1.5896  1.5086 -1.0399
    1MOL   H499  499   1.619   5.309   2.839  0.4142 -1.4330  1.0372
    1MOL   H500  500   1.800   5.000   2.706  0.7323  1.6234  0.9796
    1MOL   H501  501   1.713   4.785   2.745 -3.1697 -2.7088  0.9783
    1MOL   H502  502   1.366   4.702   2.825 -0.8515 -0.9639  1.3570
    1MOL   H503  503   1.464   4.710   2.970  0.2376 -1.4053 -0.4588
    1MOL   H504  504   1.345   4.951   2.891  1.9728 -1.9668  2.1454
    1MOL   H505  505   1.446   5.183   2.865 -0.9641 -0.3077 -0.0228
    1MOL   H506  506   1.829   5.450   2.869 -2.5520  0.6974 -0.5066
    1MOL   H507  507   1.999   5.565   2.731  0.2449  0.4853 -0.5249
    1MOL   H508  508   2.129   5.264   2.407 -1.7637 -1.2538 -2.9408
    1MOL   H509  509   2.302   5.213   2.223  1.7949 -0.4450 -0.1885
    1MOL   H510  510   2.588   5.275   1.915 -0.9994 -0.5397  0.1712
    1MOL   H511  511   2.745   5.079   1.919  3.0453  0.1041  1.7778
    1MOL   N512  512   1.548   4.599   2.826  0.3346  0.6835  0.6037
    1MOL   C513  513   1.479   4.472   2.830  0.0017 -0.2645 -0.2900
    1MOL   C514  514   1.567   4.362   2.831  0.1385 -0.4283  0.1802
    1MOL   C515  515   1.514   4.233   2.832  0.4053 -0.5337  0.6567
    1MOL   C516  516   1.376   4.208   2.847  0.4870  0.1367  0.5593
    1MOL   N517  517   1.331   4.074   2.830  0.2295 -0.6595 -0.7557
    1MOL   C518  518   1.200   4.022   2.826  0.2300 -0.0965  0.4967
    1MOL   C519  519   1.102   4.089   2.753 -0.5121  0.2930 -0.6545
    1MOL   C520  520   0.970   4.042   2.755 -0.4216  0.1294  0.3792
    1MOL   C521  521   0.935   3.938   2.840  0.0452  0.4434 -1.0540
    1MOL   N522  522   0.800   3.884   2.847  0.1457 -0.0165  0.0526
    1MOL   C523  523   0.674   3.949   2.836 -0.4454  0.3003  0.0664
    1MOL   C524  524   0.562   3.873   2.823 -0.5545  0.3505  0.2192
    1MOL   C525  525   0.433   3.927   2.809  0.2140  0.0033  0.2689
    1MOL   C526  526   0.411   4.063   2.830 -0.4485  0.3179 -0.4572
    1MOL   N527  527   0.280   4.116   2.815  0.8733  0.0982  0.4811
    1MOL   C528  528   0.245   4.236   2.749 -0.1251  0.1151  0.2238
    1MOL   C529  529   0.167   4.327   2.820  0.5825 -1.0476  0.1092
    1MOL   C530  530   0.123   4.448   2.756 -0.6199 -0.5750  0.5690
    1MOL   C531  531   0.172   4.476   2.625  0.8303  0.5865 -0.3241
    1MOL   C532  532   0.155   4.615   2.575 -0.1470 -0.2766  0.2665
    1MOL   C533  533   0.242   4.383   2.549  0.7132  0.8063  0.0138
    1MOL   C534  534   0.278   4.259   2.610  0.4633  0.2012 -0.2903
    1MOL   C535  535   0.530   4.144   2.841 -0.1126  0.7976 -0.3227
    1MOL   C536  536   0.661   4.089   2.854  0.7495  0.4316  0.3865
    1MOL   C537  537   1.034   3.864   2.907 -0.0956  0.1064  0.2114
    1MOL   C538  538   1.169   3.909   2.909  0.8442  0.1671  0.5631
    1MOL   C539  539   1.286   4.318   2.859 -0.1768  0.3231  0.2192
    1MOL   C540  540   1.342   4.449   2.844  0.2289  0.2753 -1.0096
    1MOL   H541  541   1.648   4.590   2.839  0.3071 -1.0295 -0.1863
    1MOL   H542  542   1.672   4.376   2.853  0.1909  1.6061 -1.2529
    1MOL   H543  543   1.588   4.155   2.838  1.4486 -0.0390 -3.9280
    1MOL   H544  544   1.378   4.007   2.890  1.5630 -0.4224 -1.5288
    1MOL   H545  545   1.125   4.171   2.687  0.4284 -0.8976 -1.8409
    1MOL   H546  546   0.903   4.089   2.686 -1.6694 -2.9113 -0.5797
    1MOL   H547  547   0.782   3.792   2.885 -2.5251  0.4564  0.0514
    1MOL   H548  548   0.569   3.767   2.806 -2.9299  0.1697  0.2931
    1MOL   H549  549   0.363   3.847   2.787 -1.0311  0.3336  2.9266
    1MOL   H550  550   0.226   4.090   2.896 -1.1343  3.3106  0.2292
    1MOL   H551  551   0.140   4.312   2.924 -1.7933 -1.4717 -0.5275
    1MOL   H552  552   0.057   4.519   2.802 -4.4095 -1.2438 -3.5252
    1MOL   H553  553   0.054   4.655   2.576 -0.8935 -2.0327 -1.5505
    1MOL   H554  554   0.185   4.607   2.470 -0.0993  0.2399  0.2376
    1MOL   H555  555   0.270   4.410   2.448  2.0942 -0.1129  0.1265
    1MOL   H556  556   0.339   4.197   2.547 -0.7942 -0.2041 -1.1468
    1MOL   H557  557   0.509   4.250   2.842 -0.1665  0.8039 -1.6720
    1MOL   H558  558   0.745   4.153   2.874 -0.0573  1.2114  1.3506
    1MOL   H559  559   1.006   3.780   2.969 -1.1987  0.9900  0.9390
    1MOL   H560  560   1.233   3.863   2.983 -0.4599  1.6767  2.6787
    1MOL   H561  561   1.181   4.302   2.875  0.1326 -1.5670  0.4925
    1MOL   H562  562   1.270   4.529   2.836 -0.1909 -0.1551 -1.6801
    1MOL   N563  563   0.246   4.699   2.646  0.4430 -0.1391 -0.1541
    1MOL   C564  564   0.294   4.813   2.584  0.5533  0.5140 -0.0712
    1MOL   C565  565   0.231   4.869   2.470  0.0935  0.2657 -0.5127
    1MOL   C566  566   0.294   4.969   2.391  0.0232  0.2085 -0.4392
    1MOL   C567  567   0.416   5.024   2.438 -0.5904  0.4465  0.1298
    1MOL   N568  568   0.473   5.123   2.365 -0.2109  0.3921 -0.7296
    1MOL   C569  569   0.435   5.258   2.355  0.0043  0.3445 -0.7922
    1MOL   C570  570   0.495   5.335   2.256  0.2305  0.0683 -0.0658
    1MOL   C571  571   0.463   5.476   2.252 -0.0060  0.0336  0.0337
    1MOL   C572  572   0.367   5.533   2.334 -0.4558 -0.1998 -0.3739
    1MOL   N573  573   0.338   5.667   2.311  0.6969  0.6569 -0.3923
    1MOL   C574  574   0.236   5.743   2.363  0.0050 -0.7927 -0.2293
    1MOL   C575  575   0.194   5.737   2.499  0.0729  0.8823  0.0597
    1MOL   C576  576   0.070   5.794   2.527  0.5342 -0.6819  0.0666
    1MOL   C577  577   7.969   5.848   2.424 -0.9126 -0.0660  0.7202
    1MOL   N578  578   7.838   5.884   2.464 -0.3786  0.0945  0.2382
    1MOL   C579  579   7.741   5.790   2.512 -0.4196  0.2860  0.1652
    1MOL   C580  580   7.771   5.652   2.531  0.3047 -0.4422  0.3332
    1MOL   C581  581   7.666   5.563   2.547  0.3187 -0.6812  0.8838
    1MOL   C582  582   7.530   5.605   2.554 -0.4407 -0.5845 -0.1210
    1MOL   C583  583   7.418   5.507   2.561 -0.3303 -0.6270  0.5279
    1MOL   C584  584   7.500   5.742   2.549 -0.5535 -0.2580  1.1765
    1MOL   C585  585   7.605   5.835   2.524  0.0657  0.0290 -0.2427
    1MOL   C586  586   0.039   5.865   2.300  0.4646  0.2147  0.0627
    1MOL   C587  587   0.164   5.810   2.265  0.0501  0.7816  0.1310
    1MOL   C588  588   0.308   5.452   2.432 -0.2135  0.3612  1.2664
    1MOL   C589  589   0.340   5.316   2.437  0.1240 -0.1795  0.4993
    1MOL   C590  590   0.472   4.979   2.561 -0.3962 -0.0422  1.2736
    1MOL   C591  591   0.411   4.877   2.633  0.4512  0.2781 -0.4177
    1MOL   H592  592   0.290   4.650   2.722  1.2941 -1.1399 -1.2713
    1MOL   H593  593   0.143   4.817   2.433 -0.8644  1.1015  0.5622
    1MOL   H594  594   0.241   4.996   2.301 -1.3746  0.3274  0.3984
    1MOL   H595  595   0.520   5.097   2.279  1.2469 -0.1434  0.2102
    1MOL   H596  596   0.556   5.300   2.174  1.9635  2.1384  0.2817
    1MOL   H597  597   0.521   5.539   2.187  0.3990  0.9935  1.2987
    1MOL   H598  598   0.355   5.697   2.216 -2.2724  0.0819 -1.1313
    1MOL   H599  599   0.248   5.688   2.579 -1.0674 -1.4992 -0.5979
    1MOL   H600  600   0.032   5.774   2.627 -0.9742 -3.4969 -1.0150
    1MOL   H601  601   7.788   5.950   2.406 -1.0480 -0.6157 -0.0036
    1MOL   H602  602   7.868   5.605   2.523 -0.6886 -2.5906  0.3483
    1MOL   H603  603   7.688   5.457   2.552 -1.3342 -1.0760  0.0694
    1MOL   H604  604   7.327   5.543   2.610 -1.0252  1.4148 -2.1574
    1MOL   H605  605   7.448   5.422   2.621 -1.3143 -1.0725  0.4025
    1MOL   H606  606   7.398   5.777   2.550 -1.2104 -2.1303  0.4816
    1MOL   H607  607   7.578   5.937   2.498  0.2950  0.3573  0.7615
    1MOL   H608  608   7.973   5.920   2.220  0.7264 -0.0121 -0.2502
    1MOL   H609  609   0.193   5.799   2.161 -0.6723  1.1339 -0.1188
    1MOL   H610  610   0.232   5.489   2.499 -0.0495  2.6644  0.2387
    1MOL   H611  611   0.293   5.253   2.510  0.3690  1.4191  2.0869
    1MOL   H612  612   0.557   5.026   2.609 -0.9095  2.0446  0.1778
    1MOL   H613  613   0.453   4.846   2.728 -1.9091 -1.5457  0.0591
    1MOL   N614  614   7.379   5.456   2.432  0.5888  0.3600 -0.4005
    1MOL   C615  615   7.267   5.371   2.410  0.5029 -0.1642  0.6946
    1MOL   C616  616   7.263   5.290   2.292 -1.0500 -0.2436 -0.6443
    1MOL   C617  617   7.155   5.202   2.265  1.1648  0.6720 -0.1885
    1MOL   C618  618   7.043   5.204   2.352  0.5221  0.6632 -0.0680
    1MOL   N619  619   6.936   5.128   2.313 -0.0691  0.0348  0.1467
    1MOL   C620  620   6.801   5.147   2.339 -0.5218  0.2187  0.5429
    1MOL   C621  621   6.745   5.077   2.450  0.0687 -0.2571 -0.2092
    1MOL   C622  622   6.605   5.087   2.478 -0.1137  0.0879  0.3814
    1MOL   C623  623   6.529   5.159   2.379  1.2543 -0.0666 -0.4207
    1MOL   N624  624   6.390   5.158   2.401  0.7714  0.7184 -0.4576
    1MOL   C625  625   6.321   5.186   2.526  0.7050 -0.2079 -0.2422
    1MOL   C626  626   6.395   5.247   2.629 -0.1363 -0.3613  0.2718
    1MOL   C627  627   6.337   5.261   2.756  0.6316  0.2826  0.2505
    1MOL   C628  628   6.202   5.215   2.776 -0.7298  0.4616 -0.1478
    1MOL   N629  629   6.144   5.230   2.900 -0.0599 -0.3250 -0.7747
    1MOL   C630  630   6.199   5.288   3.013  0.2155  0.9251  0.7892
    1MOL   C631  631   6.174   5.421   3.049  0.5632 -0.3846  0.1908
    1MOL   C632  632   6.244   5.472   3.158 -0.1880 -1.1392  0.4214
    1MOL   C633  633   6.332   5.399   3.239  0.4755  0.5883  0.3249
    1MOL   C634  634   6.397   5.470   3.350  0.4686  0.9057  0.4955
    1MOL   C635  635   6.356   5.263   3.203 -0.0092  0.1908 -0.1040
    1MOL   C636  636   6.291   5.206   3.090  0.1415  0.2541 -0.5460
    1MOL   C637  637   6.128   5.151   2.670 -0.0827  0.1279 -0.8061
    1MOL   C638  638   6.195   5.133   2.549  0.0485  0.1621 -0.1037
    1MOL   C639  639   6.586   5.210   2.259  0.0919  0.0554  0.5616
    1MOL   C640  640   6.726   5.214   2.246  0.7057  0.5041  0.6735
    1MOL   C641  641   7.047   5.277   2.473 -0.1632 -0.1833 -0.0871
    1MOL   C642  642   7.161   5.359   2.503  0.4606 -0.3042  0.8260
    1MOL   H643  643   7.463   5.453   2.375  0.2771 -2.3142 -0.7812
    1MOL   H644  644   7.350   5.286   2.229 -0.3607 -0.1888  0.2793
    1MOL   H645  645   7.143   5.141   2.177 -0.4759  2.6437 -1.3838
    1MOL   H646  646   6.952   5.116   2.214  1.0577 -0.3323  0.3670
    1MOL   H647  647   6.799   5.008   2.513 -1.2850 -0.3725  0.8478
    1MOL   H648  648   6.565   5.024   2.555 -0.3212  0.9054  0.9477
    1MOL   H649  649   6.334   5.125   2.324  0.3990  0.6202 -0.1473
    1MOL   H650  650   6.497   5.284   2.620  0.4665 -1.0742  3.5924
    1MOL   H651  651   6.390   5.301   2.841  1.1551 -0.7736  0.4314
    1MOL   H652  652   6.049   5.202   2.917 -0.1944 -0.7372 -2.1707
    1MOL   H653  653   6.108   5.481   2.989 -2.2124 -0.7105  2.7985
    1MOL   H654  654   6.228   5.576   3.183 -1.2716 -0.3880 -3.1565
    1MOL   H655  655   6.337   5.460   3.440  2.7431  0.0018  1.9385
    1MOL   H656  656   6.386   5.576   3.325 -0.1288  1.3633  2.6011
    1MOL   H657  657   6.424   5.201   3.259 -3.0243 -1.9335  1.3440
    1MOL   H658  658   6.316   5.106   3.058 -1.0468 -0.1713 -0.1482
    1MOL   H659  659   6.030   5.108   2.686  0.6982 -1.0100  1.1132
    1MOL   H660  660   6.153   5.076   2.467  0.1840 -2.0033  1.2879
    1MOL   H661  661   6.522   5.254   2.183 -0.1226  2.0528  1.8415
    1MOL   H662  662   6.778   5.255   2.161  0.0318 -1.5199 -0.7453
    1MOL   H663  663   6.961   5.268   2.538  0.9703 -0.3286  1.4130
    1MOL   H664  664   7.165   5.417   2.594  2.5311  1.2520 -0.2232
    1MOL   N665  665   6.538   5.428   3.357 -0.4068  0.3865 -0.2651
    1MOL   C666  666   6.631   5.531   3.349  0.4549  0.7031 -0.6298
    1MOL   C667  667   6.626   5.625   3.242  0.2053 -0.2555  0.1002
    1MOL   C668  668   6.715   5.732   3.246  0.1790  0.0234  0.3911
    1MOL   C669  669   6.817   5.733   3.348  0.1577 -0.2520 -0.4339
    1MOL   N670  670   6.917   5.832   3.355  0.1196  0.0744  0.0069
    1MOL   C671  671   6.904   5.967   3.305  0.0386 -0.0231  0.2728
    1MOL   C672  672   6.782   6.037   3.316  0.9299 -0.9057  0.3591
    1MOL   C673  673   6.776   6.165   3.267  0.1838  0.1818 -0.7060
    1MOL   C674  674   6.887   6.232   3.218 -0.4545  0.2328 -0.4239
    1MOL   N675  675   6.878   6.364   3.175  0.2296  0.2792  0.7902
    1MOL   C676  676   6.914   6.408   3.041 -0.0932  0.1533 -0.4931
    1MOL   C677  677   6.839   6.515   2.998 -0.2105 -0.4249 -0.8647
    1MOL   C678  678   6.860   6.576   2.873  0.3779  0.9218  0.0410
    1MOL   C679  679   6.959   6.520   2.788 -0.2101 -0.4461 -0.0493
    1MOL   N680  680   6.981   6.587   2.670 -0.2915  0.1328  0.4662
    1MOL   C681  681   7.099   6.613   2.608 -0.0208 -0.7236 -0.0193
    1MOL   C682  682   7.091   6.683   2.485 -0.0126 -0.0059 -0.2900
    1MOL   C683  683   7.210   6.726   2.420  0.3853 -0.0135 -0.6949
    1MOL   C684  684   7.338   6.712   2.484 -0.3065 -0.6658 -0.2439
    1MOL   C685  685   7.464   6.776   2.434  0.2444  0.5362 -1.1422
    1MOL   C686  686   7.348   6.653   2.608 -0.2563  0.3223 -0.5323
    1MOL   C687  687   7.232   6.605   2.667 -0.0382  0.1185 -0.4903
    1MOL   C688  688   7.030   6.406   2.826 -0.1130  0.0453  0.4685
    1MOL   C689  689   7.009   6.355   2.951  0.2010  0.7169 -0.2449
    1MOL   C690  690   7.013   6.176   3.232  0.9557 -0.2864  0.3571
    1MOL   C691  691   7.021   6.038   3.270  0.2632  0.0509  0.5372
    1MOL   C692  692   6.833   5.633   3.443 -0.5195 -0.1219  0.0667
    1MOL   C693  693   6.728   5.538   3.450  0.5782 -1.0200 -0.0647
    1MOL   H694  694   6.555   5.367   3.435 -0.3798  2.0903  1.0899
    1MOL   H695  695   6.554   5.622   3.161 -0.2171 -1.4113  0.5155
    1MOL   H696  696   6.716   5.802   3.164 -0.8720 -1.2432 -0.7219
    1MOL   H697  697   6.992   5.808   3.419  0.2049 -2.5873 -1.0068
    1MOL   H698  698   6.691   5.995   3.356  0.4483  0.3696  0.6187
    1MOL   H699  699   6.682   6.218   3.265 -0.8475 -1.6292 -0.6801
    1MOL   H700  700   6.801   6.414   3.218 -0.2585  0.5633 -0.4080
    1MOL   H701  701   6.767   6.559   3.065  1.2102  2.1517 -0.9728
    1MOL   H702  702   6.820   6.675   2.856 -0.3097  0.5433 -0.5572
    1MOL   H703  703   6.898   6.635   2.639  0.1680 -0.6652 -2.1861
    1MOL   H704  704   6.995   6.703   2.438  0.4453 -0.6267 -1.5193
    1MOL   H705  705   7.204   6.788   2.332 -0.4726  0.8617 -0.0297
    1MOL   H706  706   7.508   6.837   2.512  0.4722 -0.6360 -0.3424
    1MOL   H707  707   7.449   6.858   2.364 -1.8158  0.0335 -1.3233
    1MOL   H708  708   7.437   6.671   2.667 -0.6989 -0.6817  0.4588
    1MOL   H709  709   7.233   6.566   2.768 -0.3494 -0.1289 -0.5821
    1MOL   H710  710   7.116   6.365   2.775  1.6507  4.4646 -0.2928
    1MOL   H711  711   7.064   6.270   2.987 -0.8898  0.6146  1.2525
    1MOL   H712  712   7.104   6.226   3.203  1.5775 -0.9644  1.1381
    1MOL   H713  713   7.116   5.987   3.276 -0.0406 -1.1642 -3.6898
    1MOL   H714  714   6.912   5.636   3.516 -0.4105 -0.4133 -0.0408
    1MOL   H715  715   6.724   5.465   3.530 -0.9768 -0.1812  0.6484
    1MOL   N716  716   7.558   6.673   2.387  0.1493  0.1983 -0.1977
    1MOL   C717  717   7.515   6.605   2.268  0.0165 -0.2140 -0.8552
    1MOL   C718  718   7.511   6.667   2.142  0.1160 -0.1785 -0.1604
    1MOL   C719  719   7.468   6.599   2.027 -0.4490 -0.1594  0.4137
    1MOL   C720  720   7.431   6.459   2.040  0.2361 -0.0690 -0.5279
    1MOL   N721  721   7.389   6.387   1.926 -0.3930  0.0182  0.3027
    1MOL   C722  722   7.432   6.401   1.795 -0.1560 -0.0563  0.3890
    1MOL   C723  723   7.348   6.352   1.694 -0.5558  0.4394  0.5834
    1MOL   C724  724   7.390   6.360   1.558  0.2568 -0.3813  0.4429
    1MOL   C725  725   7.514   6.405   1.522 -0.1774  0.7151 -0.2537
    1MOL   N726  726   7.554   6.397   1.385  0.4901 -0.0690  0.4402
    1MOL   C727  727   7.671   6.440   1.328  0.3749 -0.0052  0.1272
    1MOL   C728  728   7.657   6.519   1.214  0.9567 -0.4340  0.1123
    1MOL   C729  729   7.768   6.560   1.137  0.1548 -0.2518  0.7963
    1MOL   C730  730   7.898   6.504   1.166 -0.2433  0.2435  0.2331
    1MOL   N731  731   0.030   6.513   1.076  0.3350  0.4768 -0.9963
    1MOL   C732  732   0.011   6.462   0.947 -0.5385 -1.3428  0.5566
    1MOL   C733  733   0.101   6.511   0.849  0.6723  0.2715  0.0420
    1MOL   C734  734   0.075   6.492   0.712  0.5263  0.3310 -0.0553
    1MOL   C735  735   7.970   6.385   0.673 -0.2051 -0.4643 -1.0955
    1MOL   C736  736   7.963   6.329   0.535  0.2770 -0.3695 -0.0584
    1MOL   C737  737   7.890   6.320   0.772 -0.3543 -0.9977 -0.1858
    1MOL   C738  738   7.893   6.369   0.904 -0.1925  0.1314 -0.6711
    1MOL   C739  739   7.915   6.431   1.291 -0.3642  0.6227  0.0910
    1MOL   C740  740   7.799   6.393   1.367 -0.3392  0.0000 -0.5287
    1MOL   C741  741   7.598   6.458   1.626 -0.3870  0.4213 -0.2036
    1MOL   C742  742   7.560   6.454   1.760  0.2649  0.5414  0.2963
    1MOL   C743  743   7.443   6.394   2.161  0.0855 -0.3357  0.7003
    1MOL   C744  744   7.478   6.470   2.278 -0.0950 -0.0243  0.5844
    1MOL   H745  745   7.569   6.609   2.464  0.3585 -0.9934 -1.2028
    1MOL   H746  746   7.520   6.774   2.134 -0.7587  0.0626  1.8232
    1MOL   H747  747   7.455   6.646   1.931 -0.3312 -1.5966 -0.3106
    1MOL   H748  748   7.314   6.322   1.946 -0.1630  0.5842  3.2586
    1MOL   H749  749   7.251   6.308   1.714  0.6467 -2.2482  0.8112
    1MOL   H750  750   7.318   6.321   1.488 -1.0802  1.8787  0.5133
    1MOL   H751  751   7.483   6.374   1.316  1.3890 -1.6889  0.0267
    1MOL   H752  752   7.558   6.558   1.192  0.1035 -0.7545  3.1925
    1MOL   H753  753   7.756   6.618   1.046  3.0698 -0.6893  0.0803
    1MOL   H754  754   0.121   6.496   1.118  0.0098  1.1295 -0.0122
    1MOL   H755  755   0.180   6.580   0.874 -1.1510  1.7562  1.8564
    1MOL   H756  756   0.134   6.536   0.633 -0.6805  0.8923 -0.6587
    1MOL   H757  757   7.884   6.257   0.518 -1.6354  2.0395 -1.7097
    1MOL   H758  758   0.078   6.281   0.524  0.4202 -0.5549  1.8523
    1MOL   H759  759   7.831   6.233   0.748 -1.9320  0.0123 -0.0281
    1MOL   H760  760   7.830   6.323   0.978 -0.6342 -0.9225 -1.6940
    1MOL   H761  761   0.034   6.402   1.317  0.3047 -0.2277 -3.2404
    1MOL   H762  762   7.817   6.326   1.450 -1.2170 -1.4007 -1.4468
    1MOL   H763  763   7.695   6.496   1.596 -0.7651  0.8673 -0.8782
    1MOL   H764  764   7.630   6.488   1.835 -0.9774  0.4341  1.5179
    1MOL   H765  765   7.424   6.288   2.169 -0.9294 -0.0925  1.5846
    1MOL   H766  766   7.474   6.407   2.366  0.5665  0.2879  0.8427
    1MOL   N767  767   7.963   6.438   0.435 -0.1053 -0.1564 -0.2299
    1MOL   C768  768   7.874   6.443   0.330  0.7311 -0.2217  0.2449
    1MOL   C769  769   7.915   6.423   0.196  0.0602 -0.0290 -0.4301
    1MOL   C770  770   7.814   6.417   0.092  0.0832 -0.3637 -0.8553
    1MOL   C771  771   7.674   6.427   0.121  0.2893 -0.7099 -0.3289
    1MOL   N772  772   7.584   6.435   0.017  0.2542 -0.7595  0.5516
    1MOL   C773  773   7.448   6.478   0.016 -0.6351 -0.3919 -0.2416
    1MOL   C774  774   7.352   6.407   7.919 -0.3242 -0.3042  0.2815
    1MOL   C775  775   7.220   6.453   7.911 -0.3574 -0.3419 -0.3742
    1MOL   C776  776   7.183   6.570   7.981  0.7071  0.0850 -0.0484
    1MOL   N777  777   7.043   6.609   7.960 -0.6342 -0.4742 -0.4512
    1MOL   C778  778   6.962   6.691   0.060  0.2480 -0.6941  0.7916
    1MOL   C779  779   6.969   6.676   0.197 -0.6091  0.0144 -0.6608
    1MOL   C780  780   6.905   6.764   0.283 -0.4121 -0.6061  0.3656
    1MOL   C781  781   6.828   6.869   0.232 -0.0551  0.0508 -0.9549
    1MOL   N782  782   6.777   6.975   0.313 -0.0618  0.4202 -0.0231
    1MOL   C783  783   6.650   7.024   0.333 -0.5932 -0.5545  0.0342
    1MOL   C784  784   6.642   7.137   0.420 -0.1459 -0.4909 -0.7968
    1MOL   C785  785   6.519   7.203   0.431  0.0576 -0.7292 -0.6522
    1MOL   C786  786   6.404   7.147   0.370 -0.3324 -0.2542 -0.5666
    1MOL   C787  787   6.271   7.213   0.382  0.2101 -0.9569  0.1940
    1MOL   C788  788   6.408   7.028   0.291  0.5470 -0.0511 -0.0736
    1MOL   C789  789   6.536   6.972   0.266  0.3035  1.0064 -0.2643
    1MOL   C790  790   6.818   6.878   0.095  0.1218  0.2709  0.3911
    1MOL   C791  791   6.883   6.794   0.009 -0.9836 -0.1098 -0.2113
    1MOL   C792  792   7.280   6.648   0.063 -0.0711 -0.1496 -0.0133
    1MOL   C793  793   7.409   6.604   0.075 -0.2460  0.4146  0.7657
    1MOL   C794  794   7.635   6.448   0.256 -0.2036  0.6844 -0.2892
    1MOL   C795  795   7.732   6.443   0.356  0.2099  0.0804 -0.2144
    1MOL   H796  796   0.074   6.473   0.420  0.1924 -1.2526 -0.9985
    1MOL   H797  797   0.038   6.411   0.174  0.4878  2.4056  0.1590
    1MOL   H798  798   7.849   6.397   7.974 -0.3215  0.6707 -1.2042
    1MOL   H799  799   7.604   6.369   7.925 -0.5405 -1.2799  0.7820
    1MOL   H800  800   7.384   6.320   7.863  1.3326 -0.6043  1.6590
    1MOL   H801  801   7.148   6.396   7.854 -0.5329 -1.7699  1.2025
    1MOL   H802  802   7.030   6.638   7.865 -0.3031  1.1447 -0.0129
    1MOL   H803  803   7.033   6.605   0.248 -0.8809  1.8085  2.2792
    1MOL   H804  804   6.921   6.756   0.389  1.1121 -1.2153  0.0892
    1MOL   H805  805   6.844   7.005   0.382  0.6578 -1.8137  0.2982
    1MOL   H806  806   6.722   7.190   0.469 -2.2781 -0.0884  2.3841
    1MOL   H807  807   6.510   7.283   0.502 -1.0303 -0.7705 -0.7217
    1MOL   H808  808   6.204   7.181   0.302  0.1320 -0.9495  0.2565
    1MOL   H809  809   6.288   7.315   0.347 -0.1356 -2.0920 -3.4598
    1MOL   H810  810   6.321   6.992   0.239 -0.1190  0.4831  0.6502
    1MOL   H811  811   6.543   6.883   0.205 -1.6824  1.2104 -0.8414
    1MOL   H812  812   6.768   6.963   0.051 -2.5565 -0.8500  1.2019
    1MOL   H813  813   6.882   6.815   7.885  1.1828 -0.7241 -0.3695
    1MOL   H814  814   7.249   6.743   0.103 -2.7861 -0.0550 -2.1974
    1MOL   H815  815   7.485   6.668   0.117 -0.3901  1.7989 -1.0381
    1MOL   H816  816   7.532   6.453   0.287 -0.6870  1.9379 -2.0017
    1MOL   H817  817   7.704   6.460   0.460  0.0300  0.6912 -0.3581
    1MOL   N818  818   6.219   7.221   0.523 -0.2479 -0.6209  0.7350
    1MOL   C819  819   6.111   7.138   0.567  0.4180  0.5513 -0.5153
    1MOL   C820  820   6.065   7.023   0.502 -0.0665 -0.7699  0.2619
    1MOL   C821  821   5.965   6.939   0.555 -0.3886 -0.1258 -0.6203
    1MOL   C822  822   5.917   6.965   0.684  1.4331  0.5650  0.1462
    1MOL   N823  823   5.795   6.910   0.730 -0.7901 -0.1452 -0.3042
    1MOL   C824  824   5.760   6.888   0.866 -0.4413  0.5488 -0.3277
    1MOL   C825  825   5.621   6.892   0.897  0.6250  0.2386  0.0783
    1MOL   C826  826   5.578   6.862   1.033  0.8221  0.2169  0.4790
    1MOL   C827  827   5.674   6.827   1.126 -0.3605  0.1825 -0.0876
    1MOL   N828  828   5.634   6.807   1.253  0.3273 -0.2629  0.7983
    1MOL   C829  829   5.539   6.719   1.311 -1.2100  0.4875  0.3397
    1MOL   C830  830   5.443   6.645   1.239 -0.5001 -0.3333 -0.1048
    1MOL   C831  831   5.346   6.563   1.301 -0.2212  0.0999  0.6083
    1MOL   C832  832   5.353   6.550   1.439  0.3387  0.6491  1.1134
    1MOL   N833  833   5.264   6.467   1.502 -0.2924 -1.1665 -0.2011
    1MOL   C834  834   5.245   6.447   1.638 -0.4717  0.0770 -0.2546
    1MOL   C835  835   5.246   6.554   1.728 -0.6585 -0.3868 -0.4898
    1MOL   C836  836   5.237   6.542   1.872  0.3075 -0.1335  0.3473
    1MOL   C837  837   5.225   6.408   1.919  0.4391  0.2465 -0.4070
    1MOL   C838  838   5.225   6.371   2.068  0.5184 -0.5090  0.3823
    1MOL   C839  839   5.210   6.296   1.830  0.0119 -0.1271  0.2293
    1MOL   C840  840   5.227   6.317   1.692 -0.2639  0.1071 -0.1096
    1MOL   C841  841   5.457   6.611   1.512  0.7525 -0.3190  0.4127
    1MOL   C842  842   5.547   6.696   1.447  0.0449  0.4837  0.3044
    1MOL   C843  843   5.808   6.832   1.101 -0.0249  0.1202  0.5901
    1MOL   C844  844   5.850   6.859   0.969 -0.2052 -1.0233  0.5913
    1MOL   C845  845   5.977   7.069   0.766 -0.3081  0.5392 -0.1577
    1MOL   C846  846   6.074   7.149   0.704 -0.1096 -0.4724 -0.1625
    1MOL   H847  847   6.294   7.232   0.591 -0.0488  0.9924  0.2670
    1MOL   H848  848   6.109   7.005   0.405  0.2925  0.5732  0.1711
    1MOL   H849  849   5.934   6.856   0.493  1.5401 -0.2755 -1.3981
    1MOL   H850  850   5.725   6.900   0.658  0.4678 -1.8093 -1.3530
    1MOL   H851  851   5.552   6.909   0.816  1.8639  0.4779 -0.9393
    1MOL   H852  852   5.474   6.873   1.059  0.1412 -0.0200 -1.9786
    1MOL   H853  853   5.713   6.834   1.310  1.0727  0.1067 -0.3926
    1MOL   H854  854   5.434   6.643   1.132  0.3538 -0.7955 -0.1745
    1MOL   H855  855   5.266   6.520   1.243 -0.1434  2.3139 -1.2307
    1MOL   H856  856   5.251   6.384   1.447  2.1914 -0.6978 -1.5656
    1MOL   H857  857   5.262   6.655   1.693  0.9626  0.4370  2.4305
    1MOL   H858  858   5.263   6.628   1.932 -1.5350 -0.8556  2.2381
    1MOL   H859  859   5.296   6.290   2.085  2.1874  0.8352 -0.0685
    1MOL   H860  860   5.130   6.326   2.098 -0.4327  0.9163 -0.4131
    1MOL   H861  861   5.184   6.200   1.872 -1.8899  0.4134  0.3274
    1MOL   H862  862   5.225   6.230   1.628 -1.3875 -0.1147  0.2241
    1MOL   H863  863   5.460   6.607   1.620 -1.0518 -2.0052  0.4401
    1MOL   H864  864   5.611   6.762   1.502 -1.7743  0.0503  3.0080
    1MOL   H865  865   5.887   6.823   1.174  0.0553  1.5100  0.6917
    1MOL   H866  866   5.957   6.852   0.953  0.0605  2.5991  0.3469
    1MOL   H867  867   5.943   7.089   0.867 -1.1748  0.6660 -0.4717
    1MOL   H868  868   6.116   7.237   0.750 -0.1645 -0.0784 -0.8591
    1MOL   N869  869   5.257   6.473   2.161 -0.1170 -0.0858 -0.2196
    1MOL   C870  870   5.178   6.583   2.181  0.2407  0.3915  0.4274
    1MOL   C871  871   5.043   6.593   2.131 -0.4361  0.1027 -0.7439
    1MOL   C872  872   4.973   6.711   2.161  0.1566  0.9202  0.6207
    1MOL   C873  873   5.024   6.817   2.238  0.3721 -0.0534  0.1785
    1MOL   N874  874   4.956   6.937   2.259 -0.8408 -0.4348 -0.0203
    1MOL   C875  875   4.817   6.951   2.292 -0.3289  0.9973  0.2868
    1MOL   C876  876   4.752   7.075   2.271  0.2203 -0.0232 -0.0159
    1MOL   C877  877   4.614   7.096   2.300  0.3347 -0.4963 -0.0300
    1MOL   C878  878   4.544   6.998   2.357 -0.2009  0.3463  0.0988
    1MOL   N879  879   4.408   7.031   2.371 -0.0288  0.5351  0.0922
    1MOL   C880  880   4.346   7.085   2.481 -0.1293 -0.0004  0.0071
    1MOL   C881  881   4.416   7.152   2.581  0.1400 -0.1922  0.2162
    1MOL   C882  882   4.344   7.221   2.680  0.1922 -0.4448 -0.2814
    1MOL   C883  883   4.201   7.226   2.682 -0.0807 -0.0128  0.0693
    1MOL   N884  884   4.139   7.294   2.789 -0.0252 -0.2377 -0.0910
    1MOL   C885  885   4.032   7.385   2.772  0.8477 -0.5663 -0.6362
    1MOL   C886  886   3.977   7.448   2.887  0.1551  0.3983 -0.1249
    1MOL   C887  887   3.872   7.537   2.877  0.1827 -0.4907  0.5476
    1MOL   C888  888   3.826   7.567   2.747  0.9397 -0.3732 -0.3493
    1MOL   C889  889   3.704   7.659   2.734 -1.0167  0.7279  0.1080
    1MOL   C890  890   3.875   7.509   2.634  0.4410  0.3868 -0.1219
    1MOL   C891  891   3.987   7.426   2.646 -0.2784 -0.8386  0.3828
    1MOL   C892  892   4.136   7.156   2.583  0.8854 -0.0281  1.2456
    1MOL   C893  893   4.205   7.097   2.480  0.0504 -0.0247 -0.4742
    1MOL   C894  894   4.601   6.870   2.377  0.2819  0.3053  0.2857
    1MOL   C895  895   4.743   6.852   2.357  1.2522 -0.3023 -0.0969
    1MOL   C896  896   5.154   6.811   2.282  0.1169  0.0557 -0.5089
    1MOL   C897  897   5.229   6.695   2.253 -0.3491  0.2285  0.3284
    1MOL   H898  898   5.332   6.448   2.225 -0.2657  0.3600  0.1342
    1MOL   H899  899   4.997   6.508   2.082 -0.5727 -0.0123 -0.4122
    1MOL   H900  900   4.880   6.727   2.107  0.8034  1.8734 -0.2388
    1MOL   H901  901   4.998   7.023   2.226 -1.6443 -0.7078 -1.8231
    1MOL   H902  902   4.808   7.153   2.220 -1.1421  0.7470 -0.3647
    1MOL   H903  903   4.566   7.189   2.274 -0.6631 -1.3926 -1.4073
    1MOL   H904  904   4.338   7.018   2.300  0.0427 -0.3500  0.1758
    1MOL   H905  905   4.523   7.166   2.581 -0.0650  1.5204  1.0835
    1MOL   H906  906   4.404   7.280   2.747 -1.3621  0.8401 -0.0073
    1MOL   H907  907   4.192   7.315   2.872  0.3909  0.5252 -0.5425
    1MOL   H908  908   4.019   7.413   2.980  1.3783  0.9023 -0.4799
    1MOL   H909  909   3.822   7.583   2.961  0.7825  0.0125  0.6395
    1MOL   H910  910   3.684   7.650   2.628 -1.8739 -1.0329  0.3894
    1MOL   H911  911   3.729   7.762   2.759  0.6926  0.5585 -0.8562
    1MOL   H912  912   3.836   7.526   2.535 -0.2503  1.0302  0.2525
    1MOL   H913  913   4.042   7.397   2.558  0.4488 -0.5558  0.7419
    1MOL   H914  914   4.028   7.148   2.586  0.8046 -0.9683 -1.7811
    1MOL   H915  915   4.154   7.048   2.398  0.8022  0.0596 -1.0042
    1MOL   H916  916   4.542   6.794   2.426  0.5769 -0.0047  0.1587
    1MOL   H917  917   4.797   6.759   2.372  0.5082 -0.7222  0.0164
    1MOL   H918  918   5.204   6.886   2.342 -0.8053  0.7054 -0.5424
    1MOL   H919  919   5.333   6.699   2.283 -0.0083  1.3109 -0.9161
    1MOL   N920  920   3.587   7.611   2.807  0.3419  0.4013  0.4365
    1MOL   C921  921   3.457   7.663   2.778  0.1538  0.9200 -0.3424
    1MOL   C922  922   3.348   7.581   2.803  0.3560  0.4195  0.2587
    1MOL   C923  923   3.223   7.632   2.772  0.2914  0.2364  0.3073
    1MOL   C924  924   3.195   7.759   2.736 -0.3285  0.0686  0.2391
    1MOL   N925  925   3.065   7.805   2.725 -0.2094  0.9798 -0.6223
    1MOL   C926  926   3.033   7.935   2.675 -0.1264  0.2367 -0.5671
    1MOL   C927  927   2.950   0.029   2.753 -0.0222 -0.0835  0.4507
    1MOL   C928  928   2.928   0.164   2.716  0.0891 -0.0775 -0.2546
    1MOL   C929  929   2.975   0.213   2.594 -0.0416  0.0952  0.7278
    1MOL   N930  930   2.926   0.337   2.543 -0.4184  0.1644 -0.0522
    1MOL   C931  931   2.939   0.394   2.417 -0.1479 -0.2656  0.6037
    1MOL   C932  932   2.828   0.464   2.367  0.4814 -1.0555  0.0819
    1MOL   C933  933   2.834   0.549   2.248 -0.1989 -0.3701  0.0289
    1MOL   C934  934   2.953   0.538   2.169  0.5538  0.0605 -0.8381
    1MOL   N935  935   2.956   0.613   2.048  0.5105 -0.3853  0.6286
    1MOL   C936  936   3.063   0.613   1.958  0.4464  0.1843 -0.5464
    1MOL   C937  937   3.097   0.489   1.893 -0.4899  0.8280  0.2920
    1MOL   C938  938   3.209   0.488   1.807  0.2136 -0.0155  0.1983
    1MOL   C939  939   3.288   0.604   1.792 -0.3222 -0.1689 -0.1466
    1MOL   C940  940   3.417   0.602   1.714 -0.2555 -0.1254 -1.2572
    1MOL   C941  941   3.251   0.727   1.854 -0.3016  0.1526  0.4734
    1MOL   C942  942   3.132   0.735   1.933  0.0602  0.0485  0.7866
    1MOL   C943  943   3.060   0.464   2.221 -0.2387 -0.3574  0.5478
    1MOL   C944  944   3.056   0.393   2.342 -0.1102  0.4952  0.5638
    1MOL   C945  945   3.062   0.130   2.514  0.9518 -0.0048  0.5054
    1MOL   C946  946   3.086   7.982   2.553 -0.3173 -0.1984 -0.0122
    1MOL   C947  947   3.306   7.848   2.722  0.5423 -0.0776 -0.0717
    1MOL   C948  948   3.434   7.801   2.743 -0.3916  0.7298 -1.2799
    1MOL   H949  949   3.606   7.540   2.875  2.1477  0.2671 -0.1792
    1MOL   H950  950   3.347   7.475   2.823 -2.8687  0.4742  0.5809
    1MOL   H951  951   3.142   7.561   2.786  1.0273 -1.0630 -1.9075
    1MOL   H952  952   3.001   7.783   2.799  1.2975  1.5705  0.9082
    1MOL   H953  953   2.917   7.970   2.847 -0.7773  2.1306  1.1721
    1MOL   H954  954   2.853   0.225   2.764 -0.1287 -1.4413  1.1964
    1MOL   H955  955   2.855   0.368   2.608  0.1876 -0.9504  1.1678
    1MOL   H956  956   2.748   0.480   2.438  0.6113  2.4707 -0.4779
    1MOL   H957  957   2.745   0.608   2.234  0.7728  1.4488  1.2700
    1MOL   H958  958   2.897   0.694   2.048  1.6269  0.5712 -3.4114
    1MOL   H959  959   3.042   0.401   1.923 -0.2033  0.2460 -0.8782
    1MOL   H960  960   3.246   0.398   1.761  2.0773  0.7262  0.1901
    1MOL   H961  961   3.456   0.500   1.720  0.8091  0.2405 -1.8666
    1MOL   H962  962   3.502   0.658   1.753  0.1080 -0.8979 -0.9259
    1MOL   H963  963   3.306   0.816   1.830 -1.1632  0.1772 -1.4908
    1MOL   H964  964   3.100   0.822   1.988  0.6937  1.7767 -1.4937
    1MOL   H965  965   3.152   0.460   2.165 -2.0538  1.5099 -2.7664
    1MOL   H966  966   3.148   0.352   2.382  1.1740  3.2391  0.5051
    1MOL   H967  967   3.124   0.164   2.432  1.5593 -0.2049  0.8766
    1MOL   H968  968   3.156   7.918   2.501 -0.1631 -1.7290  1.9972
    1MOL   H969  969   3.296   7.953   2.698  0.9343  0.3711  1.6219
    1MOL   H970  970   3.516   7.868   2.725 -0.2112  0.4206 -1.6216
    1MOL   N971  971   3.382   0.633   1.582 -0.1805 -0.0324  0.8337
    1MOL   C972  972   3.491   0.643   1.484 -0.1637  0.5811  0.4750
    1MOL   C973  973   3.465   0.705   1.361  0.9643 -0.2840  0.1569
    1MOL   C974  974   3.560   0.701   1.253  0.0742  0.0256  0.6800
    1MOL   C975  975   3.688   0.649   1.282 -0.2376  0.3577 -0.1190
    1MOL   N976  976   3.780   0.632   1.178 -0.1835 -0.1972 -0.4047
    1MOL   C977  977   3.911   0.575   1.180 -0.0898 -0.1893 -0.7281
    1MOL   C978  978   3.929   0.438   1.208 -0.2141 -0.5438  0.0833
    1MOL   C979  979   4.063   0.379   1.208 -0.5541  0.1540 -0.1285
    1MOL   C980  980   4.172   0.459   1.169  0.6133 -0.9120  0.4351
    1MOL   N981  981   4.299   0.406   1.178 -0.3283 -0.5318  0.2484
    1MOL   C982  982   4.343   0.276   1.199  0.1676  0.1779 -0.5043
    1MOL   C983  983   4.455   0.265   1.284 -0.7149 -0.0849 -0.3901
    1MOL   C984  984   4.501   0.137   1.316  0.2008  0.1299  0.4720
    1MOL   C985  985   4.441   0.013   1.260  0.0499 -0.0346 -0.2843
    1MOL   N986  986   4.494   7.866   1.286 -0.4862  0.1008 -0.0912
    1MOL   C987  987   4.567   7.831   1.400  0.1072  0.2945 -0.0936
    1MOL   C988  988   4.537   7.877   1.528  0.5764 -0.2729 -0.0393
    1MOL   C989  989   4.606   7.831   1.645  0.1938 -0.7693  0.3744
    1MOL   C990  990   4.714   7.741   1.634 -0.5531  0.1364 -0.6819
    1MOL   C991  991   4.795   7.707   1.757  0.2258  0.4455  0.6103
    1MOL   C992  992   4.742   7.684   1.507 -0.3102  0.0340  0.0650
    1MOL   C993  993   4.659   7.727   1.396  0.4673  0.5155  0.2287
    1MOL   C994  994   4.331   0.027   1.169 -0.6917 -0.1063 -0.2184
    1MOL   C995  995   4.282   0.158   1.141 -0.5092  0.0770  0.4375
    1MOL   C996  996   4.156   0.594   1.142 -0.3107  0.1823 -0.0647
    1MOL   C997  997   4.030   0.651   1.143  0.6552  0.2689 -0.1738
    1MOL   C998  998   3.723   0.597   1.408 -0.7510  0.7765 -0.2497
    1MOL   C999  999   3.621   0.589   1.508 -0.7962  0.7023  0.0136
    1MOL     H1 1000   3.288   0.615   1.549  0.2319 -2.7910  1.0914
    1MOL     H2 1001   3.363   0.740   1.350  0.7500 -1.0745 -0.3981
    1MOL     H3 1002   3.532   0.745   1.158  2.9395  0.7428  0.1065
    1MOL     H4 1003   3.765   0.678   1.089 -2.0838  0.3845  0.1902
    1MOL     H5 1004   3.846   0.374   1.231 -1.8546  2.3606  2.6191
    1MOL     H6 1005   4.070   0.278   1.245  1.2942  0.2308 -0.2336
    1MOL     H7 1006   4.369   0.477   1.159 -0.9977  0.2276  0.6192
    1MOL     H8 1007   4.517   0.343   1.326 -0.4457 -0.5764  0.1347
    1MOL     H9 1008   4.580   0.139   1.390 -1.1525  2.0662  1.9336
    1MOL    H10 1009   4.456   7.795   1.226 -0.0671 -0.8876  0.7942
    1MOL    H11 1010   4.458   7.949   1.540  1.3574  0.8240 -1.2963
    1MOL    H12 1011   4.591   7.874   1.744  0.2455 -1.5124  0.7117
    1MOL    H13 1012   4.797   7.795   1.821  0.4419  0.3996  0.6655
    1MOL    H14 1013   4.890   7.658   1.736 -0.5975 -1.2779  0.7798
    1MOL    H15 1014   4.821   7.611   1.495  0.1795  0.6506 -0.4691
    1MOL    H16 1015   4.689   7.680   1.304  2.6470  2.1071  0.0834
    1MOL    H17 1016   4.293   7.926   1.112 -2.8783  1.1525 -0.6402
    1MOL    H18 1017   4.210   0.178   1.063 -0.6064  1.8684  0.9575
    1MOL    H19 1018   4.245   0.654   1.132 -0.3820  0.4003  0.5973
    1MOL    H20 1019   4.019   0.756   1.120 -2.2155  0.3378  1.2917
    1MOL    H21 1020   3.809   0.540   1.438 -0.7499  1.6080  1.4202
    1MOL    H22 1021   3.642   0.540   1.602 -1.4111 -0.2132 -0.3177
    1MOL    H23 1022   4.734   7.630   1.805 -0.7641  1.0489  0.3442
    2MOL     N1 1023   4.705   2.418   7.868 -0.4994 -0.4157 -0.9026
    2MOL     C2 1024   4.784   2.303   7.857 -0.1120  0.0036 -0.3420
    2MOL     C3 1025   4.833   2.277   7.729 -0.7362  0.3240  0.4329
    2MOL     C4 1026   4.923   2.163   7.712  0.3738 -1.0435  0.1493
    2MOL     C5 1027   4.957   2.092   7.822  0.0295  0.2232  0.1928
    2MOL     N6 1028   5.043   1.985   7.808  0.1984  0.1450 -0.3944
    2MOL     C7 1029   5.137   1.970   7.710  0.2690 -0.2021 -0.3373
    2MOL     C8 1030   5.229   2.071   7.674  0.2324  0.2643  0.1772
    2MOL     C9 1031   5.321   2.054   7.567  0.5345 -0.3369 -0.2199
    2MOL    C10 1032   5.319   1.929   7.504  0.5322  0.3134  0.2160
    2MOL    N11 1033   5.407   1.906   7.394 -0.0711  0.1611  0.1296
    2MOL    C12 1034   5.478   2.003   7.320 -0.9389  0.0448  0.3969
    2MOL    C13 1035   5.614   1.977   7.286 -0.7089 -0.7115 -0.1049
    2MOL    C14 1036   5.679   2.068   7.210 -0.3871  0.5197 -0.4479
    2MOL    C15 1037   5.627   2.191   7.174  0.1250 -0.8169  0.2651
    2MOL    N16 1038   5.703   2.287   7.100 -0.1319  0.1320  0.3305
    2MOL    C17 1039   5.815   2.353   7.153  0.3101 -0.0620 -0.2535
    2MOL    C18 1040   5.839   2.483   7.116 -0.0951 -0.8971 -0.3945
    2MOL    C19 1041   5.941   2.561   7.171  0.2738  0.9734  0.3956
    2MOL    C20 1042   6.023   2.506   7.268 -0.0617  0.4601  0.6736
    2MOL    C21 1043   6.099   2.599   7.354  0.6600  0.4028 -0.1966
    2MOL    C22 1044   6.005   2.372   7.311 -0.3594 -0.0918 -0.6397
    2MOL    C23 1045   5.903   2.297   7.249 -0.4725  0.4433  0.1407
    2MOL    C24 1046   5.495   2.221   7.208 -0.2295 -0.8907  0.0010
    2MOL    C25 1047   5.418   2.130   7.287  0.2835  0.3110  0.0691
    2MOL    C26 1048   5.242   1.823   7.548 -0.4738 -0.0031 -0.1629
    2MOL    C27 1049   5.142   1.846   7.647 -0.8975  0.1224  0.3444
    2MOL    C28 1050   4.912   2.122   7.950  0.0879  0.3750 -0.5661
    2MOL    C29 1051   4.816   2.226   7.966 -0.0255 -0.5050  0.2310
    2MOL    H30 1052   4.712   2.469   7.781 -1.1363  2.0545  0.4193
    2MOL    H31 1053   4.807   2.338   7.643 -0.6526 -0.0936  0.1105
    2MOL    H32 1054   4.950   2.126   7.614 -0.3217  0.7048 -0.7298
    2MOL    H33 1055   5.010   1.903   7.857  1.8275 -1.4364 -1.8702
    2MOL    H34 1056   5.220   2.164   7.728  2.5358 -0.9380  2.7687
    2MOL    H35 1057   5.397   2.127   7.539 -2.2729  2.0415 -1.9568
    2MOL    H36 1058   5.427   1.811   7.366  0.0138  0.7785 -1.9613
    2MOL    H37 1059   5.660   1.884   7.318  1.5188  1.0917  2.1192
    2MOL    H38 1060   5.775   2.035   7.172  0.3142  0.3481  1.4178
    2MOL    H39 1061   5.651   2.340   7.032 -0.6218 -3.3305 -2.0902
    2MOL    H40 1062   5.783   2.522   7.032 -1.0748 -1.0949  0.1635
    2MOL    H41 1063   5.945   2.663   7.136 -0.7718  0.5999 -0.8227
    2MOL    H42 1064   6.169   2.547   7.420  1.0288  2.0485  0.7705
    2MOL    H43 1065   6.027   2.651   7.419  1.8226  1.0294  0.6225
    2MOL    H44 1066   6.072   2.335   7.387 -0.7360 -0.1028 -0.3108
    2MOL    H45 1067   5.901   2.190   7.268 -1.4665  0.1424 -1.5959
    2MOL    H46 1068   5.460   2.322   7.191 -0.0718 -1.2570 -2.6422
    2MOL    H47 1069   5.316   2.155   7.313 -0.1879  0.1487 -1.5455
    2MOL    H48 1070   5.238   1.729   7.496 -0.9060 -1.1938  1.9382
    2MOL    H49 1071   5.070   1.770   7.672 -0.1159 -1.4295 -1.9805
    2MOL    H50 1072   4.948   2.068   0.054 -1.1091  1.9278  0.9412
    2MOL    H51 1073   4.780   2.250   0.082 -0.6552 -2.3183  0.4532
    2MOL    H52 1074   4.609   2.394   7.890  0.3497 -1.2887  2.0995
    2MOL    N53 1075   6.166   2.712   7.286 -0.1467 -0.3683  0.0746
    2MOL    C54 1076   6.258   2.682   7.174  0.3303  0.1327  0.0042
    2MOL    C55 1077   6.328   2.557   7.160  0.6143 -0.4856  0.4686
    2MOL    C56 1078   6.428   2.547   7.060  0.3092  0.3790 -0.5163
    2MOL    C57 1079   6.448   2.650   6.961  0.4811 -0.7046 -1.2520
    2MOL    N58 1080   6.553   2.636   6.876  0.5134  0.3622  0.2813
    2MOL    C59 1081   6.588   2.723   6.773  0.7123  0.3448 -0.1400
    2MOL    C60 1082   6.709   2.795   6.787  0.2172  0.5020 -0.0183
    2MOL    C61 1083   6.741   2.907   6.699  0.8275 -0.4838  0.1961
    2MOL    C62 1084   6.651   2.936   6.598  0.0337 -0.3894 -0.4147
    2MOL    N63 1085   6.686   3.043   6.512  0.1205 -0.2415  0.0552
    2MOL    C64 1086   6.603   3.150   6.484 -0.5120 -0.3944 -0.7005
    2MOL    C65 1087   6.655   3.248   6.401 -0.4541 -0.4381 -1.1036
    2MOL    C66 1088   6.582   3.355   6.363  0.3395 -0.4636  0.3823
    2MOL    C67 1089   6.458   3.390   6.429 -0.2254  0.3298 -0.5882
    2MOL    N68 1090   6.392   3.504   6.407  0.1432 -0.0919  0.5202
    2MOL    C69 1091   6.443   3.624   6.367 -0.2650  0.4367  0.0235
    2MOL    C70 1092   6.369   3.698   6.269  0.1332 -0.0734 -0.8050
    2MOL    C71 1093   6.418   3.827   6.223 -0.1974  0.4421  0.6922
    2MOL    C72 1094   6.525   3.884   6.285 -0.8060 -0.2587  0.5921
    2MOL    C73 1095   6.565   4.024   6.269 -0.0661  0.8027  0.0566
    2MOL    C74 1096   6.603   3.805   6.374 -0.1651  0.1662 -0.2995
    2MOL    C75 1097   6.560   3.681   6.428 -0.3242 -0.2437 -0.0632
    2MOL    C76 1098   6.409   3.292   6.524  0.0296 -0.2035  0.4930
    2MOL    C77 1099   6.481   3.174   6.550 -0.4755  0.2658  0.3451
    2MOL    C78 1100   6.536   2.862   6.575  0.8842 -0.0918  0.3229
    2MOL    C79 1101   6.498   2.761   6.670 -0.3523  0.5574  0.4271
    2MOL    C80 1102   6.363   2.765   6.968  0.3880 -0.2159 -0.0045
    2MOL    C81 1103   6.266   2.782   7.069  0.3830  0.2710  0.1587
    2MOL    H82 1104   6.126   2.804   7.294 -1.7037 -1.0413  0.2201
    2MOL    H83 1105   6.316   2.476   7.230  1.3584 -1.6428 -0.7114
    2MOL    H84 1106   6.498   2.465   7.064  1.9456  1.7460 -0.5217
    2MOL    H85 1107   6.633   2.594   6.922  1.5579  1.3438 -0.6231
    2MOL    H86 1108   6.776   2.788   6.871  0.2956  0.7352 -0.0628
    2MOL    H87 1109   6.829   2.970   6.704  0.8786 -0.3933 -1.4734
    2MOL    H88 1110   6.785   3.062   6.499  0.2696 -0.0427  1.4234
    2MOL    H89 1111   6.755   3.245   6.359  0.0673  0.2872  0.0576
    2MOL    H90 1112   6.619   3.430   6.295 -0.4698  0.2024  0.6701
    2MOL    H91 1113   6.293   3.501   6.426 -0.1851  0.0096 -1.1367
    2MOL    H92 1114   6.281   3.649   6.231 -0.2940 -0.2050  0.3202
    2MOL    H93 1115   6.350   3.881   6.159  2.0457  1.4851 -0.8499
    2MOL    H94 1116   6.544   4.071   6.365  0.9064  0.2594  0.5368
    2MOL    H95 1117   6.488   4.061   6.201 -2.5116  1.1935  2.8991
    2MOL    H96 1118   6.690   3.855   6.414  0.3732  0.5737 -1.9018
    2MOL    H97 1119   6.620   3.632   6.503  0.1316 -0.2845 -0.4487
    2MOL    H98 1120   6.318   3.308   6.581 -0.6991  1.5775 -1.1285
    2MOL    H99 1121   6.442   3.105   6.623 -1.5297 -0.6786 -1.0877
    2MOL   H100 1122   6.468   2.883   6.494  1.9502 -1.8325 -1.0650
    2MOL   H101 1123   6.402   2.714   6.650 -0.7142  1.3325  0.3251
    2MOL   H102 1124   6.366   2.851   6.902  0.9973 -0.1918  0.0510
    2MOL   H103 1125   6.190   2.859   7.071  1.2066  1.1117 -0.7993
    2MOL   N104 1126   6.701   4.035   6.213 -0.2807  0.0120 -0.5342
    2MOL   C105 1127   6.775   4.147   6.255  0.4134 -0.0035 -0.5252
    2MOL   C106 1128   6.715   4.278   6.259  0.0868  0.0456  0.1043
    2MOL   C107 1129   6.797   4.387   6.298 -0.0504 -0.5435 -0.5010
    2MOL   C108 1130   6.931   4.373   6.332 -0.6037  0.1221  0.6849
    2MOL   N109 1131   7.013   4.485   6.369  0.6167 -0.3947  0.5624
    2MOL   C110 1132   7.112   4.504   6.467  0.3487 -0.1589  0.2265
    2MOL   C111 1133   7.195   4.408   6.523 -0.1691  0.0261 -0.1568
    2MOL   C112 1134   7.303   4.443   6.609 -0.4474  0.2111  0.2880
    2MOL   C113 1135   7.318   4.579   6.642  0.4668 -0.6314  0.2693
    2MOL   N114 1136   7.429   4.608   6.712 -0.2717 -0.1284 -0.5548
    2MOL   C115 1137   7.503   4.726   6.694  0.0498  1.1229  0.4321
    2MOL   C116 1138   7.547   4.760   6.563  0.4486 -0.1919  0.3290
    2MOL   C117 1139   7.639   4.866   6.537  0.1294  0.0980 -0.0306
    2MOL   C118 1140   7.678   4.943   6.653  0.1118 -0.5908  0.7615
    2MOL   N119 1141   7.781   5.036   6.633  0.3093 -0.4896 -0.2344
    2MOL   C120 1142   7.905   5.022   6.691 -0.5424 -0.1502  0.2034
    2MOL   C121 1143   7.921   5.054   6.826  0.6603 -0.2585 -0.3720
    2MOL   C122 1144   0.057   5.043   6.895 -0.3061  0.4028 -0.0584
    2MOL   C123 1145   0.174   5.014   6.818  0.0741 -0.2283 -0.1470
    2MOL   C124 1146   0.314   5.016   6.884  0.7976 -0.0104 -0.1148
    2MOL   C125 1147   0.163   4.989   6.681  0.0542 -0.2182 -0.5198
    2MOL   C126 1148   0.038   4.985   6.617  0.1689 -0.1239 -0.3583
    2MOL   C127 1149   7.628   4.908   6.782  0.4048 -0.3420  0.4022
    2MOL   C128 1150   7.537   4.806   6.802 -0.2652 -1.2096 -0.2736
    2MOL   C129 1151   7.225   4.677   6.591  0.1108 -1.1791 -0.3427
    2MOL   C130 1152   7.125   4.638   6.502 -0.0714 -0.0697 -0.8875
    2MOL   C131 1153   6.993   4.255   6.318 -0.1102 -0.3415 -0.3861
    2MOL   C132 1154   6.915   4.143   6.282 -0.5917 -0.3899  0.9750
    2MOL   H133 1155   6.748   3.950   6.242 -0.1429  0.3301  0.1791
    2MOL   H134 1156   6.611   4.293   6.236 -0.1659 -0.0488  1.1902
    2MOL   H135 1157   6.744   4.480   6.310  1.4151  0.3314 -0.7069
    2MOL   H136 1158   6.982   4.574   6.334  2.8090  0.7917  1.5227
    2MOL   H137 1159   7.173   4.305   6.501  0.5776 -0.6103  1.9565
    2MOL   H138 1160   7.373   4.368   6.640  0.9910  1.3102 -0.2191
    2MOL   H139 1161   7.468   4.533   6.768  0.3147  0.8808  0.4166
    2MOL   H140 1162   7.520   4.702   6.476 -1.3587 -0.2373  0.8940
    2MOL   H141 1163   7.673   4.882   6.436  1.3775  1.3403  0.5789
    2MOL   H142 1164   7.785   5.061   6.535 -0.0646 -0.7975 -0.3281
    2MOL   H143 1165   7.836   5.089   6.882  1.8689  0.6391  0.9437
    2MOL   H144 1166   0.061   5.067   7.000  0.4287  2.0817 -0.4656
    2MOL   H145 1167   0.304   4.963   6.979 -4.0005  1.9903  0.6637
    2MOL   H146 1168   0.334   5.110   6.934 -1.3480 -0.1019  0.9874
    2MOL   H147 1169   0.249   4.963   6.622  1.6602  2.3758  0.5788
    2MOL   H148 1170   0.028   4.968   6.511  0.7900 -1.6092 -0.1961
    2MOL   H149 1171   7.672   4.952   6.871  1.2157  1.4595 -0.8493
    2MOL   H150 1172   7.517   4.783   6.906  3.5128 -1.4788  0.4519
    2MOL   H151 1173   7.244   4.779   6.620  0.4524 -1.9922  2.4295
    2MOL   H152 1174   7.058   4.716   6.469 -0.6226 -1.1412 -2.3446
    2MOL   H153 1175   7.098   4.242   6.336  0.3118  2.8779 -0.1428
    2MOL   H154 1176   6.964   4.049   6.264 -0.4495 -0.5309  2.0526
    2MOL   N155 1177   0.424   4.972   6.802  0.4941 -0.0614 -0.0787
    2MOL   C156 1178   0.513   5.063   6.744 -0.1534  0.7288  0.0382
    2MOL   C157 1179   0.546   5.046   6.607 -0.2123 -0.0668  0.0505
    2MOL   C158 1180   0.649   5.126   6.557 -0.7172 -0.2294 -0.1343
    2MOL   C159 1181   0.704   5.234   6.619  0.4153 -0.3759 -0.4941
    2MOL   N160 1182   0.803   5.313   6.560 -0.3171  0.0832 -0.0621
    2MOL   C161 1183   0.910   5.370   6.628 -0.5955 -0.3592 -0.7735
    2MOL   C162 1184   0.994   5.296   6.713  1.2041 -0.3542  0.1374
    2MOL   C163 1185   1.108   5.354   6.769  0.0989 -0.0046  1.0195
    2MOL   C164 1186   1.133   5.493   6.745 -0.2428  0.3466 -0.1721
    2MOL   N165 1187   1.256   5.546   6.777 -0.7960 -0.0374  0.1130
    2MOL   C166 1188   1.329   5.514   6.896 -0.3494  0.3613  0.2827
    2MOL   C167 1189   1.467   5.507   6.890 -0.8897  0.5255 -0.1894
    2MOL   C168 1190   1.540   5.459   6.998 -0.2074 -0.2502  0.0089
    2MOL   C169 1191   1.479   5.440   7.122  0.7476  0.0507 -0.7186
    2MOL   N170 1192   1.538   5.377   7.233  0.3169  0.3807 -0.6259
    2MOL   C171 1193   1.645   5.293   7.239  0.3143  0.1296 -0.4461
    2MOL   C172 1194   1.665   5.196   7.146 -0.0893 -0.4605  0.1275
    2MOL   C173 1195   1.772   5.101   7.156  0.0215 -0.0343 -0.3202
    2MOL   C174 1196   1.863   5.116   7.266 -0.8174  0.0045  0.1105
    2MOL   C175 1197   1.978   5.019   7.289  0.3249  0.1127 -0.2678
    2MOL   C176 1198   1.842   5.222   7.360  0.0501  0.6507  0.3867
    2MOL   C177 1199   1.729   5.305   7.350  0.4233 -0.1238  0.4209
    2MOL   C178 1200   1.339   5.463   7.133 -0.4081 -0.2319 -0.6320
    2MOL   C179 1201   1.264   5.490   7.018 -0.0177  0.2526 -0.1895
    2MOL   C180 1202   1.046   5.569   6.665 -0.4273  0.4091  0.4166
    2MOL   C181 1203   0.929   5.507   6.619 -0.2750  0.4016  1.3845
    2MOL   C182 1204   0.664   5.257   6.754  0.0846  0.0808 -0.4721
    2MOL   C183 1205   0.567   5.171   6.815  0.6658  0.1299 -0.4794
    2MOL   H184 1206   0.403   4.878   6.771 -0.8908  0.2118 -0.0315
    2MOL   H185 1207   0.511   4.959   6.552  0.1466 -0.3068  0.2033
    2MOL   H186 1208   0.680   5.100   6.457  0.2007 -0.9963  0.3480
    2MOL   H187 1209   0.814   5.299   6.461  2.3615  1.8510 -0.0726
    2MOL   H188 1210   0.964   5.194   6.735 -0.7960 -0.1866 -1.6419
    2MOL   H189 1211   1.173   5.292   6.829  0.4546 -0.6083  0.0217
    2MOL   H190 1212   1.271   5.638   6.739  0.3400 -0.1478  0.2775
    2MOL   H191 1213   1.524   5.542   6.805  0.0673 -0.8021 -0.1236
    2MOL   H192 1214   1.646   5.442   7.013 -0.0608  0.1879 -0.5351
    2MOL   H193 1215   1.473   5.370   7.311  0.9798 -2.1046 -0.2283
    2MOL   H194 1216   1.597   5.195   7.062  0.5382  0.4160 -0.4112
    2MOL   H195 1217   1.791   5.027   7.079 -1.1573  1.4998 -2.1156
    2MOL   H196 1218   1.941   4.919   7.310 -1.1047  0.9590  1.4462
    2MOL   H197 1219   2.033   5.042   7.380  1.7528  2.9910 -1.7726
    2MOL   H198 1220   1.908   5.235   7.444 -0.5169 -1.4272  1.1709
    2MOL   H199 1221   1.707   5.377   7.427  0.5442 -1.5307  1.7741
    2MOL   H200 1222   1.283   5.440   7.222 -0.3310 -2.3157 -1.0951
    2MOL   H201 1223   1.156   5.481   7.023 -0.4257  3.6422 -1.1173
    2MOL   H202 1224   1.062   5.674   6.645 -0.8612  0.3760 -0.1195
    2MOL   H203 1225   0.858   5.560   6.559 -1.5717 -2.5810  0.1893
    2MOL   H204 1226   0.717   5.341   6.798  0.2205  0.2011 -0.8627
    2MOL   H205 1227   0.531   5.189   6.915 -1.1931 -1.3819 -0.8457
    2MOL   N206 1228   2.079   5.034   7.185  0.2135 -0.3025 -0.0182
    2MOL   C207 1229   2.185   4.945   7.172 -0.0554  0.5969  0.6391
    2MOL   C208 1230   2.161   4.806   7.180 -0.2879  0.0887 -0.2506
    2MOL   C209 1231   2.269   4.718   7.175  0.2378  0.1356 -0.6353
    2MOL   C210 1232   2.404   4.764   7.170  0.3963 -0.6847 -0.0562
    2MOL   N211 1233   2.505   4.668   7.190 -0.2571  0.1538  0.3589
    2MOL   C212 1234   2.516   4.568   7.284  0.1586 -0.4657  0.0502
    2MOL   C213 1235   2.620   4.480   7.266 -0.2145  0.3840  0.4252
    2MOL   C214 1236   2.645   4.385   7.358 -0.5032  0.1305  0.2313
    2MOL   C215 1237   2.559   4.359   7.465 -0.8526 -0.3218 -0.3151
    2MOL   N216 1238   2.578   4.247   7.552 -0.0423 -0.4370  0.1152
    2MOL   C217 1239   2.470   4.172   7.603  0.2950  0.2802  0.1853
    2MOL   C218 1240   2.344   4.156   7.535 -0.3776 -0.5287  0.6747
    2MOL   C219 1241   2.251   4.065   7.570  0.7712  1.4757  0.6358
    2MOL   C220 1242   2.279   3.993   7.686 -0.1937 -0.5413 -0.0769
    2MOL   N221 1243   2.193   3.897   7.737  0.2646 -0.2466 -0.1447
    2MOL   C222 1244   2.170   3.855   7.871  0.3336 -0.2884  0.4107
    2MOL   C223 1245   2.119   3.727   7.881  0.0140 -0.0739 -0.3353
    2MOL   C224 1246   2.106   3.662   0.026  1.0775 -0.3898 -0.0912
    2MOL   C225 1247   2.136   3.735   0.140 -0.2829 -0.1208  0.4615
    2MOL   C226 1248   2.133   3.671   0.276  0.2334  0.3470 -0.1118
    2MOL   C227 1249   2.180   3.870   0.131  0.1749 -0.4057 -0.2848
    2MOL   C228 1250   2.191   3.932   0.007  0.2604 -0.2738  0.8123
    2MOL   C229 1251   2.409   3.997   7.751 -0.6751 -0.3126  0.1917
    2MOL   C230 1252   2.497   4.099   7.717 -0.3859 -0.1218 -0.0245
    2MOL   C231 1253   2.456   4.451   7.488 -0.0012  0.7054  0.1484
    2MOL   C232 1254   2.433   4.559   7.401 -0.3862  0.5410 -0.0114
    2MOL   C233 1255   2.427   4.902   7.150  0.0518  0.1103  0.4565
    2MOL   C234 1256   2.316   4.990   7.157 -0.6468  0.0770 -0.6697
    2MOL   H235 1257   2.088   5.129   7.152  0.8383 -0.4707 -0.3465
    2MOL   H236 1258   2.059   4.774   7.190  0.7201 -3.0085  0.9303
    2MOL   H237 1259   2.248   4.613   7.183  1.3905 -0.0215  0.5114
    2MOL   H238 1260   2.572   4.667   7.115 -1.7964  4.1246 -1.2193
    2MOL   H239 1261   2.694   4.494   7.188 -1.7770  0.8875 -0.9823
    2MOL   H240 1262   2.730   4.319   7.352 -1.0720 -0.6875  1.1182
    2MOL   H241 1263   2.673   4.215   7.560  1.0757  2.3984 -1.0896
    2MOL   H242 1264   2.325   4.210   7.444 -2.5127 -1.0602  0.7878
    2MOL   H243 1265   2.156   4.051   7.521  1.8943 -1.3153 -0.8296
    2MOL   H244 1266   2.146   3.839   7.669  0.7503 -1.1746  0.2954
    2MOL   H245 1267   2.103   3.668   7.792  0.9056  0.1986 -0.6804
    2MOL   H246 1268   2.081   3.558   0.044  0.0686 -0.4205 -1.6047
    2MOL   H247 1269   2.236   3.659   0.310 -0.4207 -2.2925  1.0865
    2MOL   H248 1270   2.109   3.567   0.256 -0.8874  0.3327  1.2426
    2MOL   H249 1271   2.200   3.933   0.216  0.2863 -1.1051  0.2052
    2MOL   H250 1272   2.223   4.035   7.979  1.7564 -0.5662  2.4216
    2MOL   H251 1273   2.435   3.928   7.831 -2.3410 -0.0691  0.9711
    2MOL   H252 1274   2.596   4.108   7.760  0.5527 -1.6307 -1.8092
    2MOL   H253 1275   2.381   4.428   7.562 -0.9462  0.5182 -0.8516
    2MOL   H254 1276   2.349   4.625   7.413 -1.8875 -1.0011 -1.7203
    2MOL   H255 1277   2.527   4.934   7.124 -0.4154 -0.0806 -1.6203
    2MOL   H256 1278   2.338   5.095   7.146  0.0177 -0.1219 -1.3154
    2MOL   N257 1279   2.066   3.739   0.387 -0.2318  0.2381  0.9163
    2MOL   C258 1280   1.929   3.736   0.392  0.7366  0.3060  0.8920
    2MOL   C259 1281   1.845   3.669   0.293  0.2465  0.2700 -0.4316
    2MOL   C260 1282   1.704   3.658   0.311  0.1441 -0.4119  0.7667
    2MOL   C261 1283   1.651   3.743   0.406  0.8569  0.0959  0.4329
    2MOL   N262 1284   1.516   3.745   0.436  0.4172  0.0706 -0.3588
    2MOL   C263 1285   1.410   3.718   0.350 -0.2536  0.0711  0.1021
    2MOL   C264 1286   1.427   3.749   0.212 -0.4055 -0.0074  0.7979
    2MOL   C265 1287   1.314   3.740   0.126  0.1684 -0.2566  0.0991
    2MOL   C266 1288   1.186   3.696   0.179  0.4233 -0.0819  0.4753
    2MOL   N267 1289   1.073   3.690   0.097  0.1262 -0.4850  0.0636
    2MOL   C268 1290   0.941   3.715   0.136 -0.9707 -0.7883  1.3037
    2MOL   C269 1291   0.904   3.800   0.239  0.5419 -0.3444 -0.2546
    2MOL   C270 1292   0.766   3.824   0.261  0.5199 -0.0722 -0.2951
    2MOL   C271 1293   0.664   3.754   0.185 -0.0993 -0.0082 -0.0172
    2MOL   N272 1294   0.530   3.794   0.206  0.2195 -0.3526  0.8715
    2MOL   C273 1295   0.415   3.732   0.152  0.5276 -0.1484  0.7090
    2MOL   C274 1296   0.384   3.598   0.177  0.5562  0.6316  0.7435
    2MOL   C275 1297   0.275   3.535   0.103 -0.5661  0.1161  0.2368
    2MOL   C276 1298   0.195   3.611   0.019  0.6035  0.1036  0.3676
    2MOL   C277 1299   0.085   3.542   7.920 -0.4390 -0.0689  0.0032
    2MOL   C278 1300   0.223   3.748   0.004  0.4141 -0.5550 -0.1874
    2MOL   C279 1301   0.330   3.808   0.070 -0.4451 -0.0660  0.2853
    2MOL   C280 1302   0.704   3.662   0.086  0.2967  0.2907 -0.1371
    2MOL   C281 1303   0.839   3.645   0.063 -0.5335 -0.6109 -0.6412
    2MOL   C282 1304   1.175   3.688   0.320  0.0624 -0.0984 -0.0519
    2MOL   C283 1305   1.283   3.691   0.404 -0.1902  0.6232 -0.2878
    2MOL   C284 1306   1.730   3.807   0.499 -0.6557 -0.4045 -0.1204
    2MOL   C285 1307   1.872   3.806   0.497 -0.6576  0.1335 -0.1881
    2MOL   H286 1308   2.123   3.808   0.435  1.1832  0.7938 -1.4851
    2MOL   H287 1309   1.900   3.623   0.213  2.2656  0.9252  0.5432
    2MOL   H288 1310   1.640   3.595   0.250 -0.5475  0.2058  0.8538
    2MOL   H289 1311   1.503   3.779   0.530 -1.4554 -1.4687 -0.0178
    2MOL   H290 1312   1.520   3.788   0.175 -0.2908 -0.3681  0.6997
    2MOL   H291 1313   1.325   3.757   0.020  0.7544 -0.6015  0.1032
    2MOL   H292 1314   1.092   3.642   0.010  0.3058  0.9444 -0.7027
    2MOL   H293 1315   0.968   3.847   0.312 -0.0932  1.6258 -0.9198
    2MOL   H294 1316   0.738   3.888   0.343  1.1090  0.9463 -0.8783
    2MOL   H295 1317   0.514   3.876   0.263 -0.2786 -0.3730  0.7628
    2MOL   H296 1318   0.446   3.542   0.246  0.8159 -1.3703 -1.0453
    2MOL   H297 1319   0.260   3.428   0.110 -0.8609  0.1763  0.5195
    2MOL   H298 1320   0.053   3.614   7.844  0.4640  1.6165  1.1876
    2MOL   H299 1321   0.011   3.530   0.016 -0.4840  0.8706  0.1160
    2MOL   H300 1322   0.164   3.807   7.917  1.1585  1.2298  0.6491
    2MOL   H301 1323   0.358   3.912   0.063  3.1267 -0.9002  0.9274
    2MOL   H302 1324   0.630   3.606   0.031  1.7475 -0.2087 -1.6264
    2MOL   H303 1325   0.868   3.568   7.975 -0.3396 -0.7553 -0.4011
    2MOL   H304 1326   1.084   3.660   0.372 -0.5623  1.2311 -0.4185
    2MOL   H305 1327   1.282   3.691   0.512  1.0200  0.0663 -0.2693
    2MOL   H306 1328   1.694   3.874   0.576  0.0625  0.2572 -0.3549
    2MOL   H307 1329   1.937   3.854   0.569 -0.4445  1.3054 -1.1394
    2MOL   N308 1330   0.117   3.412   7.859  0.0529  0.0705 -0.5229
    2MOL   C309 1331   0.021   3.341   7.782  0.0871  0.3060 -0.4948
    2MOL   C310 1332   7.865   3.345   7.808  0.5109 -0.1484 -0.4441
    2MOL   C311 1333   7.774   3.261   7.738  0.6089  0.7024  0.2901
    2MOL   C312 1334   7.826   3.190   7.629 -0.5494 -0.1224  0.4983
    2MOL   N313 1335   7.745   3.107   7.546  0.0115 -0.1826 -0.2776
    2MOL   C314 1336   7.671   2.993   7.587  0.3836 -0.0910  0.0299
    2MOL   C315 1337   7.592   2.933   7.488  0.3275  0.5104 -0.6536
    2MOL   C316 1338   7.514   2.825   7.532 -0.6610 -0.9310  0.1873
    2MOL   C317 1339   7.498   2.788   7.665  0.0736  0.2273  0.1812
    2MOL   N318 1340   7.400   2.704   7.709  0.1499 -0.4364  0.1170
    2MOL   C319 1341   7.385   2.569   7.679 -0.3553 -0.4764  0.0921
    2MOL   C320 1342   7.457   2.505   7.578 -0.2031 -0.5053 -0.2526
    2MOL   C321 1343   7.449   2.370   7.556  0.4316 -0.0566 -0.0059
    2MOL   C322 1344   7.350   2.295   7.616 -0.5644  0.2084 -0.1640
    2MOL   N323 1345   7.319   2.163   7.572  0.0926 -0.5339 -0.0581
    2MOL   C324 1346   7.407   2.068   7.536 -0.4514  0.1468  0.2791
    2MOL   C325 1347   7.362   1.958   7.464  0.3855 -0.0221 -0.0570
    2MOL   C326 1348   7.443   1.857   7.420 -0.2410  0.4730  0.4426
    2MOL   C327 1349   7.582   1.866   7.440 -0.2384 -0.6605 -0.1378
    2MOL   C328 1350   7.675   1.754   7.398 -0.8432  0.1461  0.1122
    2MOL   C329 1351   7.630   1.967   7.527 -0.5323 -0.4698  0.7206
    2MOL   C330 1352   7.545   2.066   7.565  0.3170 -0.2547  0.1013
    2MOL   C331 1353   7.258   2.361   7.697 -0.2550  1.0197  0.3612
    2MOL   C332 1354   7.274   2.497   7.731  0.7696  0.6076  0.0029
    2MOL   C333 1355   7.586   2.844   7.756  0.1941 -0.5912  0.6158
    2MOL   C334 1356   7.676   2.943   7.719 -1.0928 -0.2470  0.5564
    2MOL   C335 1357   7.964   3.183   7.599  0.1512  0.5826 -0.2162
    2MOL   C336 1358   0.068   3.253   7.687 -0.1800 -0.5288  0.4897
    2MOL   H337 1359   0.216   3.401   7.843  0.5221  1.0286  1.5445
    2MOL   H338 1360   7.825   3.408   7.886 -1.7754  1.6204 -2.9502
    2MOL   H339 1361   7.669   3.256   7.760  0.5456  0.9223  0.0331
    2MOL   H340 1362   7.789   3.102   7.455  0.0388  0.6150 -0.3110
    2MOL   H341 1363   7.575   2.972   7.389 -0.0106  1.7158 -0.1224
    2MOL   H342 1364   7.452   2.782   7.455 -0.8877  0.8698 -0.6726
    2MOL   H343 1365   7.355   2.729   7.796  1.7238 -1.4815  1.2472
    2MOL   H344 1366   7.537   2.556   7.527 -0.5025 -0.7377 -0.9544
    2MOL   H345 1367   7.510   2.329   7.477  0.4864  0.0306 -0.0102
    2MOL   H346 1368   7.220   2.140   7.566 -0.3355  0.0528  3.6032
    2MOL   H347 1369   7.260   1.947   7.429 -0.4126  0.8803  1.8783
    2MOL   H348 1370   7.398   1.777   7.363  0.3066  0.5356 -0.0824
    2MOL   H349 1371   7.625   1.706   7.314 -1.7523  0.5282  0.4212
    2MOL   H350 1372   7.686   1.673   7.470 -0.5052  0.4441  0.4029
    2MOL   H351 1373   7.733   1.965   7.559 -0.5756  1.5374  1.0391
    2MOL   H352 1374   7.580   2.146   7.629 -0.1792 -1.3014  1.7360
    2MOL   H353 1375   7.166   2.322   7.738  0.2272  0.2473  0.7057
    2MOL   H354 1376   7.190   2.531   7.790  0.7182  0.0810  0.2354
    2MOL   H355 1377   7.582   2.814   7.859  0.8727 -0.8314  0.5756
    2MOL   H356 1378   7.738   2.985   7.796  2.8151 -0.7124 -2.1745
    2MOL   H357 1379   0.038   3.130   7.522 -0.2074 -0.8884  0.5175
    2MOL   H358 1380   0.174   3.237   7.672 -0.1828  1.0215 -1.3580
    2MOL   N359 1381   7.805   1.801   7.357  0.4026  0.1711  0.2960
    2MOL   C360 1382   7.911   1.747   7.430 -0.0690  0.1347  0.5599
    2MOL   C361 1383   7.947   1.613   7.416 -0.4855 -0.1803 -0.0856
    2MOL   C362 1384   0.072   1.565   7.493 -0.5492  0.3554  0.7336
    2MOL   C363 1385   0.131   1.643   7.596 -0.1610  0.0563 -0.0346
    2MOL   N364 1386   0.234   1.588   7.672  0.0019 -0.3228 -0.2801
    2MOL   C365 1387   0.245   1.585   7.811 -0.6542 -1.0467 -0.1479
    2MOL   C366 1388   0.154   1.655   7.896  0.2862  0.2990  0.0582
    2MOL   C367 1389   0.156   1.630   0.052 -0.6615 -0.3872  0.6443
    2MOL   C368 1390   0.259   1.566   0.114  0.3351  1.0692 -0.2163
    2MOL   N369 1391   0.285   1.566   0.250  0.1394  0.3398  0.4501
    2MOL   C370 1392   0.206   1.629   0.347 -0.0789 -0.1597 -0.6870
    2MOL   C371 1393   0.070   1.591   0.374 -0.4693  0.3881  0.1436
    2MOL   C372 1394   7.968   1.663   0.464  0.1253  0.6093 -0.0734
    2MOL   C373 1395   0.041   1.764   0.537  0.7239  0.4234 -0.6150
    2MOL   N374 1396   7.936   1.836   0.614 -0.5397  0.6048 -0.1144
    2MOL   C375 1397   7.911   1.970   0.592 -0.0909 -0.3085 -0.3986
    2MOL   C376 1398   7.880   2.051   0.703 -0.0852  0.2575  0.3282
    2MOL   C377 1399   7.856   2.187   0.682 -0.1310  0.5675  0.2044
    2MOL   C378 1400   7.891   2.245   0.558 -0.3128  0.6129 -0.1679
    2MOL   C379 1401   7.880   2.397   0.539  0.4858 -0.5747 -0.1214
    2MOL   C380 1402   7.933   2.163   0.450  0.0195 -0.7140  0.5652
    2MOL   C381 1403   7.927   2.025   0.458  0.7051  0.2592 -0.6079
    2MOL   C382 1404   0.174   1.803   0.516  0.1689  0.1571 -0.1473
    2MOL   C383 1405   0.264   1.734   0.429  0.0040 -0.1688  0.5475
    2MOL   C384 1406   0.351   1.501   0.026  0.9380 -0.5065  0.4066
    2MOL   C385 1407   0.341   1.503   7.868 -0.2515  0.7636 -0.2074
    2MOL   C386 1408   0.091   1.778   7.608  0.4152  0.3890 -0.3942
    2MOL   C387 1409   0.002   1.829   7.516  0.4683  0.3095 -0.1157
    2MOL   H388 1410   7.805   1.901   7.366 -0.7649  0.3453 -1.4129
    2MOL   H389 1411   7.895   1.548   7.347  1.2341  0.4042 -1.9802
    2MOL   H390 1412   0.116   1.467   7.481  2.1471  1.6223 -0.2322
    2MOL   H391 1413   0.294   1.525   7.620  0.7278  2.8217 -3.4173
    2MOL   H392 1414   0.081   1.726   7.862 -1.7026 -2.0870 -0.8119
    2MOL   H393 1415   0.093   1.692   0.115 -1.3658  0.5008 -0.8984
    2MOL   H394 1416   0.368   1.517   0.278  0.2666 -0.7396 -1.6965
    2MOL   H395 1417   0.035   1.504   0.320 -3.8386  2.3799 -0.9720
    2MOL   H396 1418   7.864   1.637   0.479  0.4263  0.2332  1.5183
    2MOL   H397 1419   7.955   1.819   0.712  1.8630  0.5786 -0.5544
    2MOL   H398 1420   7.857   2.001   0.796 -0.8374 -0.2539 -0.1300
    2MOL   H399 1421   7.827   2.246   0.767 -0.3900  1.3724 -0.4357
    2MOL   H400 1422   7.877   2.442   0.638 -0.3266  1.6861 -1.1422
    2MOL   H401 1423   7.788   2.407   0.480 -1.6551 -1.5101  2.9400
    2MOL   H402 1424   7.973   2.216   0.365 -2.6745 -0.7658 -0.7911
    2MOL   H403 1425   7.953   1.957   0.379  0.7194  0.4892 -0.8006
    2MOL   H404 1426   0.210   1.892   0.564  0.4590  0.7115 -1.3747
    2MOL   H405 1427   0.362   1.774   0.410 -0.2305  0.0342 -0.2932
    2MOL   H406 1428   0.435   1.448   0.068  1.7341 -1.2885 -2.0707
    2MOL   H407 1429   0.410   1.442   7.811  1.5965  0.9459  1.7593
    2MOL   H408 1430   0.132   1.846   7.682  2.6099  0.0805 -1.2941
    2MOL   H409 1431   7.958   1.933   7.526 -0.7350 -0.0084  0.1187
    2MOL   N410 1432   0.013   2.456   0.479 -0.4725 -0.3902  0.2387
    2MOL   C411 1433   0.023   2.592   0.443 -0.0605  0.2631  0.6216
    2MOL   C412 1434   7.893   2.675   0.429 -0.1346 -0.2482  0.3311
    2MOL   C413 1435   7.904   2.804   0.378  0.2136  0.1352  0.4117
    2MOL   C414 1436   0.045   2.848   0.323 -0.6411  0.3343 -0.3112
    2MOL   N415 1437   0.064   2.975   0.268 -0.3063  0.6856 -0.7027
    2MOL   C416 1438   7.977   3.086   0.296  0.3631  0.4304  0.6953
    2MOL   C417 1439   0.007   3.187   0.200  0.0502  0.0310 -0.7230
    2MOL   C418 1440   7.926   3.311   0.219  0.1945  1.2142 -0.4448
    2MOL   C419 1441   7.839   3.329   0.324 -0.4400 -0.2464  0.3225
    2MOL   N420 1442   7.772   3.448   0.348 -0.0784  0.3899 -0.1992
    2MOL   C421 1443   7.837   3.573   0.367 -0.0126 -0.2894  0.1991
    2MOL   C422 1444   7.751   3.680   0.410  0.3366  0.2897  0.3014
    2MOL   C423 1445   7.804   3.811   0.405 -0.7606  0.2534 -0.3824
    2MOL   C424 1446   7.942   3.842   0.376  0.3103 -0.3349  0.0495
    2MOL   N425 1447   0.017   3.971   0.382  0.0806 -0.2708 -0.1310
    2MOL   C426 1448   0.153   4.007   0.364  0.2827  0.5190  0.4055
    2MOL   C427 1449   0.250   3.965   0.460  0.4028  0.4052  0.1811
    2MOL   C428 1450   0.385   4.009   0.445  0.1089  0.2243 -0.4670
    2MOL   C429 1451   0.423   4.095   0.337 -0.7260  0.6951  0.0981
    2MOL   C430 1452   0.560   4.155   0.338  0.1860 -0.2565  0.4087
    2MOL   C431 1453   0.323   4.145   0.249 -0.7237  0.6882 -0.4160
    2MOL   C432 1454   0.192   4.094   0.258 -0.1913  0.1326  0.9956
    2MOL   C433 1455   0.036   3.732   0.338 -0.9292 -0.5463  0.5906
    2MOL   C434 1456   7.968   3.598   0.334  0.4273 -1.0267  0.3026
    2MOL   C435 1457   7.833   3.231   0.422  0.4014 -0.1384 -0.1326
    2MOL   C436 1458   7.906   3.115   0.411  0.6696  0.0643  0.0412
    2MOL   C437 1459   0.160   2.764   0.339  0.1619  0.4456  0.5725
    2MOL   C438 1460   0.149   2.641   0.399  0.5683  0.3705 -0.2337
    2MOL   H439 1461   0.093   2.408   0.519 -0.3732  0.0311  0.5573
    2MOL   H440 1462   7.797   2.629   0.449 -0.9663  1.9721  1.5958
    2MOL   H441 1463   7.815   2.864   0.365 -0.6200 -1.3276 -0.8417
    2MOL   H442 1464   0.143   2.982   0.206 -1.0563  0.9694 -1.6298
    2MOL   H443 1465   0.066   3.169   0.111  1.9938 -0.7463  0.6742
    2MOL   H444 1466   7.932   3.373   0.130  0.7207  1.7134 -0.0590
    2MOL   H445 1467   7.698   3.436   0.416 -0.4551  0.0364 -0.6715
    2MOL   H446 1468   7.646   3.660   0.425  1.0191 -3.3246  0.5453
    2MOL   H447 1469   7.733   3.891   0.418  0.8148  1.7138 -0.5719
    2MOL   H448 1470   7.923   4.032   0.408 -0.2493 -1.7006  2.4606
    2MOL   H449 1471   0.219   3.901   0.542  3.1737 -0.6943  0.4360
    2MOL   H450 1472   0.457   3.972   0.517  0.1220 -1.7599 -1.4520
    2MOL   H451 1473   0.627   4.069   0.342  0.7419 -0.0004 -2.4342
    2MOL   H452 1474   0.567   4.220   0.425 -1.6672 -0.2379  0.5633
    2MOL   H453 1475   0.351   4.215   0.171 -0.3579  1.3687  0.3250
    2MOL   H454 1476   0.116   4.130   0.190  1.5820 -1.3296 -1.8258
    2MOL   H455 1477   0.142   3.746   0.318 -0.8260  0.2544  1.6610
    2MOL   H456 1478   0.053   3.524   0.294  0.7266 -1.0968  0.9161
    2MOL   H457 1479   7.774   3.234   0.513  1.2976  2.9837  0.4023
    2MOL   H458 1480   7.893   3.042   0.489  0.3123 -0.9004 -0.9021
    2MOL   H459 1481   0.257   2.800   0.307 -0.7469  3.1156  0.6858
    2MOL   H460 1482   0.241   2.584   0.405  0.1559 -0.1797  1.2230
    2MOL   N461 1483   0.584   4.228   0.218  0.4495 -0.3870 -1.0597
    2MOL   C462 1484   0.695   4.201   0.138  0.4114  0.7504  0.2553
    2MOL   C463 1485   0.685   4.197   7.981  0.5263  0.5181  0.5601
    2MOL   C464 1486   0.798   4.161   7.906  0.7643 -0.2475  0.2494
    2MOL   C465 1487   0.923   4.138   7.967  0.1458 -0.1673 -0.1666
    2MOL   N466 1488   1.019   4.079   7.893 -0.6950 -0.2184 -0.0481
    2MOL   C467 1489   1.012   3.965   7.811  0.6044 -0.1489 -0.2555
    2MOL   C468 1490   1.105   3.931   7.716 -0.2067  0.0071  0.2407
    2MOL   C469 1491   1.093   3.816   7.635 -0.0692  0.3557 -0.1264
    2MOL   C470 1492   0.976   3.738   7.643  0.2866  0.1121 -0.7766
    2MOL   N471 1493   0.962   3.631   7.552 -0.0122 -0.0566  0.2631
    2MOL   C472 1494   0.845   3.562   7.537  0.3292  0.2580 -0.2476
    2MOL   C473 1495   0.745   3.626   7.457  0.5411  0.3884 -0.4032
    2MOL   C474 1496   0.622   3.545   7.439 -0.8163 -0.4213 -0.3713
    2MOL   C475 1497   0.600   3.423   7.502 -0.0007  0.8220 -0.4072
    2MOL   N476 1498   0.477   3.360   7.489 -0.4749 -0.2996 -0.0641
    2MOL   C477 1499   0.346   3.420   7.475  0.1988  0.8014 -0.6311
    2MOL   C478 1500   0.310   3.535   7.550  0.6023 -0.4964 -0.5037
    2MOL   C479 1501   0.181   3.590   7.523 -0.1764  0.5232 -0.0999
    2MOL   C480 1502   0.095   3.534   7.433 -0.3287  0.4774 -0.6089
    2MOL   C481 1503   7.942   3.596   7.398 -0.2082  0.2234 -0.9139
    2MOL   C482 1504   0.135   3.419   7.358  0.4537  0.4251 -0.5204
    2MOL   C483 1505   0.257   3.361   7.380 -0.3104 -0.5592 -0.0222
    2MOL   C484 1506   0.707   3.363   7.573  0.2973  0.3459 -0.4323
    2MOL   C485 1507   0.830   3.433   7.591  0.1572 -0.5507 -0.1846
    2MOL   C486 1508   0.868   3.778   7.724  0.0632 -0.4653 -0.0883
    2MOL   C487 1509   0.890   3.889   7.809  0.0326  0.0160 -0.3281
    2MOL   C488 1510   0.936   4.156   0.122  0.1045  0.5803 -1.3629
    2MOL   C489 1511   0.825   4.188   0.200  0.1606 -0.4279  0.3622
    2MOL   H490 1512   0.499   4.261   0.174  0.0942  0.5090  0.2607
    2MOL   H491 1513   0.587   4.221   7.942  0.1207 -1.2215  0.4249
    2MOL   H492 1514   0.781   4.161   7.799  1.5781  0.8928  0.1146
    2MOL   H493 1515   1.114   4.080   7.927 -0.4991  1.6160 -0.5764
    2MOL   H494 1516   1.197   3.987   7.715 -0.2342  0.0882 -2.2180
    2MOL   H495 1517   1.170   3.803   7.561 -1.4405 -1.5364 -1.2654
    2MOL   H496 1518   1.012   3.648   7.467  1.5778  0.8301  1.3586
    2MOL   H497 1519   0.763   3.715   7.399  0.4887  0.2378 -0.6492
    2MOL   H498 1520   0.544   3.581   7.374 -0.3736  0.1404 -0.5908
    2MOL   H499 1521   0.469   3.267   7.528 -0.4066 -0.4049 -0.2985
    2MOL   H500 1522   0.380   3.570   7.625  1.2309 -1.0966 -0.7972
    2MOL   H501 1523   0.157   3.675   7.585  0.9055  0.2656  0.6891
    2MOL   H502 1524   7.943   3.630   7.295 -0.2620  0.4780 -0.8322
    2MOL   H503 1525   7.906   3.674   7.465 -0.1840 -1.8030  1.5258
    2MOL   H504 1526   0.078   3.376   7.276 -1.9567  0.6137  1.0115
    2MOL   H505 1527   0.284   3.280   7.312 -0.2590 -1.5539  1.1662
    2MOL   H506 1528   0.691   3.270   7.627 -1.2993 -0.4265 -2.1700
    2MOL   H507 1529   0.907   3.399   7.659  0.9855 -0.0214 -0.8390
    2MOL   H508 1530   0.771   3.731   7.731 -0.7427  0.9843 -1.1003
    2MOL   H509 1531   0.814   3.905   7.884  0.0306 -1.4701  0.0011
    2MOL   H510 1532   1.032   4.152   0.170 -0.0309 -0.0107 -1.1344
    2MOL   H511 1533   0.831   4.192   0.307 -0.4074 -2.4931  0.4816
    2MOL   N512 1534   7.838   3.499   7.412 -0.3090  0.3973  0.1884
    2MOL   C513 1535   7.709   3.539   7.396  1.1974 -0.4788 -0.1616
    2MOL   C514 1536   7.612   3.450   7.454 -1.1653 -0.1168 -0.0271
    2MOL   C515 1537   7.476   3.486   7.466 -0.8074  0.4160 -0.2700
    2MOL   C516 1538   7.434   3.607   7.403 -0.2558 -0.4610 -0.0190
    2MOL   N517 1539   7.299   3.647   7.416 -0.6735 -0.2190 -0.3466
    2MOL   C518 1540   7.195   3.562   7.379  0.8020  0.1634 -0.3346
    2MOL   C519 1541   7.069   3.588   7.437 -1.1758  0.5031  0.2964
    2MOL   C520 1542   6.973   3.497   7.408 -0.4585 -0.0852 -0.1558
    2MOL   C521 1543   7.002   3.386   7.326  0.2861  0.7160 -0.3481
    2MOL   N522 1544   6.906   3.284   7.307  0.4027  0.3745  0.1407
    2MOL   C523 1545   6.785   3.262   7.376  0.2573 -0.4018  0.4276
    2MOL   C524 1546   6.686   3.360   7.363 -0.5928 -0.7524 -0.1748
    2MOL   C525 1547   6.572   3.360   7.437 -1.0561  0.1785 -0.0052
    2MOL   C526 1548   6.548   3.246   7.519 -0.2883 -0.2996 -0.8608
    2MOL   N527 1549   6.421   3.229   7.579  0.3760 -0.7019 -0.3234
    2MOL   C528 1550   6.304   3.217   7.506 -0.6815  0.6300 -0.0935
    2MOL   C529 1551   6.307   3.150   7.386  0.8095  0.2403  0.1409
    2MOL   C530 1552   6.192   3.099   7.329  0.0459 -0.0626 -0.0517
    2MOL   C531 1553   6.073   3.136   7.389  0.1388 -0.6698 -0.1534
    2MOL   C532 1554   5.940   3.108   7.315  0.1039  0.4690  0.3432
    2MOL   C533 1555   6.067   3.208   7.512  0.2022  0.0650  0.8329
    2MOL   C534 1556   6.181   3.257   7.565  0.5770  0.7945  0.8491
    2MOL   C535 1557   6.643   3.142   7.530 -0.0278 -0.1472 -0.1831
    2MOL   C536 1558   6.758   3.149   7.457  0.6516  0.0625 -0.0460
    2MOL   C537 1559   7.124   3.373   7.256 -0.0318  0.0246 -0.3628
    2MOL   C538 1560   7.221   3.467   7.279 -0.2632 -0.5242 -0.6636
    2MOL   C539 1561   7.525   3.687   7.339 -0.1216  0.0307 -0.5445
    2MOL   C540 1562   7.661   3.654   7.334 -0.1713  0.2189  0.1256
    2MOL   H541 1563   7.867   3.406   7.436  1.7712  1.4382  1.9541
    2MOL   H542 1564   7.660   3.367   7.504 -0.6914  1.5330  2.3744
    2MOL   H543 1565   7.413   3.417   7.519  0.2192 -0.2212  0.1347
    2MOL   H544 1566   7.284   3.747   7.414  0.3970 -0.0288  0.6417
    2MOL   H545 1567   7.045   3.669   7.503  1.6319  1.1376  0.6176
    2MOL   H546 1568   6.877   3.494   7.457 -0.1339 -1.5599  0.4308
    2MOL   H547 1569   6.937   3.197   7.267 -0.7375 -0.7594  1.6355
    2MOL   H548 1570   6.701   3.445   7.298  0.5910 -1.1542 -0.4388
    2MOL   H549 1571   6.501   3.441   7.428  0.0571  0.8926 -2.8308
    2MOL   H550 1572   6.417   3.173   7.663 -3.1900  1.6109  1.1929
    2MOL   H551 1573   6.402   3.139   7.335 -0.1060  0.0961 -1.5744
    2MOL   H552 1574   6.201   3.039   7.240 -1.8366 -0.1815 -0.1736
    2MOL   H553 1575   5.947   3.147   7.214 -0.9902 -1.2050 -0.3971
    2MOL   H554 1576   5.865   3.165   7.370  0.4016 -0.1240  1.3864
    2MOL   H555 1577   5.975   3.231   7.564  0.6468  0.9773  1.2408
    2MOL   H556 1578   6.178   3.302   7.663 -0.0702 -0.7529  1.5538
    2MOL   H557 1579   6.620   3.056   7.591  1.3944 -0.6794 -0.3922
    2MOL   H558 1580   6.824   3.066   7.479 -1.2550 -1.1857  1.1629
    2MOL   H559 1581   7.155   3.290   7.193 -0.7877 -1.2554  0.9220
    2MOL   H560 1582   7.315   3.459   7.225 -1.0063  0.4296 -2.1337
    2MOL   H561 1583   7.502   3.785   7.300 -1.1384  0.4352  1.0374
    2MOL   H562 1584   7.725   3.726   7.283  0.3037 -0.4029 -0.1667
    2MOL   N563 1585   5.905   2.969   7.309  0.3010  0.0544 -0.1431
    2MOL   C564 1586   5.827   2.931   7.194  0.2611  0.7215 -0.1572
    2MOL   C565 1587   5.891   2.950   7.067  0.1063  0.1102  0.1682
    2MOL   C566 1588   5.818   2.902   6.954 -0.0168  0.2661 -0.1828
    2MOL   C567 1589   5.674   2.863   6.964 -1.3120  0.3029 -0.1614
    2MOL   N568 1590   5.590   2.822   6.860 -0.3778 -0.5899  0.2460
    2MOL   C569 1591   5.612   2.825   6.715 -0.7682  0.2056 -0.8127
    2MOL   C570 1592   5.737   2.781   6.668 -0.1436 -0.4514 -0.3922
    2MOL   C571 1593   5.769   2.802   6.533  0.1415 -0.2387 -0.2064
    2MOL   C572 1594   5.669   2.858   6.449 -0.0402  0.5109  0.1848
    2MOL   N573 1595   5.704   2.893   6.318  0.6394 -0.0240  0.2817
    2MOL   C574 1596   5.805   2.832   6.246  0.2347  0.1094 -0.5728
    2MOL   C575 1597   5.893   2.908   6.175 -0.1288  0.3590  0.2286
    2MOL   C576 1598   5.990   2.850   6.095  0.1632 -0.6451  0.7154
    2MOL   C577 1599   6.004   2.707   6.105  0.7873  0.3252  0.1184
    2MOL   N578 1600   6.107   2.637   6.040 -0.0319  0.2488  0.1398
    2MOL   C579 1601   6.118   2.633   5.904  0.4540 -0.1601 -0.6994
    2MOL   C580 1602   6.055   2.722   5.816 -0.0486  0.1794  0.5684
    2MOL   C581 1603   6.077   2.716   5.675  0.1476  0.1267 -1.2352
    2MOL   C582 1604   6.167   2.624   5.622 -0.5787 -0.6305  0.4941
    2MOL   C583 1605   6.191   2.612   5.475 -0.3654 -0.8830 -0.0218
    2MOL   C584 1606   6.223   2.525   5.708  0.2167 -0.0997  0.1347
    2MOL   C585 1607   6.207   2.540   5.846 -0.4412  0.0793  0.4324
    2MOL   C586 1608   5.910   2.629   6.177 -0.0564  0.7579  0.8276
    2MOL   C587 1609   5.804   2.696   6.234 -0.0145  0.1346  0.1147
    2MOL   C588 1610   5.545   2.903   6.502  0.4525 -0.3750 -0.2048
    2MOL   C589 1611   5.522   2.890   6.636  0.6811  0.1309  0.4666
    2MOL   C590 1612   5.619   2.849   7.092 -0.3674  0.3626  0.5335
    2MOL   C591 1613   5.695   2.879   7.205 -0.0411  0.3703  1.0192
    2MOL   H592 1614   5.865   2.940   7.398 -1.3881  0.5130 -0.7327
    2MOL   H593 1615   5.990   2.992   7.055 -0.2834  2.1510  3.4642
    2MOL   H594 1616   5.871   2.896   6.860 -3.1789  0.4706 -2.0551
    2MOL   H595 1617   5.495   2.803   6.886 -0.8572  0.0675 -0.9862
    2MOL   H596 1618   5.807   2.734   6.736 -1.2581 -0.6988  0.6088
    2MOL   H597 1619   5.869   2.776   6.502  1.1447  1.7375  1.2528
    2MOL   H598 1620   5.654   2.974   6.285  0.4987  0.1431  0.8910
    2MOL   H599 1621   5.888   3.015   6.188 -0.0848  0.5778 -1.5520
    2MOL   H600 1622   6.044   2.905   6.019  0.2995 -0.7598  0.7288
    2MOL   H601 1623   6.151   2.567   6.099  1.0695 -0.2082 -1.1899
    2MOL   H602 1624   5.971   2.778   5.852 -0.6285 -0.0568 -0.4008
    2MOL   H603 1625   6.020   2.772   5.602 -2.2961  0.1898  0.6710
    2MOL   H604 1626   6.100   2.577   5.427 -1.9414  1.5195  1.0975
    2MOL   H605 1627   6.272   2.540   5.462 -1.5574 -1.7332 -2.9879
    2MOL   H606 1628   6.289   2.446   5.676  0.1048  0.0182 -0.3829
    2MOL   H607 1629   6.257   2.471   5.911  0.5414  1.4264  1.1380
    2MOL   H608 1630   5.915   2.521   6.170 -1.5260  0.8381 -2.6698
    2MOL   H609 1631   5.737   2.641   6.298  1.6770 -1.5892  0.4450
    2MOL   H610 1632   5.474   2.958   6.443 -0.0712 -2.5689 -1.6762
    2MOL   H611 1633   5.445   2.950   6.681  1.7504  0.0067  2.5010
    2MOL   H612 1634   5.519   2.809   7.095 -0.8086  1.4311  0.0087
    2MOL   H613 1635   5.670   2.854   7.307  0.3924 -1.1246  0.7815
    2MOL   N614 1636   6.236   2.733   5.410  0.7027  0.7384  0.6111
    2MOL   C615 1637   6.167   2.800   5.312 -0.1920  0.3789 -0.1466
    2MOL   C616 1638   6.239   2.856   5.207  0.3498 -1.1328  0.1776
    2MOL   C617 1639   6.178   2.938   5.114  0.0856  0.1419  0.8897
    2MOL   C618 1640   6.040   2.970   5.119 -0.3879 -0.4302  0.3226
    2MOL   N619 1641   5.982   3.055   5.020  0.6676 -0.2585  0.5958
    2MOL   C620 1642   5.864   3.036   4.951 -0.3074  0.2445  0.6450
    2MOL   C621 1643   5.783   3.148   4.925 -0.2325  0.1102 -0.2988
    2MOL   C622 1644   5.665   3.132   4.856  0.2360 -0.5932  0.4551
    2MOL   C623 1645   5.623   3.009   4.807  0.3501  0.0666  0.5531
    2MOL   N624 1646   5.519   3.000   4.712 -0.3555 -0.6056 -0.3999
    2MOL   C625 1647   5.479   3.102   4.623 -0.7213 -0.1119  0.5100
    2MOL   C626 1648   5.570   3.193   4.566  0.4339  0.0098 -0.0762
    2MOL   C627 1649   5.535   3.302   4.487  0.1188  0.4446  0.8596
    2MOL   C628 1650   5.403   3.323   4.458  0.3964  0.3766 -0.6714
    2MOL   N629 1651   5.379   3.426   4.363 -0.1239  0.0332  0.2241
    2MOL   C630 1652   5.258   3.459   4.299  0.5174 -0.6432  0.1856
    2MOL   C631 1653   5.138   3.483   4.376  0.3499 -0.6296  0.4090
    2MOL   C632 1654   5.024   3.539   4.315  0.1814  0.7861  1.0777
    2MOL   C633 1655   5.020   3.566   4.174  0.7293  0.0584  1.2279
    2MOL   C634 1656   4.893   3.623   4.100 -0.1782  0.1755 -0.1610
    2MOL   C635 1657   5.142   3.536   4.101  0.4423 -0.3916 -0.1868
    2MOL   C636 1658   5.261   3.488   4.160  0.2788 -0.6835 -0.2170
    2MOL   C637 1659   5.304   3.225   4.496 -0.1966 -0.2433 -0.3922
    2MOL   C638 1660   5.345   3.114   4.574  0.0250  0.3534 -0.2604
    2MOL   C639 1661   5.694   2.896   4.838 -0.1339  0.2467  0.9073
    2MOL   C640 1662   5.817   2.912   4.910  0.1401  0.6668 -0.0175
    2MOL   C641 1663   5.967   2.904   5.216 -0.9043 -0.2466 -0.2580
    2MOL   C642 1664   6.027   2.816   5.312 -0.2173  0.0933 -0.2875
    2MOL   H643 1665   6.333   2.750   5.431  0.5861 -0.9611  2.8185
    2MOL   H644 1666   6.345   2.844   5.192  0.2405 -1.7911 -0.1079
    2MOL   H645 1667   6.241   2.977   5.035 -0.2304  2.2384  1.6410
    2MOL   H646 1668   6.033   3.140   5.001 -2.3796  1.9733  2.0935
    2MOL   H647 1669   5.801   3.245   4.969  1.1526 -1.6236  3.1305
    2MOL   H648 1670   5.597   3.216   4.856 -1.3079 -1.8039  0.1451
    2MOL   H649 1671   5.456   2.924   4.732  0.4716 -0.7593  1.6930
    2MOL   H650 1672   5.674   3.174   4.587  0.4536  0.2326  0.0243
    2MOL   H651 1673   5.610   3.363   4.440 -1.6165  1.4668 -0.6497
    2MOL   H652 1674   5.465   3.468   4.329 -0.9263  0.5651 -1.1898
    2MOL   H653 1675   5.139   3.480   4.484  1.4281 -0.3912  0.4084
    2MOL   H654 1676   4.935   3.565   4.371 -0.7139 -0.3412  0.1975
    2MOL   H655 1677   4.926   3.662   4.003  1.0457  0.2986  0.2971
    2MOL   H656 1678   4.843   3.706   4.150  1.3859  1.1837 -0.2010
    2MOL   H657 1679   5.154   3.562   3.997  1.1368  1.7799  0.4104
    2MOL   H658 1680   5.338   3.471   4.087  0.7347 -1.2776  0.4004
    2MOL   H659 1681   5.203   3.235   4.461 -0.5610 -2.4355 -0.0489
    2MOL   H660 1682   5.268   3.041   4.595  2.6438 -2.3742  0.2386
    2MOL   H661 1683   5.652   2.804   4.800 -0.2647  0.3574  0.7825
    2MOL   H662 1684   5.875   2.823   4.932 -0.6380  0.3034  0.5907
    2MOL   H663 1685   5.865   2.940   5.226 -0.8799 -0.7459  2.0904
    2MOL   H664 1686   5.967   2.773   5.391  1.6031 -1.0111  0.5168
    2MOL   N665 1687   4.793   3.520   4.077  0.3441  0.0473  0.0093
    2MOL   C666 1688   4.732   3.475   4.190 -0.0887 -0.0120 -0.7089
    2MOL   C667 1689   4.721   3.332   4.198 -1.2104 -0.2599 -0.0361
    2MOL   C668 1690   4.680   3.272   4.316  0.6527 -0.0255  0.0376
    2MOL   C669 1691   4.650   3.354   4.428 -0.3875  0.1703  0.2079
    2MOL   N670 1692   4.607   3.306   4.549  0.2887  0.2488  0.0316
    2MOL   C671 1693   4.652   3.188   4.611 -0.5889 -0.3636 -0.5314
    2MOL   C672 1694   4.569   3.106   4.688 -0.2442  0.6809  0.5108
    2MOL   C673 1695   4.624   2.996   4.758 -0.0433 -0.5954 -0.4920
    2MOL   C674 1696   4.764   2.966   4.745 -0.1341 -0.5178  0.0904
    2MOL   N675 1697   4.802   2.852   4.806  0.2402  0.7328 -0.8288
    2MOL   C676 1698   4.915   2.774   4.773 -0.9071 -0.4505  0.2095
    2MOL   C677 1699   4.994   2.711   4.866 -1.1079  0.1366  0.5075
    2MOL   C678 1700   5.109   2.632   4.833 -0.6162  0.7187 -0.1872
    2MOL   C679 1701   5.149   2.623   4.697 -0.8498  1.0692  0.3383
    2MOL   N680 1702   5.253   2.534   4.663 -0.2315 -0.1510 -0.3736
    2MOL   C681 1703   5.370   2.501   4.731  1.1125  0.2442  0.1634
    2MOL   C682 1704   5.430   2.580   4.836 -0.7337 -0.9973  0.4487
    2MOL   C683 1705   5.556   2.546   4.876  0.0451  0.8510  0.0582
    2MOL   C684 1706   5.621   2.423   4.835 -0.5937 -0.5679 -0.5455
    2MOL   C685 1707   5.749   2.395   4.897 -0.0115 -0.7306  0.2487
    2MOL   C686 1708   5.563   2.343   4.739 -0.5398  0.4813  0.4245
    2MOL   C687 1709   5.439   2.385   4.679  0.0080 -0.3945  0.2327
    2MOL   C688 1710   5.075   2.691   4.601 -0.5908  1.1633  0.2747
    2MOL   C689 1711   4.964   2.769   4.637  0.1710 -0.4840  0.6684
    2MOL   C690 1712   4.846   3.056   4.674 -0.1399 -0.4325 -0.0440
    2MOL   C691 1713   4.796   3.162   4.601  0.4034  0.2612 -0.1853
    2MOL   C692 1714   4.653   3.495   4.419  0.2938  0.0583  0.4851
    2MOL   C693 1715   4.693   3.556   4.299  0.3348  0.2101  0.4265
    2MOL   H694 1716   4.815   3.440   4.020  1.8898  1.2949 -1.2001
    2MOL   H695 1717   4.756   3.269   4.117 -1.2859 -1.1369  0.6075
    2MOL   H696 1718   4.679   3.164   4.312 -0.6208 -0.1279  2.4353
    2MOL   H697 1719   4.564   3.378   4.605  0.2828 -0.2345  0.6585
    2MOL   H698 1720   4.463   3.121   4.677 -0.1787  1.0014  0.3315
    2MOL   H699 1721   4.570   2.922   4.815  0.7657 -1.3314 -0.6625
    2MOL   H700 1722   4.747   2.803   4.875  3.3398 -2.1234 -0.2955
    2MOL   H701 1723   4.973   2.704   4.972  0.8415  3.5089  1.1775
    2MOL   H702 1724   5.169   2.583   4.908 -2.8682 -2.9659 -0.6402
    2MOL   H703 1725   5.238   2.487   4.575 -0.0336  0.0003 -0.4877
    2MOL   H704 1726   5.388   2.662   4.892 -0.3014  0.3990 -1.2219
    2MOL   H705 1727   5.610   2.609   4.945 -0.3144 -0.0254  1.1502
    2MOL   H706 1728   5.736   2.298   4.944 -1.4185 -1.4479 -1.5509
    2MOL   H707 1729   5.773   2.470   4.972  1.2103  0.3672 -1.1966
    2MOL   H708 1730   5.604   2.253   4.696 -1.7176  1.4988 -2.9876
    2MOL   H709 1731   5.396   2.326   4.600 -1.3494  1.8053 -0.7426
    2MOL   H710 1732   5.098   2.679   4.496 -1.0448 -2.5580  0.5273
    2MOL   H711 1733   4.902   2.823   4.568  1.5850 -0.7536 -0.8638
    2MOL   H712 1734   4.953   3.045   4.669 -0.1715 -1.0476  0.5819
    2MOL   H713 1735   4.869   3.223   4.549  0.7692  1.4534  1.7190
    2MOL   H714 1736   4.614   3.563   4.493  1.3875  0.5630  0.6166
    2MOL   H715 1737   4.689   3.663   4.284  0.1318  0.0565 -0.6799
    2MOL   N716 1738   5.864   2.391   4.806  0.6049 -0.1107 -0.3329
    2MOL   C717 1739   5.984   2.420   4.863 -0.2691  0.3201 -0.2786
    2MOL   C718 1740   6.009   2.550   4.918  0.6695  0.1373 -0.5932
    2MOL   C719 1741   6.130   2.588   4.976 -0.7711  0.2646 -0.4195
    2MOL   C720 1742   6.222   2.480   4.991  0.2637  0.3038 -0.5358
    2MOL   N721 1743   6.340   2.495   5.062 -0.4574 -1.2199  0.3707
    2MOL   C722 1744   6.376   2.426   5.179  0.1336 -0.3279  0.3104
    2MOL   C723 1745   6.300   2.313   5.220 -0.3557  0.3490 -0.4301
    2MOL   C724 1746   6.329   2.256   5.343  0.0775 -0.3047 -0.3499
    2MOL   C725 1747   6.443   2.295   5.414 -0.1173  0.1028 -0.5633
    2MOL   N726 1748   6.462   2.250   5.540  0.1605  0.1253  0.2055
    2MOL   C727 1749   6.586   2.221   5.606  0.2779 -0.1514 -0.3216
    2MOL   C728 1750   6.578   2.194   5.744  0.4532  0.4878 -0.2197
    2MOL   C729 1751   6.701   2.177   5.815  0.1112  0.1990 -1.0274
    2MOL   C730 1752   6.827   2.171   5.748  0.0882 -0.7145  0.0374
    2MOL   N731 1753   6.946   2.143   5.813  0.3246  0.6748 -1.4069
    2MOL   C732 1754   6.961   2.136   5.951 -0.6222 -0.0092 -0.1899
    2MOL   C733 1755   7.011   2.020   6.017  0.0719 -0.4136 -0.2537
    2MOL   C734 1756   7.026   2.016   6.155  1.0164  0.1167  0.5027
    2MOL   C735 1757   6.972   2.121   6.233 -0.0498 -0.2595 -0.7558
    2MOL   C736 1758   6.999   2.131   6.384 -0.3438 -0.3891  1.0259
    2MOL   C737 1759   6.917   2.233   6.170  0.8605  0.3914  0.3089
    2MOL   C738 1760   6.923   2.250   6.027  0.2874  0.6601 -0.7320
    2MOL   C739 1761   6.827   2.191   5.605  0.2564  0.3357 -0.2559
    2MOL   C740 1762   6.709   2.210   5.539  0.5093 -0.1675 -0.2937
    2MOL   C741 1763   6.527   2.400   5.371  0.7148  0.4684 -0.1449
    2MOL   C742 1764   6.488   2.475   5.251 -0.3938  0.3473 -0.5803
    2MOL   C743 1765   6.210   2.356   4.923  0.3082 -0.0928  0.3362
    2MOL   C744 1766   6.088   2.327   4.860  0.7555  1.0309  0.0187
    2MOL   H745 1767   5.860   2.308   4.749 -0.8869 -0.2025 -0.1114
    2MOL   H746 1768   5.927   2.618   4.902  0.4198 -0.0365 -0.0530
    2MOL   H747 1769   6.140   2.686   5.020 -0.2386 -0.4080  0.9987
    2MOL   H748 1770   6.382   2.587   5.062 -3.7126  0.3576 -0.8481
    2MOL   H749 1771   6.213   2.275   5.167  0.7793 -0.3825 -1.8070
    2MOL   H750 1772   6.265   2.177   5.380  0.9108 -0.9480 -0.2420
    2MOL   H751 1773   6.389   2.198   5.586 -0.8251  0.0387 -1.4523
    2MOL   H752 1774   6.485   2.192   5.799  0.3370 -0.3285 -0.4368
    2MOL   H753 1775   6.703   2.161   5.921  0.5516 -1.6920 -1.3185
    2MOL   H754 1776   7.031   2.124   5.761  1.5988  0.7733  0.5634
    2MOL   H755 1777   7.039   1.931   5.962 -3.4816 -1.7176 -0.0782
    2MOL   H756 1778   7.065   1.932   6.210 -0.2779 -0.6271  0.3073
    2MOL   H757 1779   6.970   2.042   6.440 -1.0722 -1.0096 -0.3148
    2MOL   H758 1780   6.938   2.209   6.427 -0.4151  1.4792 -2.2860
    2MOL   H759 1781   6.876   2.310   6.234 -2.0212 -1.7555  1.1148
    2MOL   H760 1782   6.883   2.340   5.983  2.5732  3.5625  2.8832
    2MOL   H761 1783   6.919   2.181   5.551 -0.7667  0.6281 -2.0983
    2MOL   H762 1784   6.711   2.232   5.433 -0.1021  2.7785  0.2629
    2MOL   H763 1785   6.608   2.429   5.437  3.2657 -1.5525 -2.2809
    2MOL   H764 1786   6.543   2.564   5.222  2.3996 -0.5638  1.6866
    2MOL   H765 1787   6.292   2.286   4.926  1.8392  1.6760  1.3566
    2MOL   H766 1788   6.071   2.233   4.810  1.1631 -0.6738  2.9225
    2MOL   N767 1789   7.140   2.174   6.403  0.9029  0.9040  0.0635
    2MOL   C768 1790   7.188   2.191   6.537 -0.9482 -0.7270  0.0632
    2MOL   C769 1791   7.125   2.274   6.628  1.0937  0.0665 -0.2211
    2MOL   C770 1792   7.181   2.308   6.754  0.3237  0.3989  0.0190
    2MOL   C771 1793   7.306   2.252   6.789 -0.0278  0.1165 -0.4011
    2MOL   N772 1794   7.372   2.281   6.911  0.0851 -0.0149 -0.4506
    2MOL   C773 1795   7.314   2.337   7.023  0.2928 -0.2772  0.2690
    2MOL   C774 1796   7.380   2.442   7.100  0.8133  0.0880  0.2315
    2MOL   C775 1797   7.319   2.489   7.216  0.3808 -0.0399  0.0971
    2MOL   C776 1798   7.196   2.439   7.256  0.1289 -0.0593  0.1640
    2MOL   N777 1799   7.133   2.496   7.363 -0.2004 -0.4665 -0.6606
    2MOL   C778 1800   7.049   2.444   7.457  0.3431 -0.9321 -0.1084
    2MOL   C779 1801   7.029   2.307   7.480 -0.2749 -0.0796 -0.4586
    2MOL   C780 1802   6.956   2.252   7.583 -0.4384  0.0491  0.3963
    2MOL   C781 1803   6.889   2.339   7.670  0.0087  0.1287 -0.7039
    2MOL   N782 1804   6.812   2.292   7.778 -0.2225  0.2687  0.4128
    2MOL   C783 1805   6.711   2.359   7.843  0.4776 -0.4024 -0.3001
    2MOL   C784 1806   6.729   2.396   7.977  0.1220  1.2574  0.1477
    2MOL   C785 1807   6.631   2.477   0.055  0.0330 -0.2333  0.3926
    2MOL   C786 1808   6.514   2.510   7.969  1.0590  0.2714 -0.7122
    2MOL   C787 1809   6.405   2.583   0.064 -0.2698  0.0234 -0.4874
    2MOL   C788 1810   6.491   2.460   7.839  0.3586  0.2283  0.0485
    2MOL   C789 1811   6.594   2.388   7.773  0.4636 -0.1027 -0.4367
    2MOL   C790 1812   6.897   2.482   7.648  0.3120 -0.4493  0.1792
    2MOL   C791 1813   6.973   2.530   7.537  0.3407  0.2619  0.3262
    2MOL   C792 1814   7.127   2.346   7.177  0.3057 -0.2418 -0.6140
    2MOL   C793 1815   7.188   2.286   7.069  0.4886 -0.1774  0.8540
    2MOL   C794 1816   7.370   2.162   6.700 -0.6347  0.5029 -0.3464
    2MOL   C795 1817   7.306   2.131   6.579 -0.2230 -0.5304 -0.3139
    2MOL   H796 1818   7.205   2.122   6.345 -0.7578 -0.0344 -0.9836
    2MOL   H797 1819   7.032   2.316   6.592  0.1737 -2.1192 -0.4461
    2MOL   H798 1820   7.135   2.381   6.818  0.9992  1.3858 -0.6073
    2MOL   H799 1821   7.470   2.307   6.911  0.5895 -1.8297  0.9056
    2MOL   H800 1822   7.486   2.454   7.084  0.5587  0.4531 -1.2361
    2MOL   H801 1823   7.375   2.554   7.281  1.8931  0.2756 -1.4635
    2MOL   H802 1824   7.194   2.562   7.408 -0.6980 -0.4935  0.0615
    2MOL   H803 1825   7.095   2.239   7.428 -0.0431  2.0420 -3.0529
    2MOL   H804 1826   6.951   2.145   7.602  0.0802  0.1351  1.0435
    2MOL   H805 1827   6.854   2.221   7.837  1.0729  0.5038 -0.1957
    2MOL   H806 1828   6.826   2.391   0.044  0.3203  1.8654 -0.1781
    2MOL   H807 1829   6.653   2.518   0.152 -0.2720  0.0155  0.3601
    2MOL   H808 1830   6.334   2.631   7.979 -1.7518  0.1834  1.1434
    2MOL   H809 1831   6.446   2.657   0.132 -2.9332  0.3925  0.7614
    2MOL   H810 1832   6.396   2.471   7.789  0.3076 -0.8478 -0.1074
    2MOL   H811 1833   6.578   2.360   7.670  2.3852 -2.6412 -0.0913
    2MOL   H812 1834   6.843   2.554   7.707 -0.5364 -0.1553 -0.9237
    2MOL   H813 1835   6.976   2.637   7.518 -1.7699  0.0869 -1.2158
    2MOL   H814 1836   7.028   2.315   7.208  0.2499 -0.7471 -1.2874
    2MOL   H815 1837   7.129   2.212   7.017  0.0542  0.8373 -0.1243
    2MOL   H816 1838   7.465   2.116   6.724 -0.7381  0.8409  0.7447
    2MOL   H817 1839   7.351   2.068   6.504 -1.2167 -1.8350  0.1655
    2MOL   N818 1840   6.334   2.490   0.151  0.2007  0.1936  0.4251
    2MOL   C819 1841   6.226   2.536   0.231 -0.2240  0.3845  0.4332
    2MOL   C820 1842   6.174   2.668   0.226 -0.2038  0.3673 -0.5585
    2MOL   C821 1843   6.057   2.696   0.298  0.7952  1.0259  0.8415
    2MOL   C822 1844   5.999   2.596   0.380  0.0608  0.5044  0.0121
    2MOL   N823 1845   5.872   2.618   0.430  0.2078 -0.1876  0.0334
    2MOL   C824 1846   5.750   2.613   0.353  0.5903 -0.4053 -0.1357
    2MOL   C825 1847   5.630   2.627   0.425 -0.1431  0.0718 -0.1660
    2MOL   C826 1848   5.506   2.621   0.359  0.3247 -0.4699 -0.1589
    2MOL   C827 1849   5.501   2.606   0.220 -0.3534  0.3266  0.3835
    2MOL   N828 1850   5.376   2.613   0.157  0.3422  0.0305 -0.4148
    2MOL   C829 1851   5.340   2.725   0.083  0.3578  0.1072 -0.0204
    2MOL   C830 1852   5.430   2.833   0.060  0.3993 -0.3688 -0.1905
    2MOL   C831 1853   5.401   2.937   7.954  0.2740  0.1147  0.2618
    2MOL   C832 1854   5.266   2.947   7.912  0.7637 -1.0568  0.1165
    2MOL   N833 1855   5.213   3.048   7.833 -0.4473 -0.1043  0.5137
    2MOL   C834 1856   5.262   3.177   7.799 -0.2915  0.2436  0.7530
    2MOL   C835 1857   5.237   3.231   7.670  0.3549 -0.1285  0.0741
    2MOL   C836 1858   5.275   3.365   7.643  0.2937 -0.2846 -0.0621
    2MOL   C837 1859   5.353   3.443   7.737 -0.3871 -0.3887  0.2958
    2MOL   C838 1860   5.412   3.583   7.705  0.2045  0.4075 -0.3605
    2MOL   C839 1861   5.394   3.382   7.856 -0.0578  0.4542  0.2529
    2MOL   C840 1862   5.346   3.252   7.887 -0.2283 -0.7438  0.3558
    2MOL   C841 1863   5.172   2.846   7.946  0.9795 -0.6330  0.5971
    2MOL   C842 1864   5.210   2.733   0.030  0.0243 -0.3085 -0.7468
    2MOL   C843 1865   5.619   2.596   0.146 -0.5993 -0.2226  0.0985
    2MOL   C844 1866   5.742   2.593   0.215 -0.2376  0.0631 -0.2743
    2MOL   C845 1867   6.049   2.467   0.388  0.1536 -0.3853  0.2472
    2MOL   C846 1868   6.169   2.444   0.320  0.4554  0.6984  0.2345
    2MOL   H847 1869   6.381   2.404   0.175 -4.2855 -2.5322  0.0138
    2MOL   H848 1870   6.221   2.740   0.161 -2.6852  0.8926 -1.8382
    2MOL   H849 1871   6.014   2.793   0.275 -0.9051  0.2409  0.6323
    2MOL   H850 1872   5.871   2.634   0.530  3.2809 -0.5881  0.1912
    2MOL   H851 1873   5.636   2.632   0.533  1.6090  1.5733 -0.2997
    2MOL   H852 1874   5.419   2.637   0.421  0.4470  2.9438 -0.7802
    2MOL   H853 1875   5.339   2.527   0.118 -3.2983  1.3770 -0.1314
    2MOL   H854 1876   5.528   2.846   0.103  0.5368 -1.6860 -0.0941
    2MOL   H855 1877   5.467   3.021   7.942 -0.3999  0.4630 -1.2243
    2MOL   H856 1878   5.124   3.027   7.790 -0.1890 -1.0280  0.4218
    2MOL   H857 1879   5.182   3.173   7.597 -0.6737  1.7927 -0.7140
    2MOL   H858 1880   5.245   3.407   7.548 -1.1415  3.3255  1.8890
    2MOL   H859 1881   5.521   3.580   7.712  0.2758  0.6006 -1.3054
    2MOL   H860 1882   5.376   3.653   7.781 -1.1574  0.5625 -1.1215
    2MOL   H861 1883   5.453   3.438   7.928 -1.6341  1.0904  1.0888
    2MOL   H862 1884   5.361   3.219   0.007  1.4275  3.3953  1.5789
    2MOL   H863 1885   5.078   2.843   7.893  0.2038 -0.4235  1.9445
    2MOL   H864 1886   5.150   2.646   0.052 -0.6059  0.1888 -0.4665
    2MOL   H865 1887   5.608   2.590   0.038  0.6538  0.9851 -0.1163
    2MOL   H866 1888   5.833   2.592   0.156  1.7810  0.5479  2.7363
    2MOL   H867 1889   5.998   2.384   0.434  2.5692 -2.1406 -0.1681
    2MOL   H868 1890   6.224   2.351   0.326 -0.2884  0.1483 -1.1590
    2MOL   N869 1891   5.382   3.634   7.570 -0.1586 -0.2229 -0.3632
    2MOL   C870 1892   5.416   3.765   7.535 -0.2595 -0.0892  0.1966
    2MOL   C871 1893   5.459   3.862   7.627  0.1252  0.4549  0.4034
    2MOL   C872 1894   5.483   3.992   7.579  0.0814 -0.4097  0.2236
    2MOL   C873 1895   5.482   4.021   7.439  0.1455  0.3629 -0.5113
    2MOL   N874 1896   5.520   4.154   7.401 -0.6919  0.4833 -0.1642
    2MOL   C875 1897   5.503   4.212   7.270  0.1128 -0.1537  0.4192
    2MOL   C876 1898   5.441   4.339   7.262  0.4495  0.2693  0.2942
    2MOL   C877 1899   5.418   4.396   7.138 -0.3447 -0.1204  0.3681
    2MOL   C878 1900   5.458   4.331   7.019  1.0153  0.2570  1.4112
    2MOL   N879 1901   5.424   4.386   6.891 -0.3782 -0.6381 -0.3289
    2MOL   C880 1902   5.321   4.478   6.866 -0.4520 -0.4769 -0.3197
    2MOL   C881 1903   5.348   4.593   6.786 -0.2875 -0.8365  0.4417
    2MOL   C882 1904   5.255   4.697   6.771  0.2742 -0.1065 -0.1007
    2MOL   C883 1905   5.123   4.669   6.820 -0.6489 -0.0736  0.4476
    2MOL   N884 1906   5.024   4.767   6.802 -0.1285 -0.0501  0.6511
    2MOL   C885 1907   4.888   4.758   6.810  0.2579  0.5523 -0.8618
    2MOL   C886 1908   4.815   4.873   6.852  0.1945 -0.1948  0.1704
    2MOL   C887 1909   4.675   4.855   6.863 -0.2790  0.8786  0.0952
    2MOL   C888 1910   4.611   4.735   6.823  0.5309  0.2578 -0.6590
    2MOL   C889 1911   4.468   4.710   6.840  0.4601  0.4399 -0.2739
    2MOL   C890 1912   4.690   4.623   6.788  0.2815  0.3042 -0.2479
    2MOL   C891 1913   4.825   4.638   6.778  0.3910  0.1792  0.5119
    2MOL   C892 1914   5.101   4.555   6.902  0.4312  0.0345 -0.5932
    2MOL   C893 1915   5.198   4.459   6.928 -0.0775  0.1371  0.0240
    2MOL   C894 1916   5.530   4.208   7.026 -0.6818  0.5728 -0.3774
    2MOL   C895 1917   5.554   4.147   7.155  0.1579 -0.2184  0.1527
    2MOL   C896 1918   5.443   3.925   7.350 -0.2675  0.8176  0.7628
    2MOL   C897 1919   5.416   3.794   7.398 -0.1633 -0.4100  0.2339
    2MOL   H898 1920   5.381   3.565   7.496  1.1677 -1.5659  0.8276
    2MOL   H899 1921   5.450   3.855   7.735  1.1196  3.9480  0.7639
    2MOL   H900 1922   5.506   4.063   7.657 -1.9402  1.7256 -1.0522
    2MOL   H901 1923   5.486   4.222   7.466 -1.8509  0.5841 -0.8598
    2MOL   H902 1924   5.401   4.386   7.351  1.7479 -0.3261  1.2165
    2MOL   H903 1925   5.365   4.490   7.136 -2.0184 -1.0614 -1.5482
    2MOL   H904 1926   5.487   4.368   6.814 -0.9951 -2.1269 -0.4899
    2MOL   H905 1927   5.442   4.600   6.734 -0.0581  0.7579  1.0477
    2MOL   H906 1928   5.281   4.777   6.704 -0.4721  0.0442 -0.2106
    2MOL   H907 1929   5.062   4.859   6.791  1.0355 -0.3835  1.7917
    2MOL   H908 1930   4.850   4.975   6.864 -2.0960  0.5615  0.7455
    2MOL   H909 1931   4.618   4.943   6.891 -1.3051  0.1578  0.2865
    2MOL   H910 1932   4.426   4.808   6.863 -0.5222  0.2922 -1.3784
    2MOL   H911 1933   4.443   4.658   6.933 -0.4346  0.2828 -0.5956
    2MOL   H912 1934   4.634   4.532   6.772  0.1743  0.4535 -0.6978
    2MOL   H913 1935   4.878   4.549   6.748 -0.2239 -0.3335  0.9292
    2MOL   H914 1936   5.004   4.542   6.949  1.4004 -0.6268  1.2540
    2MOL   H915 1937   5.178   4.378   6.996  0.3281  0.1839  0.2037
    2MOL   H916 1938   5.552   4.161   6.932 -4.2207 -1.7322 -0.1676
    2MOL   H917 1939   5.600   4.049   7.161  0.2824 -0.2497 -1.2635
    2MOL   H918 1940   5.426   3.954   7.247  1.3376  1.3547  0.6421
    2MOL   H919 1941   5.392   3.709   7.335 -0.3024  0.5371 -1.0248
    2MOL   N920 1942   4.416   4.649   6.725  0.4907  0.6612 -0.2767
    2MOL   C921 1943   4.291   4.588   6.751 -0.0008 -0.2616 -0.0190
    2MOL   C922 1944   4.174   4.659   6.781  0.3721  0.2506 -0.8565
    2MOL   C923 1945   4.053   4.588   6.805 -0.0284  0.1185 -0.1110
    2MOL   C924 1946   4.042   4.449   6.794 -0.1358 -0.6303  0.0485
    2MOL   N925 1947   3.926   4.381   6.829  0.4846 -0.4465 -0.5221
    2MOL   C926 1948   3.874   4.382   6.960 -0.1214 -0.4705  0.3999
    2MOL   C927 1949   3.746   4.326   6.980  0.1521  0.2769 -0.2859
    2MOL   C928 1950   3.692   4.319   7.110  0.1123 -0.3614  0.5313
    2MOL   C929 1951   3.765   4.362   7.220  0.4669  0.1905  0.0617
    2MOL   N930 1952   3.701   4.359   7.347  0.2258  0.3017 -0.4773
    2MOL   C931 1953   3.741   4.433   7.459  0.4683 -1.0474 -0.4641
    2MOL   C932 1954   3.775   4.573   7.469 -0.3748  0.8909  0.0759
    2MOL   C933 1955   3.807   4.640   7.586 -0.2815 -0.4236 -0.5924
    2MOL   C934 1956   3.822   4.566   7.704 -0.2110  0.1675 -0.2122
    2MOL   N935 1957   3.859   4.632   7.822 -0.3114  0.8897 -0.0864
    2MOL   C936 1958   3.891   4.586   7.949 -0.5755 -0.1083 -0.1465
    2MOL   C937 1959   3.861   4.660   0.079  0.2706 -0.5131 -0.1655
    2MOL   C938 1960   3.870   4.617   0.216  0.3975 -0.1290 -0.1212
    2MOL   C939 1961   3.920   4.486   0.231  0.1895 -0.3482  0.0480
    2MOL   C940 1962   3.932   4.425   0.369 -0.1214  0.2882 -0.1054
    2MOL   C941 1963   3.965   4.409   0.122  0.1710  0.0486  0.4468
    2MOL   C942 1964   3.953   4.462   7.972  0.6043  0.0446  0.0018
    2MOL   C943 1965   3.787   4.432   7.703  0.0087  0.0943 -0.4357
    2MOL   C944 1966   3.750   4.367   7.586 -1.2325  0.6459 -0.4504
    2MOL   C945 1967   3.892   4.423   7.200 -0.4286  0.1424 -0.8516
    2MOL   C946 1968   3.946   4.433   7.068  0.6871 -0.1048  0.2368
    2MOL   C947 1969   4.156   4.377   6.750  0.4564 -0.3308 -0.5014
    2MOL   C948 1970   4.280   4.442   6.738 -0.2432 -0.2551  0.3879
    2MOL   H949 1971   4.479   4.585   6.680 -0.6862 -0.1842 -0.7432
    2MOL   H950 1972   4.169   4.766   6.792 -0.5018  0.3264 -1.8721
    2MOL   H951 1973   3.961   4.644   6.809 -0.8235 -0.9339 -2.3982
    2MOL   H952 1974   3.884   4.311   6.769 -1.0683 -1.5836  1.8124
    2MOL   H953 1975   3.689   4.284   6.899  0.4589  0.9414 -0.8524
    2MOL   H954 1976   3.598   4.271   7.133 -0.0486  0.7263  2.2337
    2MOL   H955 1977   3.636   4.287   7.375 -0.8518  1.9807  1.4839
    2MOL   H956 1978   3.780   4.635   7.381  0.3403  0.7735  0.0363
    2MOL   H957 1979   3.827   4.746   7.581 -0.7552 -0.3694 -1.4530
    2MOL   H958 1980   3.836   4.730   7.817 -2.0917  0.4561 -0.9203
    2MOL   H959 1981   3.813   4.757   0.070 -0.3116 -0.8252 -0.4228
    2MOL   H960 1982   3.844   4.671   0.306 -0.5444 -0.1177 -0.3987
    2MOL   H961 1983   3.878   4.333   0.349 -1.3872  1.1672 -0.8088
    2MOL   H962 1984   3.874   4.494   0.431  1.2731  1.1610  0.2465
    2MOL   H963 1985   4.001   4.312   0.153 -1.5505 -0.3624  1.2373
    2MOL   H964 1986   3.977   4.396   7.891 -3.1721 -0.4065 -0.8358
    2MOL   H965 1987   3.788   4.369   7.791 -0.2115 -0.0184 -0.5129
    2MOL   H966 1988   3.742   4.259   7.588  0.4514  0.5202  0.2655
    2MOL   H967 1989   3.938   4.470   7.286 -1.2094 -2.4287  1.0267
    2MOL   H968 1990   4.046   4.468   7.051  0.6525  0.7529  1.7502
    2MOL   H969 1991   4.160   4.271   6.734 -0.6478 -0.2716 -1.1902
    2MOL   H970 1992   4.363   4.379   6.708 -0.1719  0.1007 -0.1698
    2MOL   N971 1993   4.062   4.396   0.414  0.3013  0.1682 -0.0563
    2MOL   C972 1994   4.088   4.387   0.549  0.3194  0.3598 -0.4752
    2MOL   C973 1995   3.979   4.391   0.641  0.5383 -0.3715  0.8247
    2MOL   C974 1996   4.006   4.378   0.778  0.1964 -0.2548 -0.2069
    2MOL   C975 1997   4.137   4.362   0.822  0.0448 -0.5720 -0.8561
    2MOL   N976 1998   4.177   4.375   0.953 -1.0484  0.2156 -0.3156
    2MOL   C977 1999   4.110   4.341   1.071 -0.2884 -0.1886  0.5287
    2MOL   C978 2000   4.141   4.416   1.184  0.6891 -0.5427  0.2078
    2MOL   C979 2001   4.079   4.382   1.308  0.2108  0.9884  0.2480
    2MOL   C980 2002   3.989   4.276   1.318 -0.1985 -0.2995 -0.4290
    2MOL   N981 2003   3.937   4.224   1.435 -0.6604  0.1003  0.0368
    2MOL   C982 2004   3.970   4.256   1.571  0.4355  0.5648 -0.0137
    2MOL   C983 2005   3.867   4.244   1.660  0.0169  0.5494 -0.7700
    2MOL   C984 2006   3.892   4.252   1.800 -0.3863  0.0276  0.2000
    2MOL   C985 2007   4.022   4.281   1.850 -0.4780  0.1863  0.3814
    2MOL   N986 2008   4.040   4.292   1.983 -0.2261 -0.4013 -0.3970
    2MOL   C987 2009   4.157   4.279   2.056 -0.4371 -0.1913 -0.4598
    2MOL   C988 2010   4.269   4.192   2.029  0.0342  0.4204 -0.8432
    2MOL   C989 2011   4.379   4.186   2.117  0.0516 -0.2011 -0.0119
    2MOL   C990 2012   4.380   4.277   2.227  0.4471  0.1662  0.1512
    2MOL   C991 2013   4.489   4.272   2.328  0.1682  0.8906 -0.6083
    2MOL   C992 2014   4.279   4.371   2.247 -0.6287 -0.2518  0.2189
    2MOL   C993 2015   4.167   4.369   2.164  0.4322  0.2731 -0.5082
    2MOL   C994 2016   4.131   4.298   1.756 -0.2761 -0.7431 -0.5216
    2MOL   C995 2017   4.100   4.287   1.615 -0.1919  1.0276  0.1045
    2MOL   C996 2018   3.951   4.211   1.193 -0.1383 -0.1377 -0.6199
    2MOL   C997 2019   4.008   4.248   1.072  0.4914  0.2028 -0.1520
    2MOL   C998 2020   4.239   4.344   0.728 -0.0679  0.0130 -0.4921
    2MOL   C999 2021   4.218   4.369   0.592 -0.0788  0.0256 -0.7785
    2MOL     H1 2022   4.132   4.420   0.346 -1.9820  0.5604 -2.3340
    2MOL     H2 2023   3.875   4.411   0.619  0.7404  3.3727  2.8549
    2MOL     H3 2024   3.929   4.384   0.854  2.9299  0.7938  2.5987
    2MOL     H4 2025   4.260   4.429   0.972 -1.3960  1.6414 -2.6337
    2MOL     H5 2026   4.211   4.498   1.177 -1.2213  1.4231  2.9553
    2MOL     H6 2027   4.111   4.434   1.396 -0.5884 -1.2481  1.9246
    2MOL     H7 2028   3.862   4.156   1.427  1.3555 -1.8603 -2.9439
    2MOL     H8 2029   3.766   4.220   1.629  0.3106 -1.2994 -0.3496
    2MOL     H9 2030   3.820   4.215   1.871 -1.3322  0.1208 -0.7008
    2MOL    H10 2031   3.961   4.322   2.038  0.9858  1.5798  0.3236
    2MOL    H11 2032   4.278   4.123   1.946  1.1733 -0.0559 -0.3374
    2MOL    H12 2033   4.462   4.121   2.096  0.0918  0.1956 -1.1249
    2MOL    H13 2034   4.569   4.338   2.292  0.5262 -0.4300 -2.2854
    2MOL    H14 2035   4.523   4.169   2.332 -0.3731  0.7616  1.3043
    2MOL    H15 2036   4.297   4.449   2.320  1.9316  0.9235 -1.6008
    2MOL    H16 2037   4.083   4.432   2.188 -1.3662 -1.6623 -1.6059
    2MOL    H17 2038   4.234   4.286   1.785 -0.6669 -3.2325 -0.0605
    2MOL    H18 2039   4.175   4.280   1.537 -1.4587  0.5141 -1.0970
    2MOL    H19 2040   3.885   4.125   1.199  1.3868 -1.2288  1.0016
    2MOL    H20 2041   3.986   4.187   0.986  0.3219 -0.9899  0.7353
    2MOL    H21 2042   4.331   4.309   0.772  0.8665  3.1916  0.1848
    2MOL    H22 2043   4.309   4.354   0.535  0.8572  1.6462  0.2442
    2MOL    H23 2044   4.453   4.296   2.428  1.7156 -1.7898  0.6529
    3MOL     N1 2045   0.750   5.661   3.478 -0.0190  0.1669  0.0000
    3MOL     C2 2046   0.695   5.535   3.493 -0.0820  0.8473  0.0308
    3MOL     C3 2047   0.766   5.420   3.463 -0.0832 -0.3503  0.3391
    3MOL     C4 2048   0.721   5.294   3.488  0.3923  0.0544  0.1073
    3MOL     C5 2049   0.605   5.273   3.559 -0.0725 -0.1097  0.1695
    3MOL     N6 2050   0.565   5.146   3.590  0.2822  0.0358 -0.2104
    3MOL     C7 2051   0.439   5.095   3.564  0.8231 -0.3112  0.4913
    3MOL     C8 2052   0.420   4.961   3.595 -0.1236  0.4535  0.9927
    3MOL     C9 2053   0.292   4.909   3.577 -0.2506 -0.5502  0.2837
    3MOL    C10 2054   0.188   4.980   3.518  0.4765 -0.3921  0.5133
    3MOL    N11 2055   0.073   4.910   3.485  0.3561  0.3790  0.1695
    3MOL    C12 2056   7.932   4.933   3.545  0.1983  0.1843  0.4908
    3MOL    C13 2057   7.879   5.060   3.583  0.3681  0.0939  0.0625
    3MOL    C14 2058   7.760   5.069   3.658 -0.1664 -0.9918 -0.7598
    3MOL    C15 2059   7.691   4.947   3.690 -0.0287  0.0149 -0.8387
    3MOL    N16 2060   7.576   4.956   3.771  0.2186  0.6609  0.1486
    3MOL    C17 2061   7.547   4.877   3.883  0.1281 -0.1006 -0.5828
    3MOL    C18 2062   7.422   4.896   3.951 -0.0264  0.0228 -0.8977
    3MOL    C19 2063   7.400   4.815   4.065  0.7410 -0.9032  0.1378
    3MOL    C20 2064   7.497   4.738   4.122 -0.5895  0.1250  1.1225
    3MOL    C21 2065   7.472   4.660   4.246  0.5404 -0.0558 -0.9289
    3MOL    C22 2066   7.624   4.733   4.065 -0.3379  0.7599 -0.4813
    3MOL    C23 2067   7.650   4.808   3.951  0.2985 -0.2277 -0.3975
    3MOL    C24 2068   7.742   4.821   3.651 -0.2514  0.3432 -0.2689
    3MOL    C25 2069   7.859   4.818   3.573 -0.4953  0.2129 -0.2617
    3MOL    C26 2070   0.205   5.114   3.481 -0.4497 -0.4137 -0.4510
    3MOL    C27 2071   0.332   5.170   3.510 -0.2610 -0.1884 -0.3361
    3MOL    C28 2072   0.527   5.387   3.592 -0.3016  0.9775 -0.2384
    3MOL    C29 2073   0.569   5.516   3.548 -0.3524 -0.6065 -0.6428
    3MOL    H30 2074   0.790   5.684   3.388  1.0976 -1.5963  0.0123
    3MOL    H31 2075   0.864   5.431   3.420  0.5194 -0.2363  1.7172
    3MOL    H32 2076   0.784   5.216   3.448 -0.2199 -0.3897 -0.0022
    3MOL    H33 2077   0.640   5.081   3.576 -0.8211 -1.1579 -0.7171
    3MOL    H34 2078   0.503   4.906   3.637 -0.8100 -1.0069  0.4694
    3MOL    H35 2079   0.278   4.802   3.587 -0.7668 -0.3847  1.3904
    3MOL    H36 2080   0.085   4.813   3.462  0.8134  0.3102  0.6911
    3MOL    H37 2081   7.932   5.149   3.553  2.6651 -1.0704  0.5542
    3MOL    H38 2082   7.709   5.158   3.693 -1.8740 -1.7956 -1.1269
    3MOL    H39 2083   7.545   5.052   3.782  2.0464  1.2344  0.3993
    3MOL    H40 2084   7.342   4.964   3.927 -0.0554  0.3776  0.1493
    3MOL    H41 2085   7.301   4.804   4.106  0.6898 -0.8710  0.0229
    3MOL    H42 2086   7.468   4.738   4.323 -0.1013 -0.7865 -0.2066
    3MOL    H43 2087   7.556   4.592   4.258  0.2931 -0.2105 -0.0219
    3MOL    H44 2088   7.702   4.672   4.108  0.6161  1.4801 -1.1664
    3MOL    H45 2089   7.747   4.808   3.902  0.1045  0.2880 -0.7957
    3MOL    H46 2090   7.694   4.732   3.687 -0.4247  1.6693  2.8833
    3MOL    H47 2091   7.892   4.719   3.544  1.7811  1.3935 -1.8598
    3MOL    H48 2092   0.126   5.167   3.430  0.7455 -0.0199 -1.9392
    3MOL    H49 2093   0.346   5.273   3.481  2.4682 -0.7116 -1.0099
    3MOL    H50 2094   0.441   5.372   3.656  0.9941 -1.6384  0.9730
    3MOL    H51 2095   0.506   5.600   3.572  1.2227  0.1274  1.1307
    3MOL    H52 2096   0.699   5.740   3.513  0.0372  0.5567 -0.7875
    3MOL    N53 2097   7.349   4.584   4.247  0.5860 -0.7741  0.5647
    3MOL    C54 2098   7.325   4.513   4.371  0.4900  0.4779 -0.3309
    3MOL    C55 2099   7.396   4.526   4.491  0.3900  0.2969  0.4479
    3MOL    C56 2100   7.378   4.440   4.600  0.3479 -0.6372 -0.3485
    3MOL    C57 2101   7.294   4.327   4.585 -0.8907  1.0121  0.4651
    3MOL    N58 2102   7.296   4.222   4.680 -0.0616  0.2841 -0.0928
    3MOL    C59 2103   7.197   4.197   4.783  0.4343  0.0396 -0.1175
    3MOL    C60 2104   7.107   4.302   4.818  0.1905  0.3071  0.2115
    3MOL    C61 2105   7.020   4.286   4.928  0.0529 -0.0196 -0.5968
    3MOL    C62 2106   7.008   4.158   4.997 -0.3542  0.0448  0.0134
    3MOL    N63 2107   6.923   4.131   5.108  0.1340 -0.1618 -0.0320
    3MOL    C64 2108   6.878   4.231   5.186  0.0236  0.2802  0.3781
    3MOL    C65 2109   6.951   4.352   5.217 -0.4514 -0.1247 -0.9931
    3MOL    C66 2110   6.893   4.454   5.289 -0.1313  0.8966  0.2061
    3MOL    C67 2111   6.763   4.446   5.331  0.3441 -0.5555 -0.7244
    3MOL    N68 2112   6.695   4.547   5.404  0.1709 -0.0471  0.1733
    3MOL    C69 2113   6.695   4.682   5.392 -0.4092  0.6139  0.3130
    3MOL    C70 2114   6.779   4.764   5.305 -0.0116 -0.1478 -0.2306
    3MOL    C71 2115   6.759   4.906   5.292 -0.0868 -0.8111  0.0931
    3MOL    C72 2116   6.656   4.971   5.365  0.0949  0.8795 -0.3719
    3MOL    C73 2117   6.641   5.127   5.365 -0.1258  0.2087  0.1614
    3MOL    C74 2118   6.568   4.891   5.441 -0.2272 -0.4961 -0.2731
    3MOL    C75 2119   6.585   4.747   5.452  0.1470  0.0949  0.0810
    3MOL    C76 2120   6.689   4.326   5.299 -0.7660 -0.6013  0.4466
    3MOL    C77 2121   6.746   4.221   5.230  0.2538 -0.0257 -0.4803
    3MOL    C78 2122   7.083   4.052   4.940 -0.3176 -0.2374  1.0720
    3MOL    C79 2123   7.184   4.075   4.847  0.4482 -0.2165  0.6753
    3MOL    C80 2124   7.217   4.311   4.471 -0.1533  0.2829 -0.2204
    3MOL    C81 2125   7.235   4.401   4.360  0.0588 -0.2997 -0.8122
    3MOL    H82 2126   7.307   4.555   4.160  1.0995 -0.2719  0.1530
    3MOL    H83 2127   7.474   4.599   4.508 -0.3060  0.7240  1.9054
    3MOL    H84 2128   7.439   4.448   4.689 -0.2054  1.0112 -0.1152
    3MOL    H85 2129   7.343   4.148   4.630  2.5760  1.3529  0.7610
    3MOL    H86 2130   7.122   4.398   4.771 -1.4560 -0.3527 -1.7434
    3MOL    H87 2131   6.971   4.375   4.963  0.7751 -0.0468  0.5156
    3MOL    H88 2132   6.908   4.033   5.125 -0.4783  0.0543  0.7233
    3MOL    H89 2133   7.051   4.378   5.187 -0.6007 -1.0639 -2.3906
    3MOL    H90 2134   6.959   4.532   5.323  3.0862 -2.2984  1.6289
    3MOL    H91 2135   6.612   4.517   5.455  0.8816  1.9965  2.6394
    3MOL    H92 2136   6.852   4.723   5.236 -2.5443 -1.0104 -2.4695
    3MOL    H93 2137   6.826   4.966   5.231 -1.9937 -0.4064 -1.6656
    3MOL    H94 2138   6.718   5.156   5.436  1.0018 -1.9023 -0.1398
    3MOL    H95 2139   6.545   5.153   5.410 -0.6604 -1.1463 -0.1528
    3MOL    H96 2140   6.482   4.934   5.490 -0.0107  1.6586 -1.6915
    3MOL    H97 2141   6.504   4.687   5.490 -0.5549  1.4387  0.7322
    3MOL    H98 2142   6.587   4.313   5.333 -1.0735  0.3554 -0.0934
    3MOL    H99 2143   6.691   4.129   5.215  1.4425 -1.0692  1.4547
    3MOL   H100 2144   7.085   3.953   4.983  4.1855 -1.1115 -0.8301
    3MOL   H101 2145   7.245   3.989   4.825  0.2183 -0.5286  1.2399
    3MOL   H102 2146   7.152   4.225   4.472  0.8071 -0.4851  3.4306
    3MOL   H103 2147   7.176   4.383   4.271  0.9554 -0.0129 -1.4743
    3MOL   N104 2148   6.674   5.202   5.244 -0.3612  0.6780  0.1435
    3MOL   C105 2149   6.589   5.196   5.133 -0.3905 -0.4358  0.2444
    3MOL   C106 2150   6.477   5.104   5.134 -0.4047  0.2275 -0.6422
    3MOL   C107 2151   6.386   5.098   5.029  0.2873  0.3606 -0.7953
    3MOL   C108 2152   6.410   5.178   4.917 -0.5512 -0.6579 -0.2967
    3MOL   N109 2153   6.326   5.166   4.809  0.2048 -0.1298  0.2616
    3MOL   C110 2154   6.190   5.134   4.810  0.5592 -0.5292 -0.2600
    3MOL   C111 2155   6.105   5.168   4.919  0.2290  0.0628  0.1224
    3MOL   C112 2156   5.970   5.126   4.925 -0.1404  0.2488  0.4472
    3MOL   C113 2157   5.924   5.038   4.826 -0.2309 -0.2387 -0.0031
    3MOL   N114 2158   5.790   4.999   4.838 -0.2575  0.2929 -0.5060
    3MOL   C115 2159   5.709   4.931   4.747  0.1449 -1.0726  0.2785
    3MOL   C116 2160   5.598   4.851   4.784 -0.1699  0.0202  0.6291
    3MOL   C117 2161   5.517   4.785   4.690 -0.5501 -0.5082  0.0336
    3MOL   C118 2162   5.539   4.790   4.556 -0.4441 -0.9703  0.3799
    3MOL   N119 2163   5.457   4.726   4.465 -0.4516  0.0875 -0.1878
    3MOL   C120 2164   5.380   4.607   4.478  0.3231 -0.1722 -0.3070
    3MOL   C121 2165   5.413   4.503   4.575  0.2870  0.0103  0.1737
    3MOL   C122 2166   5.324   4.395   4.589  0.2036 -0.6470  0.3023
    3MOL   C123 2167   5.213   4.379   4.505 -0.5696 -0.2569  0.1409
    3MOL   C124 2168   5.131   4.249   4.515  0.9733 -0.6468 -0.5291
    3MOL   C125 2169   5.182   4.481   4.409 -0.2154 -0.1618 -0.4907
    3MOL   C126 2170   5.266   4.596   4.398  0.4671  0.1624  0.2499
    3MOL   C127 2171   5.650   4.867   4.514 -0.2796 -0.3915 -0.2196
    3MOL   C128 2172   5.732   4.944   4.603  0.5846  0.6592 -0.1663
    3MOL   C129 2173   6.014   4.997   4.720  0.9463 -0.7442  0.1229
    3MOL   C130 2174   6.138   5.054   4.707 -0.5694  0.6159  0.1930
    3MOL   C131 2175   6.520   5.268   4.906  0.4942 -0.8447 -0.8935
    3MOL   C132 2176   6.604   5.276   5.021 -0.1266 -0.1138  0.1125
    3MOL   H133 2177   6.743   5.275   5.254  0.3799  0.0405 -0.1850
    3MOL   H134 2178   6.452   5.053   5.226  0.1312  1.4715  0.2039
    3MOL   H135 2179   6.297   5.038   5.044  0.5858  0.3639  1.0408
    3MOL   H136 2180   6.369   5.174   4.718 -0.6242 -3.8724 -0.5299
    3MOL   H137 2181   6.134   5.230   5.002 -0.3040  0.7602 -0.2102
    3MOL   H138 2182   5.903   5.167   5.000  0.7638 -0.3801  1.6149
    3MOL   H139 2183   5.754   5.001   4.933  0.2452 -2.4315 -0.2032
    3MOL   H140 2184   5.565   4.843   4.887 -0.4154 -2.3983  0.3959
    3MOL   H141 2185   5.432   4.729   4.727  1.0690 -1.2157  2.8178
    3MOL   H142 2186   5.436   4.774   4.378  1.2757 -0.3481 -0.8726
    3MOL   H143 2187   5.492   4.525   4.645  0.2405  1.1512 -0.1213
    3MOL   H144 2188   5.351   4.314   4.655 -1.0948 -0.4884  1.0470
    3MOL   H145 2189   5.029   4.268   4.483  0.3009 -1.1886  1.2485
    3MOL   H146 2190   5.118   4.219   4.619 -1.6160 -0.0008 -0.6266
    3MOL   H147 2191   5.094   4.469   4.348 -1.9380  2.7690  1.3146
    3MOL   H148 2192   5.235   4.671   4.326  0.5637 -0.1173 -0.0804
    3MOL   H149 2193   5.670   4.879   4.409 -2.8066  0.9220 -0.5973
    3MOL   H150 2194   5.808   5.010   4.564 -0.1015 -0.6032 -3.7653
    3MOL   H151 2195   5.985   4.927   4.644 -1.6157  1.2600 -0.8537
    3MOL   H152 2196   6.206   5.012   4.635 -1.5696 -2.7318  1.0830
    3MOL   H153 2197   6.527   5.335   4.822 -1.5979  0.0599 -0.3857
    3MOL   H154 2198   6.685   5.346   5.007 -1.6451  1.6369 -0.1408
    3MOL   N155 2199   5.185   4.147   4.426  0.0779  0.7002  0.0685
    3MOL   C156 2200   5.241   4.030   4.479 -0.1408 -0.2889 -0.6587
    3MOL   C157 2201   5.274   4.000   4.614 -0.7119 -0.2947 -0.2068
    3MOL   C158 2202   5.324   3.871   4.642  0.3927 -0.1166 -0.1401
    3MOL   C159 2203   5.345   3.774   4.546  0.7581  0.2451  0.1782
    3MOL   N160 2204   5.384   3.643   4.575  0.8353  0.4059  0.4670
    3MOL   C161 2205   5.506   3.613   4.624  0.5674  0.7373  0.1846
    3MOL   C162 2206   5.513   3.537   4.743  0.6381 -0.5508 -0.6377
    3MOL   C163 2207   5.636   3.498   4.797 -0.6998 -0.3525  0.0890
    3MOL   C164 2208   5.752   3.539   4.732  0.3698 -0.1390 -0.4857
    3MOL   N165 2209   5.876   3.507   4.790  0.3098  1.0342  0.1896
    3MOL   C166 2210   5.919   3.535   4.920 -0.4261  0.0708 -0.6378
    3MOL   C167 2211   5.859   3.631   4.997  0.0562  0.0532  0.0316
    3MOL   C168 2212   5.912   3.663   5.126 -0.3411  0.4373 -0.0119
    3MOL   C169 2213   6.016   3.587   5.183  0.0611 -0.6794  0.0402
    3MOL   N170 2214   6.071   3.632   5.304 -0.1006 -0.0472 -0.2535
    3MOL   C171 2215   6.058   3.765   5.350 -0.0444 -0.4137  0.1904
    3MOL   C172 2216   6.077   3.873   5.263  0.4909 -0.0803 -0.3849
    3MOL   C173 2217   6.055   4.007   5.308 -0.2038 -0.9257 -0.0898
    3MOL   C174 2218   6.011   4.034   5.436 -0.3580 -0.3888 -0.9279
    3MOL   C175 2219   5.995   4.181   5.482  1.0226  0.0018  0.0560
    3MOL   C176 2220   5.990   3.919   5.519 -0.1299 -0.9734 -0.3767
    3MOL   C177 2221   6.017   3.788   5.481  0.5137 -0.0891  0.1649
    3MOL   C178 2222   6.077   3.487   5.108 -0.2212 -0.5897  0.3878
    3MOL   C179 2223   6.028   3.466   4.974  0.1959  0.1483 -0.1093
    3MOL   C180 2224   5.747   3.623   4.617 -0.2759  0.0369 -0.2994
    3MOL   C181 2225   5.623   3.663   4.559  0.1883 -0.6654 -0.0988
    3MOL   C182 2226   5.315   3.805   4.414  0.7824  0.2399  0.2443
    3MOL   C183 2227   5.261   3.932   4.381  0.3232 -0.3515 -0.0588
    3MOL   H184 2228   5.156   4.153   4.329  0.3009 -1.3893 -0.1515
    3MOL   H185 2229   5.266   4.074   4.692  0.6668  0.4354 -0.7344
    3MOL   H186 2230   5.358   3.842   4.740 -1.0699 -0.1104  0.3915
    3MOL   H187 2231   5.380   3.582   4.495 -0.0324  3.4110 -1.9011
    3MOL   H188 2232   5.417   3.522   4.791  0.3166  0.7588 -0.8334
    3MOL   H189 2233   5.643   3.446   4.891 -2.6921 -0.3228  0.2543
    3MOL   H190 2234   5.955   3.522   4.730  1.8309 -0.0996  1.8777
    3MOL   H191 2235   5.787   3.698   4.953  0.3071 -1.5410 -2.8812
    3MOL   H192 2236   5.860   3.744   5.177 -1.7004  0.8778 -2.0480
    3MOL   H193 2237   6.081   3.559   5.373  0.3154 -0.9186 -1.2173
    3MOL   H194 2238   6.113   3.849   5.164  1.3167 -1.0830  0.1488
    3MOL   H195 2239   6.077   4.090   5.242 -2.0768 -0.5791 -0.3228
    3MOL   H196 2240   5.985   4.241   5.392 -0.6003  1.0402  0.9090
    3MOL   H197 2241   6.087   4.204   5.536 -0.4916  1.0739  2.2429
    3MOL   H198 2242   5.967   3.945   5.622 -1.8488  0.6678 -1.1442
    3MOL   H199 2243   6.005   3.717   5.561 -2.8346  1.3943  1.0707
    3MOL   H200 2244   6.163   3.426   5.131  0.9069  0.9298  0.2699
    3MOL   H201 2245   6.079   3.401   4.904 -1.7826 -0.6405 -0.8683
    3MOL   H202 2246   5.841   3.657   4.576 -1.3001 -0.0739 -2.8614
    3MOL   H203 2247   5.614   3.724   4.470  4.9262 -1.2001 -1.0770
    3MOL   H204 2248   5.317   3.732   4.334 -0.2526  0.7816 -0.2965
    3MOL   H205 2249   5.231   3.954   4.280 -2.6809 -0.9981  0.6525
    3MOL   N206 2250   5.893   4.212   5.580  0.0752 -0.3720 -0.3088
    3MOL   C207 2251   5.767   4.154   5.564  0.3884  0.3467 -0.2003
    3MOL   C208 2252   5.693   4.145   5.443  0.0347 -0.5027 -0.9204
    3MOL   C209 2253   5.562   4.101   5.441 -0.4312  0.4260 -0.5968
    3MOL   C210 2254   5.498   4.068   5.563 -0.0375 -0.2429 -0.0103
    3MOL   N211 2255   5.367   4.035   5.567  0.4044 -0.4898  0.1721
    3MOL   C212 2256   5.315   3.918   5.619 -0.4898 -0.1652 -1.1984
    3MOL   C213 2257   5.193   3.927   5.687  0.5737 -0.7627  0.2891
    3MOL   C214 2258   5.142   3.817   5.744  0.3809  0.1471 -0.1132
    3MOL   C215 2259   5.204   3.690   5.750  0.5404 -1.0662 -0.0515
    3MOL   N216 2260   5.157   3.580   5.823 -0.5246  0.0576  0.5189
    3MOL   C217 2261   5.076   3.585   5.941  0.1689  0.0956  0.1920
    3MOL   C218 2262   5.002   3.470   5.974 -0.6565  0.8518 -0.0667
    3MOL   C219 2263   4.928   3.462   6.094 -0.4368 -0.2538  0.3839
    3MOL   C220 2264   4.915   3.571   6.185 -0.4881  0.1786  0.5400
    3MOL   N221 2265   4.859   3.563   6.315  0.1712  0.3796  0.6308
    3MOL   C222 2266   4.750   3.487   6.353 -0.2368 -0.4357  0.3653
    3MOL   C223 2267   4.740   3.444   6.484 -0.2655  0.5210 -0.0074
    3MOL   C224 2268   4.642   3.357   6.533 -0.1312 -0.4689  0.1557
    3MOL   C225 2269   4.536   3.320   6.445  0.3548 -0.3154 -0.8552
    3MOL   C226 2270   4.427   3.230   6.509 -0.3075  0.4618 -0.6295
    3MOL   C227 2271   4.542   3.357   6.308 -0.2573  0.3151 -1.0892
    3MOL   C228 2272   4.648   3.441   6.259 -0.0392  0.3091  0.2590
    3MOL   C229 2273   4.985   3.693   6.151 -0.9810  0.5340  0.0698
    3MOL   C230 2274   5.064   3.694   6.033  0.6577 -0.6131  0.3250
    3MOL   C231 2275   5.325   3.679   5.682 -0.4323 -0.1195 -0.3443
    3MOL   C232 2276   5.382   3.791   5.620  0.4732  0.0230  0.7319
    3MOL   C233 2277   5.572   4.081   5.688 -0.5790  0.0686  0.7816
    3MOL   C234 2278   5.704   4.118   5.684  0.8883 -0.0451 -0.0926
    3MOL   H235 2279   5.922   4.204   5.676 -1.0054 -0.3930  0.0206
    3MOL   H236 2280   5.740   4.177   5.351 -1.7868  0.0092 -1.6885
    3MOL   H237 2281   5.515   4.075   5.348 -0.2010 -1.2267 -0.2781
    3MOL   H238 2282   5.300   4.105   5.539  0.0992 -0.0373  1.9332
    3MOL   H239 2283   5.137   4.019   5.697  0.6847 -0.5547 -1.0359
    3MOL   H240 2284   5.052   3.826   5.803  1.4068  1.0703  1.3404
    3MOL   H241 2285   5.166   3.489   5.782  0.8584 -0.7288  2.5199
    3MOL   H242 2286   5.023   3.381   5.917  0.8746  0.6277  0.7926
    3MOL   H243 2287   4.883   3.367   6.118 -0.1076 -0.9049 -1.5132
    3MOL   H244 2288   4.909   3.608   6.391  0.2741 -0.9282  1.3441
    3MOL   H245 2289   4.818   3.480   6.551 -0.4901  1.0596 -0.0286
    3MOL   H246 2290   4.649   3.330   6.637 -1.9035  1.4569  0.8077
    3MOL   H247 2291   4.428   3.260   6.614  1.6573 -0.1401 -0.4719
    3MOL   H248 2292   4.456   3.127   6.491  0.6973  0.4156  1.1849
    3MOL   H249 2293   4.470   3.327   6.234 -0.9578  3.4859 -1.7484
    3MOL   H250 2294   4.648   3.448   6.151 -0.0065 -1.1643  0.1480
    3MOL   H251 2295   4.984   3.782   6.211 -1.6968 -0.2984  1.3233
    3MOL   H252 2296   5.111   3.790   6.014 -1.5875 -0.0242 -2.5753
    3MOL   H253 2297   5.372   3.583   5.697  0.1974 -0.1962 -2.6351
    3MOL   H254 2298   5.476   3.781   5.568  1.4640 -0.6864  2.5905
    3MOL   H255 2299   5.530   4.054   5.784  0.4440 -0.7867  0.9920
    3MOL   H256 2300   5.755   4.118   5.779 -0.2706 -0.4150  0.5496
    3MOL   N257 2301   4.299   3.262   6.449 -0.3043  0.0229 -0.6251
    3MOL   C258 2302   4.249   3.193   6.340 -0.1025 -0.1256 -0.6410
    3MOL   C259 2303   4.212   3.265   6.226  0.8983  0.2125 -0.2084
    3MOL   C260 2304   4.157   3.198   6.119 -0.9011 -0.1334  0.5143
    3MOL   C261 2305   4.140   3.059   6.120  0.0733 -0.6864 -0.0165
    3MOL   N262 2306   4.072   2.995   6.017 -1.0713  1.0210 -0.4826
    3MOL   C263 2307   4.051   3.049   5.892  0.0382  0.5188 -0.3452
    3MOL   C264 2308   4.154   3.094   5.812 -1.1988 -0.1365 -0.1408
    3MOL   C265 2309   4.123   3.157   5.686  0.7534  0.7363 -0.1660
    3MOL   C266 2310   3.993   3.153   5.637 -0.6678  0.7326  0.1995
    3MOL   N267 2311   3.963   3.196   5.509  0.0574 -0.3848  0.1625
    3MOL   C268 2312   4.045   3.279   5.432 -0.0709 -0.4027  0.0207
    3MOL   C269 2313   4.044   3.255   5.297 -0.1781  0.2163 -0.2083
    3MOL   C270 2314   4.134   3.323   5.213  0.0081  0.6733  0.3606
    3MOL   C271 2315   4.217   3.428   5.259 -0.4205 -0.2412  0.7307
    3MOL   N272 2316   4.297   3.491   5.167  0.0513  0.3759 -0.2236
    3MOL   C273 2317   4.383   3.599   5.192 -0.0190 -0.0583  0.7982
    3MOL   C274 2318   4.387   3.708   5.103  0.4897  0.9912 -0.5711
    3MOL   C275 2319   4.469   3.815   5.123 -0.2369 -0.4982 -0.4317
    3MOL   C276 2320   4.545   3.825   5.244 -0.1208  1.1082  0.4475
    3MOL   C277 2321   4.632   3.945   5.268 -0.1296 -0.7905  0.1289
    3MOL   C278 2322   4.537   3.724   5.341  0.7070  0.0314  0.4796
    3MOL   C279 2323   4.466   3.605   5.306  0.3319  0.0766 -0.0556
    3MOL   C280 2324   4.202   3.469   5.396 -0.2163 -0.2010  0.1537
    3MOL   C281 2325   4.111   3.395   5.479 -0.0380 -0.2135  0.7904
    3MOL   C282 2326   3.890   3.107   5.723 -0.1498  0.4205  0.0297
    3MOL   C283 2327   3.918   3.057   5.851 -0.0339 -0.5316  0.4610
    3MOL   C284 2328   4.189   2.981   6.228 -0.1488 -0.9464  1.0143
    3MOL   C285 2329   4.241   3.048   6.340  0.3816 -0.5602 -0.3757
    3MOL   H286 2330   4.304   3.362   6.438 -1.1495  0.0666 -0.6266
    3MOL   H287 2331   4.227   3.372   6.229 -0.4217  0.4292 -0.7811
    3MOL   H288 2332   4.117   3.261   6.041 -0.6553  0.2447  0.6898
    3MOL   H289 2333   4.063   2.896   6.029 -0.4519  1.1227  0.8506
    3MOL   H290 2334   4.256   3.096   5.846 -1.7594  2.5377  1.5514
    3MOL   H291 2335   4.207   3.176   5.621  0.8061  0.6625 -0.1199
    3MOL   H292 2336   3.874   3.173   5.469  0.8734  0.0417 -1.9563
    3MOL   H293 2337   3.980   3.182   5.251 -0.8858  1.8192 -1.7872
    3MOL   H294 2338   4.125   3.295   5.109  1.2440 -0.6281  0.5822
    3MOL   H295 2339   4.275   3.470   5.070 -3.1285 -0.2034  0.5781
    3MOL   H296 2340   4.305   3.715   5.033 -1.0820 -1.3974  0.9473
    3MOL   H297 2341   4.469   3.892   5.047 -1.5343 -1.7177 -1.7146
    3MOL   H298 2342   4.727   3.937   5.216 -0.3928  2.2660 -0.9048
    3MOL   H299 2343   4.661   3.942   5.374  0.6173 -1.4151 -0.0886
    3MOL   H300 2344   4.585   3.724   5.438 -1.2230 -2.0608  1.4961
    3MOL   H301 2345   4.457   3.519   5.370 -0.5563 -0.3215 -0.7000
    3MOL   H302 2346   4.261   3.553   5.431  1.1042 -0.5398 -1.2174
    3MOL   H303 2347   4.088   3.435   5.577  0.0866  0.3748  0.5855
    3MOL   H304 2348   3.788   3.122   5.692 -0.2207 -0.0158  0.0566
    3MOL   H305 2349   3.844   3.021   5.921  0.7309 -0.1786  1.4486
    3MOL   H306 2350   4.191   2.873   6.227  0.0058 -0.9421 -0.0202
    3MOL   H307 2351   4.255   2.982   6.424 -0.5654 -2.0164 -1.3422
    3MOL   N308 2352   4.577   4.073   5.240  0.0003 -0.5173 -0.0888
    3MOL   C309 2353   4.645   4.158   5.152 -0.2950  0.3481 -0.1149
    3MOL   C310 2354   4.773   4.206   5.177 -0.4453 -0.3752  0.0548
    3MOL   C311 2355   4.838   4.284   5.087  0.5765 -0.0551  0.2569
    3MOL   C312 2356   4.775   4.320   4.964 -0.4350 -0.2642  0.0306
    3MOL   N313 2357   4.838   4.392   4.866 -0.2379  0.5928  0.4477
    3MOL   C314 2358   4.920   4.506   4.870 -0.0878  0.2487  0.1311
    3MOL   C315 2359   4.991   4.551   4.753  0.3265  0.0050  0.0294
    3MOL   C316 2360   5.068   4.669   4.754 -0.1596  0.0101  0.6512
    3MOL   C317 2361   5.065   4.748   4.875  0.7654  0.4178  0.2979
    3MOL   N318 2362   5.127   4.874   4.880  0.1324 -0.7450  0.1254
    3MOL   C319 2363   5.136   4.963   4.775 -0.4958 -0.1781 -0.2578
    3MOL   C320 2364   5.260   5.020   4.750 -0.7635  0.6229 -0.2886
    3MOL   C321 2365   5.277   5.086   4.630  0.1319  0.3968  0.6133
    3MOL   C322 2366   5.177   5.093   4.528 -0.2855 -0.2992 -0.0032
    3MOL   N323 2367   5.220   5.146   4.402 -0.4873  0.2498 -0.0076
    3MOL   C324 2368   5.250   5.060   4.300 -0.3032 -0.6285 -0.6764
    3MOL   C325 2369   5.384   5.015   4.280  0.0274 -0.3150  0.0238
    3MOL   C326 2370   5.411   4.926   4.174 -0.3989  0.2691 -0.3503
    3MOL   C327 2371   5.315   4.878   4.085  0.8788 -0.4632  0.2777
    3MOL   C328 2372   5.354   4.778   3.973  0.0148 -0.5036 -0.0034
    3MOL   C329 2373   5.182   4.922   4.111  0.3223  0.4738 -0.5485
    3MOL   C330 2374   5.150   5.008   4.218  0.5595 -1.0817 -0.2765
    3MOL   C331 2375   5.053   5.044   4.553  0.7104 -0.8678 -0.1291
    3MOL   C332 2376   5.029   4.986   4.680 -0.0579 -0.0852 -0.2893
    3MOL   C333 2377   4.994   4.705   4.988 -0.2204  0.0842 -0.0149
    3MOL   C334 2378   4.923   4.586   4.983  0.5095  0.8090  0.5491
    3MOL   C335 2379   4.645   4.278   4.937  0.5570  0.3681 -0.3697
    3MOL   C336 2380   4.580   4.199   5.033  0.4040 -0.1934 -0.3789
    3MOL   H337 2381   4.478   4.069   5.219  0.3417 -0.3580 -1.8375
    3MOL   H338 2382   4.835   4.172   5.259 -1.9786  0.0143  1.3992
    3MOL   H339 2383   4.937   4.322   5.107  0.3811  0.9138 -0.6029
    3MOL   H340 2384   4.817   4.367   4.771  1.5525  0.2910  0.1106
    3MOL   H341 2385   4.986   4.496   4.660 -3.0780 -1.3551  0.9477
    3MOL   H342 2386   5.124   4.701   4.667 -0.2552 -0.3819  0.4423
    3MOL   H343 2387   5.160   4.895   4.973  0.7127 -0.2039 -0.1974
    3MOL   H344 2388   5.342   5.002   4.818  0.5671 -0.0341 -2.0361
    3MOL   H345 2389   5.375   5.123   4.602  1.0181 -1.3721  1.2753
    3MOL   H346 2390   5.284   5.224   4.408  0.8478 -0.8467  0.3168
    3MOL   H347 2391   5.470   5.040   4.341  0.0637 -1.8316  0.6146
    3MOL   H348 2392   5.515   4.896   4.163 -1.4957 -3.4642 -1.2233
    3MOL   H349 2393   5.305   4.812   3.881 -0.9561 -1.7030  0.0554
    3MOL   H350 2394   5.308   4.682   3.995 -2.1034  0.0732 -1.7128
    3MOL   H351 2395   5.101   4.881   4.052  1.1778 -1.6904 -0.2389
    3MOL   H352 2396   5.046   5.035   4.221  1.2042  1.6112 -1.3767
    3MOL   H353 2397   4.972   5.060   4.484  0.8828 -2.3964 -0.7008
    3MOL   H354 2398   4.930   4.948   4.700 -1.5449  2.8072 -1.8298
    3MOL   H355 2399   4.988   4.769   5.075  0.2934  0.5654 -0.3337
    3MOL   H356 2400   4.870   4.560   5.073  0.2954 -2.3325 -0.4174
    3MOL   H357 2401   4.591   4.303   4.848 -0.1340 -1.1736 -0.3999
    3MOL   H358 2402   4.479   4.167   5.014 -0.1870 -0.1395  2.4506
    3MOL   N359 2403   5.495   4.762   3.935 -0.0580  0.0338  0.3871
    3MOL   C360 2404   5.565   4.645   3.967  0.3305  0.1734 -0.1892
    3MOL   C361 2405   5.675   4.608   3.891  0.1268  0.0667 -0.8273
    3MOL   C362 2406   5.756   4.500   3.923  0.2119 -0.1381 -0.3612
    3MOL   C363 2407   5.725   4.420   4.034 -0.7769 -0.2038 -0.4926
    3MOL   N364 2408   5.808   4.316   4.083  0.2420  0.3853 -0.3484
    3MOL   C365 2409   5.907   4.237   4.025  0.3829  0.1559  0.4828
    3MOL   C366 2410   5.878   4.179   3.897 -0.6031  0.7007  0.2672
    3MOL   C367 2411   5.966   4.087   3.837  0.1342  0.0592 -0.1585
    3MOL   C368 2412   6.086   4.055   3.905  0.5376  0.5007  0.1765
    3MOL   N369 2413   6.181   3.976   3.836  0.7564 -0.1082 -0.3101
    3MOL   C370 2414   6.157   3.858   3.755 -0.6031 -0.0190 -0.5957
    3MOL   C371 2415   6.263   3.807   3.668  0.6302 -0.8337 -0.7515
    3MOL   C372 2416   6.231   3.699   3.589 -0.6909 -0.0539 -0.2758
    3MOL   C373 2417   6.100   3.638   3.591 -0.0952 -0.6036  0.5672
    3MOL   N374 2418   6.066   3.529   3.511 -0.4635 -0.4998  0.5013
    3MOL   C375 2419   6.131   3.476   3.399 -0.3245  0.3332 -0.3689
    3MOL   C376 2420   6.234   3.384   3.415  0.3117  1.0696  0.4338
    3MOL   C377 2421   6.304   3.336   3.297  0.4389  0.5071  0.6120
    3MOL   C378 2422   6.270   3.378   3.172  0.0905 -0.5993  0.5216
    3MOL   C379 2423   6.333   3.324   3.044  0.0147  0.6952  0.2847
    3MOL   C380 2424   6.163   3.470   3.160 -0.5228 -0.2674  0.2002
    3MOL   C381 2425   6.094   3.512   3.270 -0.3373 -0.7672 -0.4084
    3MOL   C382 2426   6.006   3.684   3.675  0.5219 -0.0106 -1.0470
    3MOL   C383 2427   6.037   3.789   3.759 -0.1360  0.0453 -0.1267
    3MOL   C384 2428   6.108   4.102   4.035  0.2942  0.4592 -0.7975
    3MOL   C385 2429   6.019   4.192   4.099 -0.3084  0.1450 -0.4469
    3MOL   C386 2430   5.616   4.444   4.109  0.7151 -0.0826 -0.0908
    3MOL   C387 2431   5.533   4.556   4.074  0.7665 -0.3183  0.0045
    3MOL   H388 2432   5.513   4.819   3.853  0.7920 -1.8730 -0.7884
    3MOL   H389 2433   5.691   4.673   3.805 -2.8174  1.7880 -0.1352
    3MOL   H390 2434   5.835   4.475   3.854  0.9036 -0.4246  0.5178
    3MOL   H391 2435   5.780   4.292   4.177 -2.3173 -0.5392 -1.3022
    3MOL   H392 2436   5.788   4.208   3.846 -0.6953  0.4584  0.2934
    3MOL   H393 2437   5.930   4.051   3.742  1.2195  0.8287 -0.8732
    3MOL   H394 2438   6.275   3.989   3.872  1.1113  1.9092 -1.8855
    3MOL   H395 2439   6.360   3.846   3.644  0.1632  0.2031 -0.9771
    3MOL   H396 2440   6.307   3.664   3.521  1.0038  0.4031  1.3595
    3MOL   H397 2441   5.967   3.518   3.491  0.0509 -2.7927 -0.9940
    3MOL   H398 2442   6.271   3.351   3.511 -0.1175 -3.9815 -0.9592
    3MOL   H399 2443   6.391   3.274   3.311  0.2191 -0.1619 -0.8859
    3MOL   H400 2444   6.407   3.248   3.068  0.0297  1.3083  2.2417
    3MOL   H401 2445   6.375   3.407   2.988 -0.8023  1.0353  0.1712
    3MOL   H402 2446   6.134   3.502   3.060 -1.1152  1.0872  0.7926
    3MOL   H403 2447   6.020   3.586   3.244 -0.4814 -0.5821  0.4893
    3MOL   H404 2448   5.913   3.631   3.689  0.6828  0.4030  2.0880
    3MOL   H405 2449   5.954   3.808   3.824  1.0201  0.3101  1.3007
    3MOL   H406 2450   6.198   4.074   4.086 -1.4680 -0.9467  1.5992
    3MOL   H407 2451   6.040   4.225   4.200 -1.1784  0.5226 -0.3816
    3MOL   H408 2452   5.592   4.380   4.194  0.1123 -0.9364 -0.8943
    3MOL   H409 2453   5.451   4.576   4.142  0.3854  0.3417 -0.6423
    3MOL   N410 2454   6.223   3.258   2.973  0.4728 -0.6526  0.9211
    3MOL   C411 2455   6.244   3.193   2.850 -0.0257 -0.5514 -0.0417
    3MOL   C412 2456   6.132   3.149   2.772  0.0619 -0.7084  0.1145
    3MOL   C413 2457   6.157   3.100   2.643  0.9057  0.0662 -0.2885
    3MOL   C414 2458   6.283   3.098   2.587  0.6353  0.3966  1.0181
    3MOL   N415 2459   6.305   3.048   2.454 -0.1438 -0.7563  0.8317
    3MOL   C416 2460   6.237   2.958   2.374  0.0118 -0.2447  0.3630
    3MOL   C417 2461   6.151   2.852   2.417  1.2186 -0.2540  0.3934
    3MOL   C418 2462   6.099   2.755   2.329 -0.3304 -0.1300 -0.1896
    3MOL   C419 2463   6.126   2.764   2.191  0.8135 -0.7596  0.0523
    3MOL   N420 2464   6.066   2.682   2.100 -0.0259  0.2401  0.6052
    3MOL   C421 2465   6.117   2.633   1.983 -0.9136 -0.0477  0.3387
    3MOL   C422 2466   6.035   2.606   1.876 -0.9848  0.1971  0.0996
    3MOL   C423 2467   6.086   2.561   1.750 -0.3378  0.0564  0.7928
    3MOL   C424 2468   6.223   2.537   1.735 -0.8445  0.4047 -0.3250
    3MOL   N425 2469   6.278   2.483   1.619  0.6752  0.0046  0.0692
    3MOL   C426 2470   6.221   2.392   1.522  0.1012 -0.2226  0.4938
    3MOL   C427 2471   6.091   2.335   1.522  0.3279  0.1533  0.1540
    3MOL   C428 2472   6.056   2.243   1.411 -0.1395  0.0197  0.3946
    3MOL   C429 2473   6.155   2.200   1.315  0.0353 -0.1946 -0.6094
    3MOL   C430 2474   6.124   2.106   1.203 -0.2364  0.0438  0.4831
    3MOL   C431 2475   6.285   2.261   1.314  0.0705  0.5834  0.0873
    3MOL   C432 2476   6.313   2.358   1.421  0.1071  0.8566  0.2074
    3MOL   C433 2477   6.308   2.572   1.839 -0.2836 -0.1900 -0.5121
    3MOL   C434 2478   6.260   2.620   1.960 -0.2543 -0.2959 -0.4790
    3MOL   C435 2479   6.205   2.874   2.149  0.2494  0.5004  0.0211
    3MOL   C436 2480   6.259   2.965   2.237  0.3074 -1.1162 -0.4314
    3MOL   C437 2481   6.391   3.133   2.665 -1.4814  0.9707  0.4368
    3MOL   C438 2482   6.377   3.185   2.795  0.3459  0.4942  0.5194
    3MOL   H439 2483   6.132   3.266   3.015  0.5468 -0.4956  1.0492
    3MOL   H440 2484   6.029   3.156   2.803  0.3207  1.3607  0.5735
    3MOL   H441 2485   6.077   3.073   2.576  0.0767  0.8219  0.3897
    3MOL   H442 2486   6.395   3.069   2.412 -2.0410  1.8122 -2.0981
    3MOL   H443 2487   6.135   2.825   2.521  0.0661  0.9691  0.5419
    3MOL   H444 2488   6.029   2.676   2.355 -0.4915 -0.4486 -1.5108
    3MOL   H445 2489   5.998   2.622   2.145  0.1387 -0.5817 -0.2315
    3MOL   H446 2490   5.937   2.653   1.878  0.7076  3.9182 -0.7602
    3MOL   H447 2491   6.017   2.543   1.668  0.4568  4.6916 -1.0776
    3MOL   H448 2492   6.378   2.484   1.615  0.6578  1.0681 -0.0846
    3MOL   H449 2493   6.018   2.360   1.598  1.2820  1.7897  0.5635
    3MOL   H450 2494   5.957   2.202   1.405 -1.3342  2.9112 -0.5838
    3MOL   H451 2495   6.194   2.023   1.201  0.4013  0.6077 -2.3777
    3MOL   H452 2496   6.138   2.171   1.117  0.1856 -0.7893 -0.0839
    3MOL   H453 2497   6.356   2.232   1.238 -1.1336 -1.9947 -0.1055
    3MOL   H454 2498   6.406   2.412   1.424  0.2543  0.5455  2.1362
    3MOL   H455 2499   6.413   2.550   1.827 -0.6283 -0.7269 -2.8822
    3MOL   H456 2500   6.333   2.644   2.036  1.0242  1.6843 -2.2663
    3MOL   H457 2501   6.223   2.876   2.042 -2.5853  0.6112 -0.5093
    3MOL   H458 2502   6.310   3.045   2.187  0.2509 -2.3711 -2.5863
    3MOL   H459 2503   6.493   3.133   2.631 -1.0149 -1.9916  1.6765
    3MOL   H460 2504   6.468   3.222   2.840  0.3160  1.4608 -0.1887
    3MOL   N461 2505   5.994   2.042   1.202  0.5172  0.0798  0.0714
    3MOL   C462 2506   5.937   1.992   1.080 -0.5657 -0.1282 -0.5020
    3MOL   C463 2507   5.789   1.993   1.073 -0.4815  0.2761  0.1387
    3MOL   C464 2508   5.735   1.954   0.950  0.3110 -0.2634 -0.6437
    3MOL   C465 2509   5.812   1.911   0.845  0.1211 -0.5251  0.2655
    3MOL   N466 2510   5.752   1.865   0.730  0.7848  1.1077 -0.0879
    3MOL   C467 2511   5.761   1.931   0.608 -0.1081 -0.4199  0.2607
    3MOL   C468 2512   5.874   2.004   0.572  0.3603  0.3362 -0.5989
    3MOL   C469 2513   5.878   2.071   0.451  0.0299 -0.7711 -0.1988
    3MOL   C470 2514   5.773   2.062   0.359  0.4816  0.5692 -0.6927
    3MOL   N471 2515   5.777   2.126   0.239  0.3442  0.9688  0.1730
    3MOL   C472 2516   5.893   2.144   0.165 -0.1804  0.1110  0.6444
    3MOL   C473 2517   5.963   2.037   0.113 -0.1183  0.0481 -0.5212
    3MOL   C474 2518   6.057   2.067   0.010  0.0910 -0.2286  0.2075
    3MOL   C475 2519   6.084   2.202   7.940 -1.0735  0.1289  0.2998
    3MOL   N476 2520   6.158   2.230   7.825  1.2890 -0.0283 -1.4089
    3MOL   C477 2521   6.179   2.143   7.719 -0.4264  0.0466  0.3214
    3MOL   C478 2522   6.091   2.147   7.618  0.6617  0.6565 -0.1176
    3MOL   C479 2523   6.094   2.055   7.516  0.1371  0.2093  0.2065
    3MOL   C480 2524   6.207   1.965   7.504 -0.3097 -0.0915 -0.5484
    3MOL   C481 2525   6.217   1.877   7.384 -0.0895  0.1100  0.8117
    3MOL   C482 2526   6.300   1.957   7.612 -0.6547 -0.3288 -0.7877
    3MOL   C483 2527   6.286   2.048   7.719 -0.0099  0.3150  0.2693
    3MOL   C484 2528   6.011   2.303   0.022  0.6477 -0.0381  1.3542
    3MOL   C485 2529   5.917   2.276   0.119 -0.3410 -0.5960 -0.8746
    3MOL   C486 2530   5.658   1.988   0.391 -0.1712  0.3960 -0.5526
    3MOL   C487 2531   5.655   1.923   0.516 -0.1199  0.2254  0.5575
    3MOL   C488 2532   5.948   1.895   0.863 -0.1621  0.4847 -0.2959
    3MOL   C489 2533   6.017   1.936   0.977 -0.7946  0.0094  0.3378
    3MOL   H490 2534   5.935   2.068   1.280 -0.3435 -2.0727  0.1616
    3MOL   H491 2535   5.727   2.030   1.153 -1.3088 -0.9489  0.0852
    3MOL   H492 2536   5.627   1.959   0.943  0.2647  1.9304  1.1918
    3MOL   H493 2537   5.660   1.830   0.752  0.0402  3.2909  0.3109
    3MOL   H494 2538   5.959   2.020   0.637 -0.8110  0.5362  0.9132
    3MOL   H495 2539   5.959   2.141   0.434 -0.5919 -0.0812 -0.3288
    3MOL   H496 2540   5.690   2.148   0.192 -0.5343 -1.3923  0.6159
    3MOL   H497 2541   5.955   1.936   0.150  0.6768 -0.0188 -0.5244
    3MOL   H498 2542   6.102   1.985   7.938  0.1765  0.4098 -0.7031
    3MOL   H499 2543   6.180   2.326   7.807  1.2262  0.2651  0.0164
    3MOL   H500 2544   6.017   2.227   7.619 -0.6905 -0.5708  1.5519
    3MOL   H501 2545   6.023   2.056   7.435  2.1938 -0.1098 -1.6367
    3MOL   H502 2546   6.234   1.773   7.413 -0.4609 -0.5041 -1.1085
    3MOL   H503 2547   6.304   1.923   7.337  1.2647 -0.3509  2.7932
    3MOL   H504 2548   6.373   1.878   7.607  0.1388  0.3704 -0.4623
    3MOL   H505 2549   6.355   2.054   7.802 -0.6655  0.9787  0.7735
    3MOL   H506 2550   6.031   2.408   0.005 -1.1310 -0.1268 -1.6765
    3MOL   H507 2551   5.858   2.358   0.157 -0.2489 -1.0183  0.2146
    3MOL   H508 2552   5.575   1.988   0.323  0.7527 -0.5693 -1.7080
    3MOL   H509 2553   5.572   1.858   0.541 -0.3430  0.0437 -0.6203
    3MOL   H510 2554   6.021   1.855   0.794  0.6607  0.2077  0.7229
    3MOL   H511 2555   6.125   1.935   0.985 -0.8116  0.5388  0.6447
    3MOL   N512 2556   6.104   1.885   7.294  0.3586  0.2453  0.2528
    3MOL   C513 2557   5.999   1.792   7.309  0.3685  0.9260 -0.2781
    3MOL   C514 2558   5.979   1.723   7.429  0.6102  0.1265 -0.3763
    3MOL   C515 2559   5.876   1.628   7.442 -0.3722  0.0520  0.5440
    3MOL   C516 2560   5.773   1.616   7.340  0.5582 -0.7030  0.0321
    3MOL   N517 2561   5.672   1.522   7.352 -0.1781  0.2212 -1.2998
    3MOL   C518 2562   5.578   1.480   7.260  0.2575 -0.6849 -0.3642
    3MOL   C519 2563   5.445   1.508   7.292 -0.3139  0.7560 -0.1442
    3MOL   C520 2564   5.343   1.471   7.200 -0.2211  0.0897  0.1397
    3MOL   C521 2565   5.378   1.390   7.087 -0.1722 -0.2406 -0.0560
    3MOL   N522 2566   5.274   1.360   6.997  0.4646  0.1289 -0.0834
    3MOL   C523 2567   5.277   1.297   6.874 -0.0765  0.4848  0.5952
    3MOL   C524 2568   5.194   1.186   6.853 -0.8213 -0.3782  0.7531
    3MOL   C525 2569   5.199   1.115   6.731  0.0127 -0.2801 -0.2970
    3MOL   C526 2570   5.276   1.159   6.622  0.0849 -0.5030  0.7756
    3MOL   N527 2571   5.279   1.095   6.501 -0.0798  0.0497  1.0999
    3MOL   C528 2572   5.298   0.960   6.470 -0.2893 -0.1241 -0.3442
    3MOL   C529 2573   5.259   0.922   6.334  0.5731  0.7872 -0.2521
    3MOL   C530 2574   5.274   0.787   6.294 -0.4142 -0.1040  0.5507
    3MOL   C531 2575   5.333   0.694   6.389  0.0607  1.1355  0.1368
    3MOL   C532 2576   5.362   0.556   6.336  0.0464 -0.0987  0.1956
    3MOL   C533 2577   5.347   0.735   6.522 -0.5277 -0.0537  0.2016
    3MOL   C534 2578   5.340   0.869   6.571 -0.0671 -0.3432 -0.6421
    3MOL   C535 2579   5.353   1.279   6.637 -0.5121 -0.3539  0.2094
    3MOL   C536 2580   5.353   1.347   6.761  0.4111 -0.5691  0.2893
    3MOL   C537 2581   5.512   1.359   7.055 -0.0369 -0.4161  0.8073
    3MOL   C538 2582   5.613   1.412   7.139  0.6276 -1.0465  0.0033
    3MOL   C539 2583   5.795   1.695   7.225  0.4379 -0.3664  0.2570
    3MOL   C540 2584   5.913   1.769   7.196 -0.6044 -0.0430 -0.2979
    3MOL   H541 2585   6.126   1.931   7.207  0.4980  0.4101  0.3751
    3MOL   H542 2586   6.031   1.733   7.522  0.5561 -1.3144 -0.1782
    3MOL   H543 2587   5.875   1.566   7.530 -0.0365  1.0116  1.2315
    3MOL   H544 2588   5.655   1.500   7.449  0.4347  1.5399 -0.8744
    3MOL   H545 2589   5.422   1.566   7.380 -3.1602 -0.6639  0.1041
    3MOL   H546 2590   5.241   1.496   7.222 -0.3761  1.3312 -1.8751
    3MOL   H547 2591   5.186   1.343   7.044  0.5819 -1.5607 -0.4573
    3MOL   H548 2592   5.120   1.160   6.926  0.2591  0.2986  2.1160
    3MOL   H549 2593   5.144   1.025   6.710 -1.7053  1.3015 -2.8521
    3MOL   H550 2594   5.265   1.154   6.420  0.9657 -1.4830 -0.2439
    3MOL   H551 2595   5.224   0.996   6.264 -0.3261 -0.5157 -1.1901
    3MOL   H552 2596   5.246   0.758   6.194  0.6645  0.2822  0.1310
    3MOL   H553 2597   5.424   0.566   6.246  1.5844 -0.1556  1.2332
    3MOL   H554 2598   5.273   0.502   6.301 -0.7416  0.6220  1.0872
    3MOL   H555 2599   5.383   0.656   6.586 -2.4659 -1.0146  0.1353
    3MOL   H556 2600   5.363   0.897   6.673  0.1707  0.7549 -0.9885
    3MOL   H557 2601   5.424   1.312   6.563  0.0886 -1.5502  0.2400
    3MOL   H558 2602   5.414   1.435   6.774 -0.3784 -0.1506  1.2868
    3MOL   H559 2603   5.530   1.293   6.971  1.5672  0.0287  0.8046
    3MOL   H560 2604   5.718   1.405   7.113  1.2036 -0.9612  2.1336
    3MOL   H561 2605   5.725   1.685   7.143 -0.3936 -1.2312  1.0622
    3MOL   H562 2606   5.920   1.818   7.101  0.0638 -1.3760 -0.9473
    3MOL   N563 2607   5.449   0.468   6.421  0.6279 -0.0197 -0.0465
    3MOL   C564 2608   5.579   0.497   6.462  0.6864 -0.4833  0.1392
    3MOL   C565 2609   5.645   0.612   6.421  0.1032 -0.2866 -0.7491
    3MOL   C566 2610   5.778   0.637   6.472 -0.8172 -0.9672  0.0798
    3MOL   C567 2611   5.837   0.554   6.566  0.5074 -0.5198 -0.0387
    3MOL   N568 2612   5.969   0.586   6.610 -0.4190  1.1050  0.2531
    3MOL   C569 2613   6.021   0.710   6.624  0.2754 -0.1122 -0.7797
    3MOL   C570 2614   5.953   0.809   6.690  0.1534 -0.3446 -0.0863
    3MOL   C571 2615   6.013   0.940   6.696  0.2459  0.4164 -0.6331
    3MOL   C572 2616   6.126   0.978   6.626  0.7955 -0.5504  0.0908
    3MOL   N573 2617   6.166   1.112   6.619 -0.0661  0.4433 -0.1852
    3MOL   C574 2618   6.297   1.163   6.591 -0.0521  0.0453 -0.1971
    3MOL   C575 2619   6.307   1.290   6.538  0.1951  0.1043  0.4857
    3MOL   C576 2620   6.436   1.345   6.509  0.3887  0.2190  0.4227
    3MOL   C577 2621   6.552   1.270   6.530 -0.2672 -0.0351  0.4076
    3MOL   N578 2622   6.676   1.315   6.485 -0.1087  0.0951  0.7349
    3MOL   C579 2623   6.708   1.359   6.356  0.8637 -0.4874 -0.6994
    3MOL   C580 2624   6.639   1.318   6.243  0.2068  0.7470 -0.7901
    3MOL   C581 2625   6.692   1.342   6.112 -0.1843  0.2753 -0.0686
    3MOL   C582 2626   6.823   1.400   6.099  0.0836  0.3205  0.1757
    3MOL   C583 2627   6.892   1.406   5.967 -1.0440  0.5361 -0.1384
    3MOL   C584 2628   6.891   1.448   6.215 -0.0957 -0.6285 -0.2435
    3MOL   C585 2629   6.830   1.427   6.337 -0.0242 -0.0022  0.6540
    3MOL   C586 2630   6.542   1.145   6.595  0.0231  0.7423  0.0952
    3MOL   C587 2631   6.414   1.088   6.614 -0.2462 -0.3343 -0.0315
    3MOL   C588 2632   6.191   0.878   6.551  0.4524  0.3656  0.4770
    3MOL   C589 2633   6.140   0.747   6.553  0.2223  0.7560 -0.1220
    3MOL   C590 2634   5.768   0.446   6.617  0.3344 -0.7023  0.3598
    3MOL   C591 2635   5.642   0.413   6.560  0.3435 -0.6116 -0.3471
    3MOL   H592 2636   5.402   0.392   6.470  2.0608 -0.6036  0.4490
    3MOL   H593 2637   5.604   0.691   6.361 -1.0385 -0.3055 -0.0154
    3MOL   H594 2638   5.833   0.718   6.429  2.3753 -3.1258 -0.0938
    3MOL   H595 2639   5.989   0.524   6.687 -0.2735  2.2496  1.1549
    3MOL   H596 2640   5.863   0.784   6.743  0.3026  2.3550  1.5398
    3MOL   H597 2641   5.961   1.015   6.753  0.1745  0.8243 -1.2335
    3MOL   H598 2642   6.083   1.165   6.642 -1.1895 -1.6854  0.8269
    3MOL   H599 2643   6.225   1.358   6.524  0.5041 -0.2057 -3.3787
    3MOL   H600 2644   6.432   1.446   6.471 -0.5125  0.4723  1.1723
    3MOL   H601 2645   6.758   1.322   6.543  0.0999 -0.7951  0.5539
    3MOL   H602 2646   6.552   1.257   6.264 -0.8934  1.9301 -1.8882
    3MOL   H603 2647   6.642   1.302   6.025 -1.9026 -1.0166  1.4694
    3MOL   H604 2648   6.949   1.500   5.968  0.3833 -0.3368  2.2983
    3MOL   H605 2649   6.822   1.410   5.883 -1.1057 -0.1766 -0.1237
    3MOL   H606 2650   6.990   1.490   6.207 -0.7575  0.9570 -0.1971
    3MOL   H607 2651   6.889   1.456   6.423 -1.3894  0.2965  1.5069
    3MOL   H608 2652   6.632   1.088   6.615  0.0367  0.0443 -1.8267
    3MOL   H609 2653   6.418   0.991   6.660  1.8817 -0.0477  0.4049
    3MOL   H610 2654   6.272   0.906   6.484  0.7943 -2.2806 -0.3025
    3MOL   H611 2655   6.190   0.664   6.504  1.8040  1.3140  0.5105
    3MOL   H612 2656   5.817   0.381   6.688  1.8359 -0.1767 -0.1859
    3MOL   H613 2657   5.588   0.325   6.594  1.2456 -1.1714 -0.3558
    3MOL   N614 2658   6.985   1.293   5.947  0.3517 -0.6918  0.0206
    3MOL   C615 2659   7.058   1.281   5.829 -0.4924 -0.4030  0.7943
    3MOL   C616 2660   7.131   1.164   5.809 -0.1672 -0.8251 -0.0689
    3MOL   C617 2661   7.209   1.141   5.696 -0.0810  1.0919  0.8189
    3MOL   C618 2662   7.213   1.238   5.597  0.0612 -0.4169 -0.0755
    3MOL   N619 2663   7.295   1.217   5.488  0.0670 -0.5783  0.3846
    3MOL   C620 2664   7.282   1.246   5.353  0.5014  0.0611 -0.6411
    3MOL   C621 2665   7.382   1.186   5.265 -0.0662  0.1020  0.0576
    3MOL   C622 2666   7.379   1.199   5.126 -0.3090 -0.1405  0.4977
    3MOL   C623 2667   7.274   1.271   5.064 -0.1051 -0.3974 -1.0682
    3MOL   N624 2668   7.255   1.292   4.925  0.3473 -0.2760 -0.8246
    3MOL   C625 2669   7.345   1.310   4.818 -0.2733  0.2555  0.1965
    3MOL   C626 2670   7.485   1.306   4.828  0.4256  0.5056  0.0902
    3MOL   C627 2671   7.556   1.315   4.706  0.5224 -1.1125 -0.4162
    3MOL   C628 2672   7.498   1.328   4.583  0.5982  0.0060 -0.6247
    3MOL   N629 2673   7.578   1.323   4.469 -0.3603  0.3698 -0.4500
    3MOL   C630 2674   7.562   1.376   4.340 -0.0429  0.5974  0.5704
    3MOL   C631 2675   7.508   1.500   4.308 -0.2909  0.1799 -0.8596
    3MOL   C632 2676   7.508   1.540   4.176  0.6706  0.0970  0.0050
    3MOL   C633 2677   7.557   1.468   4.067 -0.0343 -0.3391  0.4057
    3MOL   C634 2678   7.582   1.518   3.928 -0.4361  0.0452 -0.2992
    3MOL   C635 2679   7.615   1.345   4.100 -0.6042  0.5958  0.1329
    3MOL   C636 2680   7.612   1.293   4.234  0.0435  0.0677 -0.1646
    3MOL   C637 2681   7.355   1.339   4.575 -0.1109 -0.4308 -0.3428
    3MOL   C638 2682   7.284   1.330   4.695 -0.2393 -0.2958  0.2381
    3MOL   C639 2683   7.173   1.318   5.147  1.1085 -0.3306 -0.1764
    3MOL   C640 2684   7.169   1.304   5.293  0.2838 -0.1078 -0.3708
    3MOL   C641 2685   7.137   1.361   5.612  0.2517 -0.4720  0.4269
    3MOL   C642 2686   7.050   1.371   5.722  0.4795 -0.1703 -0.4940
    3MOL   H643 2687   6.970   1.215   6.009  0.0606 -1.2482 -0.7345
    3MOL   H644 2688   7.123   1.094   5.890 -0.3962  0.1365  0.7456
    3MOL   H645 2689   7.266   1.051   5.678 -2.3479 -0.2476  0.1354
    3MOL   H646 2690   7.348   1.134   5.514  1.4573 -0.1691 -1.0670
    3MOL   H647 2691   7.463   1.127   5.306 -1.2748 -1.2610  0.5723
    3MOL   H648 2692   7.450   1.142   5.068 -0.1954  0.2730  0.2363
    3MOL   H649 2693   7.166   1.315   4.883  0.6088 -3.7897 -3.5296
    3MOL   H650 2694   7.520   1.283   4.928 -2.9191  0.4266  1.3064
    3MOL   H651 2695   7.664   1.317   4.707  0.4985  0.3500  0.5796
    3MOL   H652 2696   7.667   1.274   4.473 -1.3297 -1.4084  0.0132
    3MOL   H653 2697   7.487   1.565   4.391  2.0029  2.2469 -1.8447
    3MOL   H654 2698   7.463   1.634   4.147 -0.0284 -0.0858  0.4998
    3MOL   H655 2699   7.525   1.458   3.858  2.5451 -0.4606 -2.3720
    3MOL   H656 2700   7.686   1.499   3.903 -0.6930 -0.5011 -0.9727
    3MOL   H657 2701   7.655   1.285   4.019 -0.9059  0.3493  0.1621
    3MOL   H658 2702   7.663   1.200   4.256 -0.0305 -0.5415 -2.4424
    3MOL   H659 2703   7.298   1.348   4.484  0.7306 -0.9297 -0.9370
    3MOL   H660 2704   7.177   1.322   4.685 -0.2953 -0.2259  0.7921
    3MOL   H661 2705   7.087   1.368   5.105  1.2616  0.6175  0.6267
    3MOL   H662 2706   7.084   1.344   5.346  0.1487 -1.5831  0.5643
    3MOL   H663 2707   7.134   1.437   5.535  4.4776  0.2908  0.8985
    3MOL   H664 2708   6.977   1.449   5.729  0.8750  0.1712 -0.1572
    3MOL   N665 2709   7.557   1.660   3.914 -0.1966 -0.0537  0.3258
    3MOL   C666 2710   7.605   1.729   3.804 -0.3139  0.8823 -0.4237
    3MOL   C667 2711   7.651   1.863   3.832  0.1694 -0.1804 -0.2204
    3MOL   C668 2712   7.689   1.944   3.718 -0.3313 -0.7084 -0.4779
    3MOL   C669 2713   7.693   1.891   3.583  0.0772  0.7434 -0.1060
    3MOL   N670 2714   7.722   1.964   3.470  0.0102 -0.0909 -0.4332
    3MOL   C671 2715   7.757   2.103   3.465 -0.1187 -0.8127  1.2225
    3MOL   C672 2716   7.877   2.130   3.398  0.2119 -1.2558  0.4045
    3MOL   C673 2717   7.928   2.258   3.405 -0.1371 -0.5167 -0.2632
    3MOL   C674 2718   7.861   2.359   3.479 -0.0798  0.6603  0.4071
    3MOL   N675 2719   7.896   2.496   3.478 -0.0353  0.4160  0.2853
    3MOL   C676 2720   0.046   2.546   3.478  0.9658 -0.0422 -0.7875
    3MOL   C677 2721   0.063   2.676   3.419  0.8019 -0.3343  0.4965
    3MOL   C678 2722   0.187   2.738   3.410  0.2860 -0.3328  0.1317
    3MOL   C679 2723   0.298   2.667   3.465 -0.2924 -0.0364  0.5980
    3MOL   N680 2724   0.421   2.734   3.456 -0.6741 -0.0057 -0.3444
    3MOL   C681 2725   0.465   2.820   3.552 -0.1572  0.1702 -0.1293
    3MOL   C682 2726   0.602   2.852   3.546 -0.0568  0.2367 -0.2766
    3MOL   C683 2727   0.654   2.947   3.640  0.1029  0.1801  0.0760
    3MOL   C684 2728   0.571   3.008   3.736 -0.3537  0.7130  0.0683
    3MOL   C685 2729   0.639   3.103   3.839  0.1188  0.1052  0.6934
    3MOL   C686 2730   0.433   2.976   3.738  0.8045 -0.0282 -0.1652
    3MOL   C687 2731   0.382   2.881   3.652 -0.4880 -0.0007  0.4919
    3MOL   C688 2732   0.277   2.553   3.542  0.1546  0.0789 -0.5337
    3MOL   C689 2733   0.151   2.491   3.552  0.1019  0.6976 -0.0399
    3MOL   C690 2734   7.739   2.330   3.546 -0.0606  0.2019 -1.2699
    3MOL   C691 2735   7.688   2.196   3.541  0.2485 -0.1928 -0.1873
    3MOL   C692 2736   7.648   1.762   3.563 -0.6601  0.2711  0.1835
    3MOL   C693 2737   7.608   1.678   3.671 -0.0384  0.1766 -0.3080
    3MOL   H694 2738   7.599   1.707   3.993  1.6928 -2.8521  1.1006
    3MOL   H695 2739   7.660   1.897   3.934 -1.4930 -0.2650 -0.0303
    3MOL   H696 2740   7.718   2.046   3.738 -2.4951  0.2750 -2.0795
    3MOL   H697 2741   7.725   1.905   3.388  1.3994  0.8185 -1.0597
    3MOL   H698 2742   7.939   2.067   3.336 -0.1012  1.2534 -2.5403
    3MOL   H699 2743   0.034   2.281   3.347 -0.1764  0.4172  0.0431
    3MOL   H700 2744   7.814   2.547   3.449  0.2441  0.0046 -1.2805
    3MOL   H701 2745   7.966   2.728   3.368  1.0524 -0.5369 -0.0964
    3MOL   H702 2746   0.196   2.829   3.352 -1.7381  0.1314  0.5217
    3MOL   H703 2747   0.498   2.679   3.422  0.8822  1.3892  0.8871
    3MOL   H704 2748   0.661   2.804   3.469  0.1674 -0.8683  0.5786
    3MOL   H705 2749   0.760   2.965   3.632  0.2722 -0.9959 -0.5689
    3MOL   H706 2750   0.607   3.206   3.830 -0.1924  0.1558  2.2660
    3MOL   H707 2751   0.745   3.103   3.812  0.2982 -1.5987  1.3228
    3MOL   H708 2752   0.372   3.030   3.809  0.0446 -0.9917 -0.0749
    3MOL   H709 2753   0.276   2.863   3.653 -0.5076  0.0943  1.7183
    3MOL   H710 2754   0.358   2.514   3.601 -0.1792  1.8736  1.1474
    3MOL   H711 2755   0.136   2.401   3.611 -1.4690  0.3747 -0.9003
    3MOL   H712 2756   7.695   2.400   3.616 -0.1447 -0.9490 -0.1720
    3MOL   H713 2757   7.598   2.172   3.597 -0.1699 -0.1518 -0.8348
    3MOL   H714 2758   7.632   1.728   3.461  0.1830 -1.6716  0.6825
    3MOL   H715 2759   7.568   1.580   3.645  0.7854  0.5417 -3.1371
    3MOL   N716 2760   0.634   3.056   3.976  0.0771  0.0142  0.2089
    3MOL   C717 2761   0.712   3.123   4.068 -0.1040 -0.0527  0.2727
    3MOL   C718 2762   0.698   3.101   4.206 -0.8598 -0.2737  0.4759
    3MOL   C719 2763   0.780   3.164   4.305  0.4115 -0.7042  0.1927
    3MOL   C720 2764   0.875   3.260   4.269 -0.5410 -0.3281  0.0167
    3MOL   N721 2765   0.956   3.322   4.365 -0.2904 -0.0756 -0.0371
    3MOL   C722 2766   0.922   3.359   4.497 -0.0244  0.4370 -0.0794
    3MOL   C723 2767   0.791   3.395   4.535  0.5392 -1.1186  0.1133
    3MOL   C724 2768   0.761   3.441   4.667 -0.5933 -0.7182 -0.3196
    3MOL   C725 2769   0.866   3.445   4.761 -0.0262 -0.8353 -0.2822
    3MOL   N726 2770   0.838   3.500   4.888  0.3406  0.4006  0.8357
    3MOL   C727 2771   0.804   3.426   5.002  0.5128  1.0263 -0.1604
    3MOL   C728 2772   0.714   3.319   4.995 -0.1557  0.1290  0.2669
    3MOL   C729 2773   0.682   3.250   5.111 -0.1111  0.2210  0.7271
    3MOL   C730 2774   0.738   3.282   5.234  0.5136 -1.2460 -0.4218
    3MOL   N731 2775   0.705   3.208   5.348  0.2555 -0.0938 -0.3409
    3MOL   C732 2776   0.605   3.113   5.359  0.0092 -0.2707 -0.9286
    3MOL   C733 2777   0.496   3.128   5.450 -1.2098  0.0747  0.1296
    3MOL   C734 2778   0.393   3.041   5.461 -0.5595 -0.4105  0.3548
    3MOL   C735 2779   0.389   2.929   5.370 -0.1173 -0.3419 -0.2711
    3MOL   C736 2780   0.275   2.835   5.378 -0.5575  0.3991 -0.3757
    3MOL   C737 2781   0.492   2.905   5.285 -0.7802 -0.0133 -0.5915
    3MOL   C738 2782   0.601   2.998   5.280  0.0977 -0.4940  0.0442
    3MOL   C739 2783   0.822   3.396   5.248 -0.7560 -0.2051  0.4462
    3MOL   C740 2784   0.858   3.474   5.132  0.5885 -0.3306  0.5838
    3MOL   C741 2785   0.998   3.414   4.727  0.0593  0.7502 -0.5166
    3MOL   C742 2786   1.026   3.375   4.599  0.2578  0.0434  0.9062
    3MOL   C743 2787   0.895   3.285   4.131  0.8654  0.1022 -0.2662
    3MOL   C744 2788   0.813   3.216   4.033  0.0856 -0.7508 -0.1378
    3MOL   H745 2789   0.545   3.022   4.012 -0.6372 -1.2890 -2.6459
    3MOL   H746 2790   0.623   3.033   4.241  0.2929 -1.0355  1.4759
    3MOL   H747 2791   0.755   3.152   4.409  0.5990  1.0844  0.4448
    3MOL   H748 2792   1.037   3.365   4.324  0.7398  0.2353  2.2689
    3MOL   H749 2793   0.709   3.389   4.466  0.3061 -1.9368  0.4513
    3MOL   H750 2794   0.660   3.467   4.692 -0.5677 -1.5169  0.6623
    3MOL   H751 2795   0.919   3.554   4.913  0.4078  0.6900  0.0115
    3MOL   H752 2796   0.668   3.286   4.903  0.6672 -0.4010  0.0501
    3MOL   H753 2797   0.605   3.176   5.094  0.3049 -0.5456  2.0360
    3MOL   H754 2798   0.715   3.265   5.431  2.1583  1.9256 -1.8683
    3MOL   H755 2799   0.487   3.222   5.504  0.3320  1.0971 -1.3447
    3MOL   H756 2800   0.313   3.059   5.530 -2.9187 -1.0301 -2.1207
    3MOL   H757 2801   0.278   2.793   5.479 -0.3578 -0.8259 -0.8795
    3MOL   H758 2802   0.294   2.759   5.302  0.6116  1.2070 -0.8965
    3MOL   H759 2803   0.473   2.824   5.217 -2.0040  0.0283 -0.3279
    3MOL   H760 2804   0.690   2.973   5.224 -0.7607 -0.3490 -1.4274
    3MOL   H761 2805   0.869   3.419   5.342  0.5870  0.6404 -0.4202
    3MOL   H762 2806   0.918   3.563   5.143  1.0875 -0.6886  0.7286
    3MOL   H763 2807   1.083   3.429   4.793 -0.7328 -0.4508  0.8091
    3MOL   H764 2808   1.128   3.345   4.578  0.7957  1.6994  1.0753
    3MOL   H765 2809   0.960   3.366   4.101 -1.3944  1.8848 -0.5203
    3MOL   H766 2810   0.839   3.241   3.931 -2.0367  2.3075  0.0284
    3MOL   N767 2811   0.149   2.906   5.354 -0.1840 -0.1470 -0.2351
    3MOL   C768 2812   0.034   2.836   5.379 -0.5792 -0.1654 -0.2738
    3MOL   C769 2813   0.030   2.717   5.455  0.4091  0.4411 -0.5436
    3MOL   C770 2814   7.896   2.652   5.490 -0.3293 -0.0990 -0.0309
    3MOL   C771 2815   7.773   2.704   5.446 -0.3423  0.3373  0.0214
    3MOL   N772 2816   7.660   2.627   5.479 -0.0699 -0.6175  0.0610
    3MOL   C773 2817   7.527   2.662   5.497 -0.0233  0.0721  0.3201
    3MOL   C774 2818   7.429   2.561   5.480 -0.0308 -0.8811  0.9617
    3MOL   C775 2819   7.293   2.595   5.458 -0.0749 -0.3669 -0.2584
    3MOL   C776 2820   7.252   2.733   5.476  0.2123 -0.2679 -0.2678
    3MOL   N777 2821   7.119   2.763   5.459  0.5956  0.6285  0.0945
    3MOL   C778 2822   7.014   2.694   5.515  0.2281  0.6933  0.0765
    3MOL   C779 2823   6.893   2.691   5.448  0.0202 -0.0730  0.6815
    3MOL   C780 2824   6.782   2.641   5.516 -0.0502  0.5768 -0.5924
    3MOL   C781 2825   6.790   2.585   5.647  0.0191 -0.7312 -0.1472
    3MOL   N782 2826   6.672   2.555   5.715 -0.0885 -0.0623 -0.2911
    3MOL   C783 2827   6.650   2.600   5.850 -0.2246  0.1503 -0.4101
    3MOL   C784 2828   6.544   2.541   5.924 -0.3522 -0.7232  0.2657
    3MOL   C785 2829   6.509   2.591   6.050 -0.2091 -0.1896  0.6430
    3MOL   C786 2830   6.574   2.708   6.103 -0.2551  0.6317  0.1679
    3MOL   C787 2831   6.527   2.776   6.229  0.8733 -0.2553 -0.5288
    3MOL   C788 2832   6.683   2.765   6.027  1.4143 -0.2302  0.3719
    3MOL   C789 2833   6.715   2.714   5.901 -0.4722  0.0665 -1.1145
    3MOL   C790 2834   6.914   2.586   5.710 -0.0789  0.6974  0.8976
    3MOL   C791 2835   7.024   2.637   5.641 -0.1466  0.0220 -0.8275
    3MOL   C792 2836   7.342   2.830   5.507  0.3088 -0.3969 -0.3151
    3MOL   C793 2837   7.480   2.793   5.512 -0.3214 -0.0688  0.8564
    3MOL   C794 2838   7.773   2.825   5.371  0.2678 -0.0768  0.8572
    3MOL   C795 2839   7.894   2.890   5.336 -0.6626  0.0260 -0.1910
    3MOL   H796 2840   0.155   2.966   5.274  1.1355  0.7522  0.5215
    3MOL   H797 2841   0.117   2.666   5.495  0.4348  0.3569 -0.7092
    3MOL   H798 2842   7.902   2.560   5.546  1.3203  0.4776  0.7603
    3MOL   H799 2843   7.677   2.530   5.503 -2.8872 -1.3684 -0.8947
    3MOL   H800 2844   7.467   2.462   5.460  2.7291 -0.2441  2.8151
    3MOL   H801 2845   7.227   2.514   5.432  0.8105 -0.9568 -0.6990
    3MOL   H802 2846   7.107   2.845   5.402  2.3972  0.9066  0.0827
    3MOL   H803 2847   6.896   2.710   5.342 -2.3973 -1.6551  0.2805
    3MOL   H804 2848   6.682   2.635   5.476 -1.0090 -1.4147  1.9486
    3MOL   H805 2849   6.604   2.490   5.677  0.9082 -0.3955 -1.5611
    3MOL   H806 2850   6.491   2.459   5.879 -2.9645  1.1278 -0.1314
    3MOL   H807 2851   6.422   2.557   6.104 -1.0870 -0.8561 -1.1295
    3MOL   H808 2852   6.587   2.742   6.313 -2.4616 -1.9954  1.2443
    3MOL   H809 2853   6.428   2.737   6.253  0.4088  1.7393  0.9472
    3MOL   H810 2854   6.726   2.855   6.068  0.6190 -0.7238  2.3472
    3MOL   H811 2855   6.789   2.766   5.842  0.2120  1.3706  0.8428
    3MOL   H812 2856   6.914   2.545   5.810  0.2612 -2.1475 -0.2281
    3MOL   H813 2857   7.119   2.638   5.692  1.5547 -0.2076 -3.8426
    3MOL   H814 2858   7.312   2.931   5.530 -0.0235 -0.4038 -0.7190
    3MOL   H815 2859   7.549   2.874   5.531 -1.2696  0.6625  1.2172
    3MOL   H816 2860   7.678   2.865   5.338  0.4406  0.3424  0.8558
    3MOL   H817 2861   7.898   2.980   5.276 -1.4767 -0.9579 -1.7428
    3MOL   N818 2862   6.529   2.921   6.231 -0.6448  0.9450  0.0567
    3MOL   C819 2863   6.458   3.006   6.139  0.3619  0.1160 -0.2609
    3MOL   C820 2864   6.353   2.960   6.058 -0.1517 -0.0671  0.8080
    3MOL   C821 2865   6.300   3.050   5.961  0.7895 -0.3940 -0.4489
    3MOL   C822 2866   6.356   3.176   5.940 -0.1509 -0.5064 -0.1183
    3MOL   N823 2867   6.310   3.246   5.832 -1.0902  0.1349 -0.3997
    3MOL   C824 2868   6.291   3.384   5.820 -0.1696 -0.6418  0.1594
    3MOL   C825 2869   6.270   3.474   5.926  0.0639  0.0816  0.1064
    3MOL   C826 2870   6.260   3.613   5.906  0.1498 -0.2236 -0.0024
    3MOL   C827 2871   6.244   3.668   5.778 -1.0552  0.1182  0.1498
    3MOL   N828 2872   6.243   3.806   5.755 -0.2216 -0.8168 -0.2562
    3MOL   C829 2873   6.348   3.888   5.808 -0.7686 -0.3149 -0.4171
    3MOL   C830 2874   6.325   4.028   5.822  0.0038 -0.0714 -0.0985
    3MOL   C831 2875   6.420   4.111   5.887  0.2005 -1.1673  0.0303
    3MOL   C832 2876   6.550   4.065   5.904  0.0653 -0.4819 -0.5498
    3MOL   N833 2877   6.650   4.153   5.950 -0.4606  0.5514 -0.0367
    3MOL   C834 2878   6.751   4.213   5.876  0.2098 -0.1622 -0.5375
    3MOL   C835 2879   6.751   4.209   5.740 -0.0008 -0.2653  0.3126
    3MOL   C836 2880   6.849   4.289   5.675  0.6106 -0.0758  0.5156
    3MOL   C837 2881   6.952   4.353   5.747  0.2645 -0.6888 -0.4297
    3MOL   C838 2882   7.064   4.423   5.662 -0.3261  0.0556  0.3895
    3MOL   C839 2883   6.955   4.343   5.887 -0.5623  0.4393 -0.3344
    3MOL   C840 2884   6.860   4.266   5.949 -0.9205  0.1311 -0.6035
    3MOL   C841 2885   6.580   3.929   5.883  0.4168  0.2559 -0.4140
    3MOL   C842 2886   6.478   3.842   5.835  0.3869  0.4000 -0.3127
    3MOL   C843 2887   6.253   3.580   5.668  0.3482 -0.0287  0.2408
    3MOL   C844 2888   6.271   3.439   5.689 -0.0338  0.2557 -0.4006
    3MOL   C845 2889   6.466   3.224   6.027 -0.4859  0.4464  0.4942
    3MOL   C846 2890   6.513   3.135   6.125  0.1414  0.0145 -0.1141
    3MOL   H847 2891   6.602   2.961   6.288  1.8295 -1.5950 -1.2008
    3MOL   H848 2892   6.318   2.858   6.065 -0.3875 -0.0718 -0.3044
    3MOL   H849 2893   6.223   3.009   5.898  0.6602 -0.2999 -0.3507
    3MOL   H850 2894   6.290   3.186   5.753 -2.3913  0.2044 -0.1317
    3MOL   H851 2895   6.267   3.431   6.025 -1.6778  1.0853  0.4968
    3MOL   H852 2896   6.237   3.672   5.994 -1.5561 -0.7408 -0.0874
    3MOL   H853 2897   6.163   3.844   5.705 -0.7581 -1.6578 -0.0619
    3MOL   H854 2898   6.232   4.072   5.790 -0.6623 -0.7074  0.9294
    3MOL   H855 2899   6.400   4.214   5.911 -0.1057 -1.2210  0.0146
    3MOL   H856 2900   6.684   4.114   6.037 -1.3065  0.6043  0.3168
    3MOL   H857 2901   6.672   4.162   5.683 -0.1472 -1.2071  1.2916
    3MOL   H858 2902   6.847   4.288   5.567  0.6594  0.6253  0.5103
    3MOL   H859 2903   7.113   4.348   5.600 -1.2338  2.0559 -2.9222
    3MOL   H860 2904   7.138   4.455   5.736  1.2660 -1.5280 -0.4625
    3MOL   H861 2905   7.039   4.364   5.952  0.9632  0.1159 -2.1642
    3MOL   H862 2906   6.864   4.269   6.056  1.4613  1.0122 -0.6908
    3MOL   H863 2907   6.677   3.884   5.895 -1.3382 -3.2146  1.5259
    3MOL   H864 2908   6.506   3.739   5.820  0.3887 -0.0054  2.1640
    3MOL   H865 2909   6.234   3.610   5.566 -1.0762 -0.5842  0.3263
    3MOL   H866 2910   6.281   3.380   5.599 -4.0329 -2.1306  0.5646
    3MOL   H867 2911   6.506   3.322   6.008  3.4334 -1.3324 -1.1735
    3MOL   H868 2912   6.604   3.167   6.173  0.2055  1.3261 -1.0717
    3MOL   N869 2913   7.014   4.540   5.587 -0.7229  0.1583 -0.2024
    3MOL   C870 2914   7.102   4.637   5.554  0.3167 -0.3148  0.8261
    3MOL   C871 2915   7.239   4.621   5.559  0.4460  0.5864  0.1283
    3MOL   C872 2916   7.326   4.723   5.528 -0.3815 -0.3673 -0.1872
    3MOL   C873 2917   7.281   4.844   5.474 -0.0758 -0.2369  0.1452
    3MOL   N874 2918   7.369   4.942   5.435  0.1157  0.2747  0.4238
    3MOL   C875 2919   7.468   4.930   5.339  0.3138  0.1437  0.0059
    3MOL   C876 2920   7.545   5.043   5.305 -0.5399  0.2712 -0.6807
    3MOL   C877 2921   7.641   5.038   5.203  0.1627 -0.9276  0.4425
    3MOL   C878 2922   7.663   4.921   5.125  0.8331  0.0745  0.1480
    3MOL   N879 2923   7.748   4.902   5.014 -0.1760 -0.2735 -0.3109
    3MOL   C880 2924   7.860   4.980   4.979  0.3051 -0.0274  0.4109
    3MOL   C881 2925   7.898   4.980   4.846 -0.1951  0.7698 -0.6451
    3MOL   C882 2926   0.038   5.036   4.807 -0.1027  0.1152  0.2360
    3MOL   C883 2927   0.129   5.086   4.903 -0.0742 -0.6764 -0.3546
    3MOL   N884 2928   0.257   5.123   4.867  0.1768 -0.5506 -0.2427
    3MOL   C885 2929   0.338   5.226   4.925 -0.2380  0.2788  0.4964
    3MOL   C886 2930   0.293   5.325   5.021 -0.4432  0.1764 -1.1251
    3MOL   C887 2931   0.381   5.435   5.061 -0.3005  0.1114  0.0368
    3MOL   C888 2932   0.516   5.438   5.010  0.0995 -0.9136  0.1073
    3MOL   C889 2933   0.609   5.552   5.043 -1.2108 -0.4223 -0.5509
    3MOL   C890 2934   0.559   5.335   4.927  0.1935 -0.3728 -0.7997
    3MOL   C891 2935   0.468   5.241   4.872  0.1110 -0.2504  0.3923
    3MOL   C892 2936   0.087   5.089   5.040 -0.1028  0.7142 -0.1883
    3MOL   C893 2937   7.944   5.040   5.081 -0.5670 -0.4723 -0.0005
    3MOL   C894 2938   7.584   4.805   5.163  0.1660  0.8979 -0.2733
    3MOL   C895 2939   7.491   4.814   5.267 -0.2323 -0.5962 -0.5808
    3MOL   C896 2940   7.145   4.866   5.470 -0.2711  0.3878  0.0445
    3MOL   C897 2941   7.061   4.764   5.506  0.7863  0.2954  0.0586
    3MOL   H898 2942   6.913   4.537   5.578 -0.7113 -1.1360 -0.0121
    3MOL   H899 2943   7.291   4.532   5.595  0.1347  1.0858  1.8790
    3MOL   H900 2944   7.430   4.699   5.542  0.4766  3.2230  0.1534
    3MOL   H901 2945   7.324   5.032   5.449 -0.9602 -0.1994  0.0899
    3MOL   H902 2946   7.527   5.136   5.355 -0.4514 -1.0651  1.9281
    3MOL   H903 2947   7.691   5.133   5.191 -1.6653  0.0014 -0.0945
    3MOL   H904 2948   7.734   4.830   4.945 -0.0823 -1.5958  1.0181
    3MOL   H905 2949   7.838   4.927   4.774 -0.3030 -0.4331  0.3150
    3MOL   H906 2950   0.070   5.035   4.704  1.9861 -1.3365  0.8558
    3MOL   H907 2951   0.298   5.074   4.789  1.0250  1.5609 -1.1761
    3MOL   H908 2952   0.189   5.329   5.047  0.2965  0.3885  1.9380
    3MOL   H909 2953   0.349   5.512   5.129 -0.3759 -1.0268  1.3202
    3MOL   H910 2954   0.687   5.522   5.113 -1.0694 -1.5984 -1.2026
    3MOL   H911 2955   0.544   5.623   5.094 -0.5837 -0.3482  0.1599
    3MOL   H912 2956   0.662   5.328   4.895  0.3927  1.9934 -0.7184
    3MOL   H913 2957   0.508   5.171   4.800 -0.3809 -1.2782  1.1042
    3MOL   H914 2958   0.147   5.124   5.122 -0.8581 -1.5496  1.3981
    3MOL   H915 2959   7.931   5.033   5.188  0.0211 -2.9621 -0.0682
    3MOL   H916 2960   7.584   4.716   5.103 -1.4996  1.7906 -1.6653
    3MOL   H917 2961   7.426   4.730   5.285 -1.2495  0.2350 -0.2981
    3MOL   H918 2962   7.107   4.952   5.417 -1.7214 -0.0929  0.2768
    3MOL   H919 2963   6.956   4.787   5.497  0.6274  0.1395  1.3650
    3MOL   N920 2964   0.679   5.610   4.928 -0.5634  1.0662  0.1072
    3MOL   C921 2965   0.732   5.738   4.931  0.4835  0.6495  0.2071
    3MOL   C922 2966   0.724   5.835   5.041 -0.8145 -0.0292 -0.2221
    3MOL   C923 2967   0.772   5.968   5.018 -0.4459  0.4355 -0.5525
    3MOL   C924 2968   0.840   6.003   4.902  0.0232  0.1815 -1.2887
    3MOL   N925 2969   0.897   6.128   4.883  0.4235 -1.0462  0.1674
    3MOL   C926 2970   0.815   6.243   4.879  1.0724  0.6083  0.4521
    3MOL   C927 2971   0.720   6.285   4.976  0.1787 -0.4578 -0.0381
    3MOL   C928 2972   0.646   6.402   4.958  0.4714 -0.4033  0.4819
    3MOL   C929 2973   0.660   6.475   4.842 -0.4644  0.1409  0.4075
    3MOL   N930 2974   0.601   6.600   4.824  0.4973 -0.7415 -0.4482
    3MOL   C931 2975   0.489   6.657   4.889  0.1389 -0.1322 -0.0657
    3MOL   C932 2976   0.495   6.796   4.922  0.0113  0.2120 -0.4606
    3MOL   C933 2977   0.388   6.857   4.983 -0.9313  0.9918 -0.2222
    3MOL   C934 2978   0.268   6.779   5.017 -0.0047  0.7228  0.4375
    3MOL   N935 2979   0.163   6.847   5.074 -0.1281  0.1078 -0.3067
    3MOL   C936 2980   0.162   6.930   5.187  0.2744 -0.3842 -0.2286
    3MOL   C937 2981   0.281   6.934   5.272 -0.4745 -0.0581 -0.4401
    3MOL   C938 2982   0.273   7.018   5.385  0.0207 -0.2728  0.4329
    3MOL   C939 2983   0.162   7.095   5.417 -0.0024 -0.3439 -0.2720
    3MOL   C940 2984   0.159   7.188   5.540  0.2704  0.0458  0.0413
    3MOL   C941 2985   0.050   7.095   5.326 -0.0174 -0.0084  0.3500
    3MOL   C942 2986   0.056   7.016   5.212 -0.6778 -0.2875  0.6510
    3MOL   C943 2987   0.260   6.640   4.980 -0.5009 -0.5413 -0.3675
    3MOL   C944 2988   0.373   6.581   4.921  0.0430 -0.6392  0.5018
    3MOL   C945 2989   0.754   6.438   4.747  0.3399  0.5908  0.6793
    3MOL   C946 2990   0.826   6.325   4.763  0.3139  0.0954 -0.4268
    3MOL   C947 2991   0.863   5.901   4.810  0.0014 -0.2848  0.2782
    3MOL   C948 2992   0.807   5.773   4.823 -0.1849  0.6877  0.3656
    3MOL   H949 2993   0.647   5.582   4.836 -0.3180  0.6795  0.1399
    3MOL   H950 2994   0.682   5.800   5.134  0.4865 -0.1991  0.3094
    3MOL   H951 2995   0.747   6.037   5.097 -0.0274 -0.0060 -0.0250
    3MOL   H952 2996   0.954   6.131   4.799 -0.0663 -0.1580 -0.1370
    3MOL   H953 2997   0.707   6.228   5.067  1.5240  1.5452  1.4548
    3MOL   H954 2998   0.574   6.430   5.034 -0.9998  0.3897 -1.1823
    3MOL   H955 2999   0.667   6.666   4.785  0.0297  0.3162  0.5243
    3MOL   H956 3000   0.586   6.849   4.899 -0.6416  0.7857 -1.7469
    3MOL   H957 3001   0.381   6.963   4.998  0.6789  0.9998  0.5591
    3MOL   H958 3002   0.073   6.836   5.032  0.0582  1.6585 -1.1306
    3MOL   H959 3003   0.357   6.859   5.256 -0.2749 -0.4833  2.2346
    3MOL   H960 3004   0.359   7.011   5.450  0.6673  1.7563 -0.1751
    3MOL   H961 3005   0.116   7.282   5.506 -2.3443 -1.8411 -2.0284
    3MOL   H962 3006   0.260   7.220   5.567  0.9161  0.1315 -2.3444
    3MOL   H963 3007   7.950   7.163   5.343  0.7086  0.3582  2.5960
    3MOL   H964 3008   7.962   7.020   5.135  0.6355  0.1601 -0.6410
    3MOL   H965 3009   0.180   6.576   5.013 -1.5491  0.9776  0.1086
    3MOL   H966 3010   0.369   6.474   4.905 -2.2705 -0.7582  1.7442
    3MOL   H967 3011   0.757   6.485   4.650 -0.9477 -0.9208 -0.1297
    3MOL   H968 3012   0.890   6.301   4.679 -0.7199  1.3851 -1.5946
    3MOL   H969 3013   0.939   5.914   4.735  1.8364  1.5106  2.3753
    3MOL   H970 3014   0.830   5.702   4.744 -1.0473  1.2806 -0.4222
    3MOL   N971 3015   0.073   7.135   5.645 -0.0582 -0.0583  0.7233
    3MOL   C972 3016   0.036   7.207   5.756 -0.6249 -0.6536 -0.1339
    3MOL   C973 3017   0.092   7.331   5.789  0.3701 -0.0982 -0.6076
    3MOL   C974 3018   0.056   7.403   5.904  0.1718 -0.6990 -0.0122
    3MOL   C975 3019   7.939   7.347   5.995 -0.4458 -0.5116  0.5433
    3MOL   N976 3020   7.914   7.428   6.108 -0.3457  0.0413 -0.2366
    3MOL   C977 3021   7.895   7.386   6.239  0.8184 -0.5550  0.4598
    3MOL   C978 3022   7.795   7.452   6.321  0.3651 -0.1050 -0.2888
    3MOL   C979 3023   7.769   7.397   6.451 -0.5980 -0.5762 -0.3146
    3MOL   C980 3024   7.852   7.297   6.511 -0.7890  0.3804 -0.1293
    3MOL   N981 3025   7.832   7.256   6.644 -0.7057 -0.1479  0.2363
    3MOL   C982 3026   7.923   7.256   6.747  0.3558 -0.0100  0.1452
    3MOL   C983 3027   0.070   7.315   6.723  0.2065  0.9569  0.4233
    3MOL   C984 3028   0.161   7.324   6.830  0.1217  0.3495  0.4053
    3MOL   C985 3029   0.122   7.267   6.950  0.1552  0.3845 -0.8078
    3MOL   N986 3030   0.221   7.258   7.048  0.4891 -0.2930 -0.4520
    3MOL   C987 3031   0.231   7.183   7.166  0.0576 -0.0573 -0.2802
    3MOL   C988 3032   0.308   7.225   7.272  0.4729 -0.6586 -0.6819
    3MOL   C989 3033   0.313   7.146   7.390 -0.3744  0.1490 -0.3552
    3MOL   C990 3034   0.262   7.015   7.389 -1.0077 -0.1251  0.3581
    3MOL   C991 3035   0.278   6.914   7.510  0.2282 -0.0195  0.2466
    3MOL   C992 3036   0.208   6.966   7.272  0.0233 -0.0515 -0.0589
    3MOL   C993 3037   0.182   7.050   7.164 -0.4133  0.0233 -0.2381
    3MOL   C994 3038   7.978   7.205   6.968 -0.2105 -0.2564  0.1712
    3MOL   C995 3039   7.885   7.195   6.869 -0.2008 -0.0559  0.7883
    3MOL   C996 3040   7.952   7.239   6.424 -0.5827 -1.2573 -0.2526
    3MOL   C997 3041   7.964   7.280   6.293  0.0364 -0.2435 -0.7418
    3MOL   C998 3042   7.887   7.224   5.966  0.8122  1.4084 -0.1944
    3MOL   C999 3043   7.917   7.152   5.846 -0.5009  0.0682  0.4678
    3MOL     H1 3044   0.018   7.052   5.631  1.4810 -1.0596  0.4822
    3MOL     H2 3045   0.168   7.369   5.722  0.2083 -0.1924 -0.8483
    3MOL     H3 3046   0.104   7.498   5.922 -0.5377 -0.0481 -1.4504
    3MOL     H4 3047   7.866   7.516   6.097  1.5945  1.0628 -0.8084
    3MOL     H5 3048   7.729   7.528   6.282  0.0610  0.1609  0.7475
    3MOL     H6 3049   7.691   7.431   6.518  0.1052  1.3719 -0.4314
    3MOL     H7 3050   7.733   7.240   6.660 -1.0504  0.3849 -1.2322
    3MOL     H8 3051   0.094   7.364   6.629  1.4967  0.7982  0.6573
    3MOL     H9 3052   0.261   7.359   6.809 -0.6854  3.1025  0.8973
    3MOL    H10 3053   0.272   7.345   7.054  0.4798 -0.2861 -0.4760
    3MOL    H11 3054   0.352   7.323   7.261  1.1593 -0.4643  2.9384
    3MOL    H12 3055   0.362   7.185   7.478 -0.7481 -1.8710  0.7898
    3MOL    H13 3056   0.287   6.812   7.474 -1.6507 -0.3554  0.7035
    3MOL    H14 3057   0.191   6.917   7.576 -1.0064 -0.6835 -1.3316
    3MOL    H15 3058   0.162   6.868   7.265  0.2241 -0.2461  1.2057
    3MOL    H16 3059   0.121   7.006   7.086  0.0371  1.0814 -1.1926
    3MOL    H17 3060   7.952   7.177   7.069 -2.1402  0.3042 -0.1580
    3MOL    H18 3061   7.793   7.142   6.888  0.3435 -0.8261  1.3165
    3MOL    H19 3062   0.023   7.153   6.462  0.7225  1.0931  3.4872
    3MOL    H20 3063   0.046   7.228   6.223  0.1107 -0.9386 -0.1701
    3MOL    H21 3064   7.808   7.182   6.027  0.8648  1.4914 -0.0700
    3MOL    H22 3065   7.877   7.054   5.826  1.0420 -0.5945  0.5589
    3MOL    H23 3066   0.358   6.951   7.574  1.5475 -1.9380 -0.2707
    4MOL     N1 3067   6.772   5.333   5.620  0.5945  0.1396  0.0438
    4MOL     C2 3068   6.848   5.404   5.529  0.3221  0.6340  0.5879
    4MOL     C3 3069   6.815   5.536   5.499  0.3975 -0.0912 -0.6861
    4MOL     C4 3070   6.900   5.606   5.407 -0.1484  0.8618 -0.7987
    4MOL     C5 3071   7.017   5.550   5.354  0.0622  0.3995  0.9904
    4MOL     N6 3072   7.083   5.616   5.248  0.4667 -0.6747  0.2116
    4MOL     C7 3073   7.087   5.755   5.228 -0.2654 -0.4489  0.0990
    4MOL     C8 3074   7.212   5.820   5.231  0.9404 -0.2204 -0.2302
    4MOL     C9 3075   7.216   5.963   5.240 -0.2582 -0.3203  0.2482
    4MOL    C10 3076   7.098   6.036   5.212  0.0552 -0.7012  0.1969
    4MOL    N11 3077   7.104   6.176   5.221  0.1869  0.1310 -0.1075
    4MOL    C12 3078   7.062   6.255   5.329 -0.4534  0.9071  0.2036
    4MOL    C13 3079   7.098   6.207   5.458  0.0955  0.3786  0.1583
    4MOL    C14 3080   7.056   6.275   5.572  0.5314 -0.4979 -0.2886
    4MOL    C15 3081   6.981   6.392   5.558 -0.0762  0.5520  0.7276
    4MOL    N16 3082   6.914   6.454   5.662  0.3737  0.0843  0.3931
    4MOL    C17 3083   6.938   6.434   5.797 -0.1109 -0.0942  0.3759
    4MOL    C18 3084   7.069   6.418   5.852  0.2349 -0.1202 -0.0024
    4MOL    C19 3085   7.085   6.428   5.989  0.9473  0.2817  0.1681
    4MOL    C20 3086   6.975   6.428   6.074  0.2370 -0.5438 -0.1679
    4MOL    C21 3087   6.995   6.443   6.223 -0.1270 -0.1391 -0.9173
    4MOL    C22 3088   6.845   6.446   6.022 -0.2697 -0.1035  0.1894
    4MOL    C23 3089   6.824   6.441   5.881 -0.1273  0.1867  0.3682
    4MOL    C24 3090   6.945   6.438   5.429  0.3366 -0.4476  0.8594
    4MOL    C25 3091   6.979   6.366   5.312 -0.1088 -0.2642  0.6221
    4MOL    C26 3092   6.975   5.969   5.183  0.0399 -0.3999  0.1663
    4MOL    C27 3093   6.970   5.829   5.193  0.4183 -0.3182 -0.3603
    4MOL    C28 3094   7.054   5.421   5.393  0.1537  0.7728  0.1171
    4MOL    C29 3095   6.972   5.347   5.487  0.1957 -0.7317  0.1764
    4MOL    H30 3096   6.779   5.238   5.651 -1.7686 -0.5559 -1.4497
    4MOL    H31 3097   6.727   5.582   5.540  1.0530 -0.5625  1.3499
    4MOL    H32 3098   6.872   5.709   5.388  2.4151  1.9735  1.1855
    4MOL    H33 3099   7.157   5.569   5.198  1.5041  2.1266 -1.0129
    4MOL    H34 3100   7.305   5.766   5.237  0.4754 -1.0731 -0.5689
    4MOL    H35 3101   7.312   6.009   5.256  0.0487 -0.3243 -1.5325
    4MOL    H36 3102   7.091   6.221   5.132 -0.0805  0.8836  0.3140
    4MOL    H37 3103   7.167   6.128   5.483  1.2598  1.2669 -0.2194
    4MOL    H38 3104   7.049   6.228   5.669 -1.3361  0.2617 -0.0366
    4MOL    H39 3105   6.824   6.494   5.638  0.8393  0.5394 -0.6372
    4MOL    H40 3106   7.153   6.424   5.784 -0.8116  1.5212 -1.1827
    4MOL    H41 3107   7.186   6.423   6.027  1.5872  2.1596 -1.2461
    4MOL    H42 3108   6.966   6.545   6.249  2.1406  0.4348 -0.5253
    4MOL    H43 3109   7.100   6.431   6.250 -0.6289 -1.0447  0.6958
    4MOL    H44 3110   6.760   6.450   6.088  0.0904 -0.2021  0.6570
    4MOL    H45 3111   6.729   6.451   5.831 -0.7627  0.4758  1.5931
    4MOL    H46 3112   6.883   6.525   5.424  0.6165 -0.3081 -0.4038
    4MOL    H47 3113   6.939   6.404   5.220 -0.0944  0.7935  1.0490
    4MOL    H48 3114   6.890   6.026   5.147 -1.8125 -0.7359  3.7624
    4MOL    H49 3115   6.873   5.787   5.169 -0.0961 -0.0268  1.1582
    4MOL    H50 3116   7.147   5.379   5.359  0.7211  1.3353  0.9786
    4MOL    H51 3117   7.000   5.249   5.523  1.4160 -0.8822 -1.1272
    4MOL    H52 3118   6.680   5.372   5.640  0.3223 -0.3109 -0.3260
    4MOL    N53 3119   6.908   6.353   6.299  0.1220 -0.3229  0.7254
    4MOL    C54 3120   6.867   6.387   6.426 -0.1540  0.6295  0.1546
    4MOL    C55 3121   6.754   6.327   6.478 -0.1165  0.1965 -0.8156
    4MOL    C56 3122   6.707   6.364   6.607  0.2326  0.7784  0.1721
    4MOL    C57 3123   6.774   6.462   6.686 -0.8679  0.0925 -0.5118
    4MOL    N58 3124   6.726   6.513   6.805 -0.1956 -0.2063  0.5730
    4MOL    C59 3125   6.803   6.547   6.919 -0.0105 -0.4473  0.2933
    4MOL    C60 3126   6.932   6.501   6.931 -0.7447 -0.2119 -0.0843
    4MOL    C61 3127   7.027   6.552   7.024 -0.2666 -0.5506 -0.3509
    4MOL    C62 3128   6.979   6.646   7.123  0.5558  0.3062  0.3815
    4MOL    N63 3129   7.065   6.702   7.220 -0.2483  0.5987  0.6178
    4MOL    C64 3130   7.177   6.643   7.287  0.0856  0.3722  0.4768
    4MOL    C65 3131   7.273   6.724   7.357  0.4101  0.4133  0.8170
    4MOL    C66 3132   7.379   6.668   7.429 -0.2066  0.4910  0.0762
    4MOL    C67 3133   7.401   6.527   7.419 -0.1040  0.5505 -0.3943
    4MOL    N68 3134   7.516   6.464   7.471  0.1620  0.1218 -0.4678
    4MOL    C69 3135   7.528   6.328   7.490 -0.3608  0.1268 -0.6757
    4MOL    C70 3136   7.618   6.249   7.412  0.2650  0.4022 -0.2029
    4MOL    C71 3137   7.621   6.111   7.423 -0.7940  0.0799 -0.5723
    4MOL    C72 3138   7.526   6.051   7.509  0.4602  0.9964  0.0040
    4MOL    C73 3139   7.526   5.900   7.531 -0.4110  0.6907  0.0006
    4MOL    C74 3140   7.440   6.127   7.593  0.2574 -0.5193  0.0319
    4MOL    C75 3141   7.444   6.266   7.582  0.1084 -0.1185 -0.5351
    4MOL    C76 3142   7.307   6.447   7.353 -0.1507 -0.4967 -0.0954
    4MOL    C77 3143   7.192   6.500   7.292  0.1701 -0.4554  0.4126
    4MOL    C78 3144   6.846   6.682   7.119  0.2697  0.0328  0.1235
    4MOL    C79 3145   6.760   6.638   7.017 -0.5358  0.3300 -0.0135
    4MOL    C80 3146   6.888   6.526   6.627  0.1258 -0.9022  0.4430
    4MOL    C81 3147   6.936   6.486   6.500  0.4425 -1.3165 -0.0796
    4MOL    H82 3148   6.850   6.294   6.242  1.7947  0.1548 -1.5506
    4MOL    H83 3149   6.703   6.252   6.420  0.1994  0.9611 -2.0902
    4MOL    H84 3150   6.617   6.318   6.646  0.0270 -3.7677 -5.1050
    4MOL    H85 3151   6.625   6.519   6.812 -0.0991  0.4613  1.5683
    4MOL    H86 3152   6.967   6.436   6.853  1.5257  1.5150 -0.5683
    4MOL    H87 3153   7.131   6.522   7.021 -0.3486 -0.9217  0.6037
    4MOL    H88 3154   7.040   6.793   7.257 -0.2746  1.3240 -1.1215
    4MOL    H89 3155   7.244   6.829   7.361 -2.4298 -0.2597 -0.8051
    4MOL    H90 3156   7.444   6.733   7.485 -0.6561  1.1713 -0.1865
    4MOL    H91 3157   7.600   6.516   7.493 -0.1622  0.8419 -0.9226
    4MOL    H92 3158   7.686   6.303   7.347  1.4359  1.1432  1.5951
    4MOL    H93 3159   7.675   6.043   7.358 -2.5032 -0.9742 -0.9199
    4MOL    H94 3160   7.500   5.891   7.637 -2.6566  2.7874 -0.3356
    4MOL    H95 3161   7.622   5.849   7.526 -0.1184  1.1745  0.5975
    4MOL    H96 3162   7.372   6.076   7.660 -0.7107 -0.5532 -0.9581
    4MOL    H97 3163   7.376   6.316   7.649  0.8242  0.3586 -0.1526
    4MOL    H98 3164   7.328   6.342   7.349  1.1131 -0.2110 -1.2417
    4MOL    H99 3165   7.127   6.428   7.244 -1.0543  0.2727  0.9502
    4MOL   H100 3166   6.802   6.742   7.197  0.3666  0.9204 -0.5001
    4MOL   H101 3167   6.660   6.677   7.013 -0.8662 -0.6892 -2.2900
    4MOL   H102 3168   6.927   6.615   6.673 -0.3124  0.7917 -2.3362
    4MOL   H103 3169   7.026   6.524   6.453 -1.1781  0.2709 -1.9970
    4MOL   N104 3170   7.417   5.831   7.460 -0.6665  0.0588  0.1429
    4MOL   C105 3171   7.454   5.798   7.328  0.6581 -0.0587 -0.6260
    4MOL   C106 3172   7.429   5.888   7.220 -0.3338 -0.2925 -0.7924
    4MOL   C107 3173   7.459   5.853   7.085  0.0088  0.2279  0.3410
    4MOL   C108 3174   7.536   5.741   7.054  0.1595  0.0542  0.4045
    4MOL   N109 3175   7.564   5.715   6.921 -0.4554  0.3071 -0.4656
    4MOL   C110 3176   7.597   5.593   6.856 -0.3779  0.4341 -0.4124
    4MOL   C111 3177   7.533   5.481   6.905  0.0599 -0.2430  0.2765
    4MOL   C112 3178   7.531   5.358   6.834  0.3030  0.6439  0.1371
    4MOL   C113 3179   7.585   5.360   6.704  0.3413  0.4914 -0.0932
    4MOL   N114 3180   7.570   5.245   6.629  0.0065  0.0671 -0.0433
    4MOL   C115 3181   7.478   5.239   6.521  0.5327  0.8403 -0.3588
    4MOL   C116 3182   7.396   5.126   6.510 -0.2916  0.6185  0.0559
    4MOL   C117 3183   7.315   5.109   6.394  0.0201 -0.1472  0.0494
    4MOL   C118 3184   7.312   5.202   6.291  0.9243  0.1492 -0.0696
    4MOL   N119 3185   7.237   5.179   6.179 -0.2459 -0.9021  0.3242
    4MOL   C120 3186   7.197   5.275   6.088 -0.4035 -0.5049 -0.0559
    4MOL   C121 3187   7.156   5.405   6.133  0.0964  0.1388 -0.5231
    4MOL   C122 3188   7.126   5.499   6.034  0.2194 -0.9826 -1.1551
    4MOL   C123 3189   7.112   5.464   5.899 -0.0443 -0.5275  0.4061
    4MOL   C124 3190   7.084   5.568   5.789  0.5003 -0.4103  0.6351
    4MOL   C125 3191   7.131   5.327   5.870  1.2228  0.0904  0.6679
    4MOL   C126 3192   7.170   5.234   5.958  0.4800 -0.6787  0.1956
    4MOL   C127 3193   7.394   5.315   6.301 -0.5672  0.2900 -0.3610
    4MOL   C128 3194   7.473   5.339   6.414  0.2578  0.5094  0.5746
    4MOL   C129 3195   7.655   5.470   6.656  0.5012  0.0125  0.1176
    4MOL   C130 3196   7.667   5.588   6.733 -1.1363  0.1118  0.1782
    4MOL   C131 3197   7.574   5.654   7.158  0.2699  0.1185 -0.2679
    4MOL   C132 3198   7.529   5.680   7.293 -0.5866  0.4486 -0.5114
    4MOL   H133 3199   7.328   5.878   7.458  0.2584  1.8590 -1.7689
    4MOL   H134 3200   7.376   5.980   7.241 -1.3676 -0.6698 -1.6673
    4MOL   H135 3201   7.412   5.910   7.006 -2.4044  1.5768  2.6651
    4MOL   H136 3202   7.553   5.798   6.864 -2.1672 -0.3528 -1.1423
    4MOL   H137 3203   7.480   5.491   6.999  0.8341  1.9683  0.4996
    4MOL   H138 3204   7.459   5.281   6.855 -0.2302  1.0549 -0.1742
    4MOL   H139 3205   7.603   5.155   6.659  0.9006 -0.0770 -1.3869
    4MOL   H140 3206   7.390   5.058   6.593 -1.4146  1.2019  0.4764
    4MOL   H141 3207   7.252   5.021   6.391 -1.4675  0.9064  0.0423
    4MOL   H142 3208   7.255   5.089   6.138 -2.8908 -0.8084 -1.1534
    4MOL   H143 3209   7.163   5.430   6.238 -0.4455  0.0086 -0.4513
    4MOL   H144 3210   7.106   5.601   6.063  1.1463 -0.5191 -2.1332
    4MOL   H145 3211   7.097   5.668   5.831  2.6641 -0.5292  0.3280
    4MOL   H146 3212   6.982   5.558   5.752  0.1795  0.3412  1.3055
    4MOL   H147 3213   7.109   5.300   5.768  1.3226  2.2828  0.0478
    4MOL   H148 3214   7.168   5.131   5.926 -0.5184 -0.6597  0.1701
    4MOL   H149 3215   7.394   5.383   6.217  1.6476 -0.0026 -0.6344
    4MOL   H150 3216   7.533   5.429   6.419  0.5953  0.2921  0.4661
    4MOL   H151 3217   7.708   5.466   6.562  0.2972  3.5997 -0.2055
    4MOL   H152 3218   7.716   5.677   6.695 -0.1589  0.2566  1.7252
    4MOL   H153 3219   7.647   5.581   7.128 -0.8752 -1.1202 -0.0563
    4MOL   H154 3220   7.551   5.612   7.374 -0.8879  1.9154  0.8236
    4MOL   N155 3221   7.172   5.550   5.678  0.1812 -0.5895  0.0028
    4MOL   C156 3222   7.280   5.630   5.673 -0.0746 -0.3139 -0.8031
    4MOL   C157 3223   7.352   5.662   5.793 -0.3363  0.1515 -0.5372
    4MOL   C158 3224   7.470   5.739   5.776  0.0610 -0.0728 -1.0465
    4MOL   C159 3225   7.506   5.793   5.655 -0.1577 -0.1558  0.3479
    4MOL   N160 3226   7.619   5.869   5.625 -0.3527 -0.1481  0.3469
    4MOL   C161 3227   7.696   5.947   5.712  0.1574  1.1762  0.0389
    4MOL   C162 3228   7.627   6.038   5.799 -0.4763  0.3777  0.3694
    4MOL   C163 3229   7.701   6.143   5.864 -0.0045  0.4160  0.4530
    4MOL   C164 3230   7.836   6.163   5.843  0.6308 -0.9159 -0.2182
    4MOL   N165 3231   7.900   6.283   5.889  0.5563  0.6485 -0.1937
    4MOL   C166 3232   7.883   6.353   6.007 -0.1289  0.6601  0.7154
    4MOL   C167 3233   7.792   6.314   6.103  0.4861  0.6009 -0.0621
    4MOL   C168 3234   7.769   6.392   6.217 -0.0937 -0.1146  0.0026
    4MOL   C169 3235   7.867   6.493   6.252  0.1636 -0.4404  0.8686
    4MOL   N170 3236   7.862   6.553   6.376  1.2361  0.0419  0.0495
    4MOL   C171 3237   7.767   6.525   6.476 -0.0963  0.2267 -0.6126
    4MOL   C172 3238   7.628   6.544   6.451  0.0664 -0.1597  0.0339
    4MOL   C173 3239   7.529   6.508   6.538  0.1082  0.1707 -0.6393
    4MOL   C174 3240   7.569   6.466   6.664  0.4427  0.5672  0.1009
    4MOL   C175 3241   7.468   6.435   6.773  0.2946  0.0140 -0.4385
    4MOL   C176 3242   7.705   6.445   6.694 -0.2176 -0.1845 -0.2253
    4MOL   C177 3243   7.805   6.485   6.604  0.3132 -0.2608  0.7060
    4MOL   C178 3244   7.959   6.533   6.156  0.2473 -0.2338 -0.0292
    4MOL   C179 3245   7.963   6.462   6.038 -0.4373  0.3002  0.1271
    4MOL   C180 3246   7.901   6.075   5.746 -0.1841  0.6894 -0.3244
    4MOL   C181 3247   7.834   5.961   5.685  0.5352  0.9442 -0.2095
    4MOL   C182 3248   7.429   5.766   5.545 -0.0837 -0.2389  0.5313
    4MOL   C183 3249   7.321   5.676   5.551 -0.4193 -0.1901 -0.0981
    4MOL   H184 3250   7.137   5.508   5.593  0.1549 -0.1459 -0.2040
    4MOL   H185 3251   7.320   5.631   5.891 -2.1579  0.3806 -1.0331
    4MOL   H186 3252   7.539   5.749   5.859 -2.2317 -1.1072  1.0584
    4MOL   H187 3253   7.657   5.858   5.532  0.2685  2.2191  0.2969
    4MOL   H188 3254   7.520   6.035   5.813 -0.3303 -1.6147  1.1849
    4MOL   H189 3255   7.639   6.211   5.921  0.0775  0.3317  0.6449
    4MOL   H190 3256   0.003   6.303   5.837  0.6601  1.0600  0.1286
    4MOL   H191 3257   7.731   6.224   6.098 -1.3475  1.8938 -1.6662
    4MOL   H192 3258   7.686   6.358   6.277 -0.8864  2.5715  0.4993
    4MOL   H193 3259   7.944   6.603   6.406  1.5552 -0.4241 -0.0371
    4MOL   H194 3260   7.609   6.581   6.351 -1.1614 -0.3521  0.1890
    4MOL   H195 3261   7.423   6.520   6.523 -0.1726  0.6126  1.4422
    4MOL   H196 3262   7.440   6.530   6.819  1.0974 -0.4130  0.9490
    4MOL   H197 3263   7.508   6.381   6.859 -0.7582  0.5753  0.4262
    4MOL   H198 3264   7.738   6.414   6.793 -2.0647  1.9188  1.0965
    4MOL   H199 3265   7.908   6.479   6.637  0.5112 -1.2610 -0.0688
    4MOL   H200 3266   0.051   6.610   6.166 -0.4530  0.3616  0.6518
    4MOL   H201 3267   0.062   6.482   5.970 -1.5832  0.9716 -1.0713
    4MOL   H202 3268   0.020   6.103   5.722 -1.3398  3.1588 -2.5667
    4MOL   H203 3269   7.878   5.897   5.611  1.1420 -1.0475  1.8058
    4MOL   H204 3270   7.464   5.811   5.453 -0.3385 -0.2459  0.4315
    4MOL   H205 3271   7.276   5.650   5.457  0.2518 -2.2185  0.1333
    4MOL   N206 3272   7.349   6.366   6.724  0.2628  0.8508  0.4621
    4MOL   C207 3273   7.355   6.223   6.714  1.1327 -0.9752  0.2663
    4MOL   C208 3274   7.462   6.146   6.752  0.1500  0.5922  0.7641
    4MOL   C209 3275   7.478   6.011   6.713 -0.3284 -0.0219 -0.6293
    4MOL   C210 3276   7.371   5.946   6.657 -0.0214  0.1512  0.2500
    4MOL   N211 3277   7.391   5.812   6.617  0.2090 -0.2151 -0.0077
    4MOL   C212 3278   7.291   5.718   6.583  0.0324  0.4578  0.3863
    4MOL   C213 3279   7.269   5.609   6.671  0.0713  0.3485 -0.3281
    4MOL   C214 3280   7.176   5.505   6.638 -0.3550  0.0852  0.3623
    4MOL   C215 3281   7.096   5.524   6.522  0.0647  0.6108  0.3629
    4MOL   N216 3282   6.996   5.431   6.484  0.0840  0.3916 -0.5997
    4MOL   C217 3283   6.960   5.315   6.557 -1.2611  0.6188 -0.0219
    4MOL   C218 3284   6.832   5.304   6.601  0.5709 -0.2745 -0.1974
    4MOL   C219 3285   6.788   5.191   6.677 -0.5932 -0.0426 -0.6088
    4MOL   C220 3286   6.881   5.092   6.705 -0.5801  0.7934 -0.4046
    4MOL   N221 3287   6.846   4.976   6.782 -1.0727  0.8293 -0.3068
    4MOL   C222 3288   6.716   4.925   6.809 -0.1506  0.4050 -0.3022
    4MOL   C223 3289   6.697   4.860   6.936  0.2542  0.2947  0.0906
    4MOL   C224 3290   6.566   4.816   6.968 -0.2032  0.1205  0.1107
    4MOL   C225 3291   6.463   4.821   6.875 -0.4213  0.6523 -0.0734
    4MOL   C226 3292   6.326   4.757   6.899  0.0804 -0.8496  0.2520
    4MOL   C227 3293   6.484   4.877   6.747  0.1735  0.0473 -0.5638
    4MOL   C228 3294   6.613   4.936   6.713  0.6886 -0.2797  0.2703
    4MOL   C229 3295   7.009   5.107   6.663  0.1133 -0.7082 -0.5926
    4MOL   C230 3296   7.055   5.217   6.588 -0.0485 -0.3288  0.0922
    4MOL   C231 3297   7.105   5.642   6.443 -0.3618 -0.2565 -0.3638
    4MOL   C232 3298   7.207   5.732   6.472  0.0518  0.4625 -0.2837
    4MOL   C233 3299   7.248   6.015   6.639 -0.1946 -0.0188 -0.6258
    4MOL   C234 3300   7.247   6.156   6.656  0.2329 -0.1573 -0.0033
    4MOL   H235 3301   7.279   6.425   6.682 -1.7054 -1.4414  0.3781
    4MOL   H236 3302   7.554   6.194   6.781  1.1550 -0.2988 -0.8423
    4MOL   H237 3303   7.572   5.960   6.731 -0.8834 -0.9249 -0.2764
    4MOL   H238 3304   7.476   5.770   6.651  0.3318 -0.3005 -0.4116
    4MOL   H239 3305   7.339   5.610   6.754  2.4428  0.2221 -2.2779
    4MOL   H240 3306   7.160   5.416   6.696 -5.0393  1.9923  2.2829
    4MOL   H241 3307   6.922   5.460   6.422  0.2579  1.2908 -0.3813
    4MOL   H242 3308   6.763   5.383   6.576  0.9728 -0.3152 -1.4554
    4MOL   H243 3309   6.688   5.197   6.717 -0.9775 -1.6297 -1.2570
    4MOL   H244 3310   6.914   4.979   6.857  0.1353 -0.7817 -1.3133
    4MOL   H245 3311   6.772   4.850   7.014  0.3786 -1.0985 -0.1868
    4MOL   H246 3312   6.547   4.769   7.063 -1.5961 -2.3406 -1.3395
    4MOL   H247 3313   6.261   4.755   6.811 -1.2457  1.7719  1.1149
    4MOL   H248 3314   6.286   4.838   6.960  1.1101  1.0253 -1.4850
    4MOL   H249 3315   6.402   4.891   6.679 -0.3966  2.0026  0.4863
    4MOL   H250 3316   6.630   4.977   6.615 -3.5843 -1.0319 -0.8795
    4MOL   H251 3317   7.078   5.031   6.697  3.2933  1.6525 -1.4945
    4MOL   H252 3318   7.161   5.224   6.569  0.1857 -0.7221  1.2178
    4MOL   H253 3319   7.037   5.668   6.363 -0.8037  0.2698  0.1775
    4MOL   H254 3320   7.222   5.806   6.395  1.2353 -1.3871 -1.8666
    4MOL   H255 3321   7.165   5.956   6.604  0.1304 -0.2726 -0.9599
    4MOL   H256 3322   7.153   6.204   6.633  1.2084  2.3050  1.0334
    4MOL   N257 3323   6.324   4.621   6.950 -0.0868 -0.2763  0.8499
    4MOL   C258 3324   6.222   4.574   7.023 -0.2679  0.8708 -0.3356
    4MOL   C259 3325   6.232   4.443   7.086  1.2207  1.0475 -0.7097
    4MOL   C260 3326   6.124   4.396   7.168  0.8162  0.0072 -0.2093
    4MOL   C261 3327   6.014   4.478   7.196  0.5597  0.9081  0.4607
    4MOL   N262 3328   5.916   4.434   7.283  0.0006 -0.5113 -0.2037
    4MOL   C263 3329   5.792   4.489   7.314  0.2046  0.6667 -0.2444
    4MOL   C264 3330   5.739   4.472   7.444 -0.1237  0.1455  0.3103
    4MOL   C265 3331   5.631   4.548   7.495 -0.3208 -0.0359 -0.1597
    4MOL   C266 3332   5.556   4.626   7.405 -0.2001  0.9816 -0.2472
    4MOL   N267 3333   5.451   4.701   7.458  0.1807  0.7672 -0.3062
    4MOL   C268 3334   5.365   4.779   7.382 -0.6691  0.1395  0.3239
    4MOL   C269 3335   5.261   4.723   7.293 -0.0358 -0.4774 -0.2454
    4MOL   C270 3336   5.186   4.802   7.204 -0.5816  0.1416 -0.0938
    4MOL   C271 3337   5.216   4.933   7.200 -0.0066 -0.8804  0.4619
    4MOL   N272 3338   5.152   5.017   7.107  0.7097  0.7575 -0.3720
    4MOL   C273 3339   5.015   5.053   7.103  0.9379  0.2664 -0.5482
    4MOL   C274 3340   4.978   5.168   7.033  0.1465 -0.0225  0.9983
    4MOL   C275 3341   4.844   5.220   7.036 -0.3509 -0.3379 -0.5288
    4MOL   C276 3342   4.739   5.153   7.097  1.1324  0.5582 -0.4901
    4MOL   C277 3343   4.589   5.193   7.079 -0.7635  0.4794  0.4309
    4MOL   C278 3344   4.781   5.034   7.169  0.2901  0.2645  0.2134
    4MOL   C279 3345   4.913   4.993   7.178 -0.2399  0.9848  0.1936
    4MOL   C280 3346   5.316   4.995   7.281 -0.1731  0.1288 -0.1538
    4MOL   C281 3347   5.388   4.915   7.375  0.2026  0.1383  0.1119
    4MOL   C282 3348   5.604   4.644   7.273 -0.1287 -0.7527 -0.2657
    4MOL   C283 3349   5.713   4.566   7.227 -0.2810 -0.5651  0.5853
    4MOL   C284 3350   6.002   4.600   7.130  0.5795 -0.1318 -0.2157
    4MOL   C285 3351   6.108   4.651   7.047  0.1736 -0.6268 -0.2911
    4MOL   H286 3352   6.388   4.553   6.910 -2.0197 -1.7562  0.2196
    4MOL   H287 3353   6.322   4.386   7.074 -0.8826 -2.6367  0.0792
    4MOL   H288 3354   6.122   4.299   7.215  1.4121  1.6068  3.3049
    4MOL   H289 3355   5.944   4.354   7.338  2.1042  0.7284  0.5765
    4MOL   H290 3356   5.789   4.405   7.513 -0.9709  2.1875  2.9718
    4MOL   H291 3357   5.621   4.545   7.602  0.3505 -0.1480 -0.0975
    4MOL   H292 3358   5.436   4.700   7.558  0.1826 -0.6190 -0.3122
    4MOL   H293 3359   5.261   4.615   7.282  0.2477 -0.3596 -1.3916
    4MOL   H294 3360   5.122   4.762   7.127  0.4768 -1.5934 -0.1096
    4MOL   H295 3361   5.213   5.085   7.066  0.7550  0.3170 -1.0360
    4MOL   H296 3362   5.055   5.227   6.984  0.6018 -0.1271  1.5795
    4MOL   H297 3363   4.830   5.308   6.975  2.1142 -0.4258 -1.2607
    4MOL   H298 3364   4.575   5.228   6.976  0.3477  0.3751  0.2388
    4MOL   H299 3365   4.564   5.287   7.128 -2.7477 -0.1541  0.6796
    4MOL   H300 3366   4.704   4.983   7.224  0.0192  2.1814  1.6447
    4MOL   H301 3367   4.941   4.913   7.245  0.1521 -0.1293 -1.2619
    4MOL   H302 3368   5.332   5.102   7.279  0.5065  0.0631  0.9041
    4MOL   H303 3369   5.457   4.960   7.444  1.9949 -2.2610 -0.0863
    4MOL   H304 3370   5.546   4.716   7.216  2.1852 -1.0071 -3.0424
    4MOL   H305 3371   5.729   4.574   7.120 -0.0584 -1.3056  0.5607
    4MOL   H306 3372   5.918   4.665   7.148  1.9170  0.9800  2.3332
    4MOL   H307 3373   6.096   4.747   7.000  0.4877 -0.5938 -0.3072
    4MOL   N308 3374   4.491   5.090   7.103  0.3451  0.1851 -0.3781
    4MOL   C309 3375   4.377   5.138   7.174  0.1338  0.6654  0.6070
    4MOL   C310 3376   4.255   5.152   7.103  0.0305 -0.1455 -0.3410
    4MOL   C311 3377   4.145   5.208   7.173 -0.1513  0.1432  0.4040
    4MOL   C312 3378   4.145   5.241   7.312  0.8740 -0.5582  0.4627
    4MOL   N313 3379   4.033   5.278   7.386  0.4288  0.6196 -0.1915
    4MOL   C314 3380   3.896   5.254   7.366 -0.2588  0.7326  0.3910
    4MOL   C315 3381   3.807   5.316   7.455  0.5374 -0.4605 -0.6439
    4MOL   C316 3382   3.669   5.289   7.450  0.0576  0.5360 -0.1182
    4MOL   C317 3383   3.612   5.215   7.348  0.4825  0.0538 -0.4380
    4MOL   N318 3384   3.473   5.206   7.339  0.4566 -0.0409 -0.7961
    4MOL   C319 3385   3.400   5.157   7.228  0.5032 -0.1393 -0.4912
    4MOL   C320 3386   3.426   5.203   7.096 -0.2914 -0.1978  0.5278
    4MOL   C321 3387   3.362   5.146   6.983  0.4930  0.4067 -0.6190
    4MOL   C322 3388   3.258   5.049   7.003  0.0148 -0.0294  0.9291
    4MOL   N323 3389   3.170   4.995   6.907 -0.7527 -0.7976  0.2345
    4MOL   C324 3390   3.181   5.004   6.767 -0.5129  0.4286  0.4991
    4MOL   C325 3391   3.062   5.038   6.695  0.7533  0.1202 -0.1635
    4MOL   C326 3392   3.075   5.072   6.559  0.1106  0.8400  0.8959
    4MOL   C327 3393   3.193   5.051   6.481  0.2849 -0.6473 -0.1847
    4MOL   C328 3394   3.206   5.084   6.328 -0.0544  0.0395 -0.2666
    4MOL   C329 3395   3.306   5.003   6.556 -0.0071 -0.1899 -0.4063
    4MOL   C330 3396   3.300   4.983   6.695  0.5582  0.2928 -0.1016
    4MOL   C331 3397   3.225   5.014   7.139 -0.4882 -0.3303  0.1844
    4MOL   C332 3398   3.290   5.072   7.247  0.5560  0.5563 -0.0575
    4MOL   C333 3399   3.701   5.161   7.250 -0.2528  0.3912 -0.5945
    4MOL   C334 3400   3.846   5.170   7.265  0.0760  0.8784 -0.0574
    4MOL   C335 3401   4.269   5.230   7.380 -0.1237  0.5317 -0.1363
    4MOL   C336 3402   4.379   5.172   7.309  0.5700 -0.8610  0.8972
    4MOL   H337 3403   4.536   5.014   7.151  0.0810  1.6678  2.3163
    4MOL   H338 3404   4.248   5.133   6.997 -2.2525  0.5573 -0.3591
    4MOL   H339 3405   4.059   5.239   7.115  2.1031 -2.0067 -4.4252
    4MOL   H340 3406   4.058   5.334   7.467 -1.0337  1.9370 -0.6380
    4MOL   H341 3407   3.838   5.377   7.539 -1.1099 -0.8640  0.2739
    4MOL   H342 3408   3.606   5.331   7.527  0.1722  0.2718  0.1205
    4MOL   H343 3409   3.419   5.240   7.417  0.9489  1.0474 -0.9237
    4MOL   H344 3410   3.507   5.267   7.066  1.6406 -1.7502  2.3355
    4MOL   H345 3411   3.376   5.184   6.883 -2.7655  0.6099 -1.0759
    4MOL   H346 3412   3.085   4.959   6.947 -1.5859  0.9334  0.0372
    4MOL   H347 3413   2.969   5.056   6.748  1.4013 -0.3996  1.1647
    4MOL   H348 3414   2.983   5.105   6.512 -1.3795 -2.2308  1.5109
    4MOL   H349 3415   3.246   5.185   6.337  1.8359 -0.7466  0.6506
    4MOL   H350 3416   3.110   5.094   6.278 -0.1265  0.4762 -0.0389
    4MOL   H351 3417   3.397   4.984   6.502  0.0917  0.1726 -0.3641
    4MOL   H352 3418   3.391   4.960   6.749  0.3334  0.0246  0.1685
    4MOL   H353 3419   3.142   4.947   7.151 -0.7743 -0.3934 -1.8941
    4MOL   H354 3420   3.260   5.041   7.346 -1.7545 -0.3819 -1.0043
    4MOL   H355 3421   3.651   5.090   7.186 -1.2877  1.7857 -1.3492
    4MOL   H356 3422   3.898   5.115   7.189  0.8542  1.2364  0.2138
    4MOL   H357 3423   4.286   5.250   7.485  1.0989 -2.2812  0.2297
    4MOL   H358 3424   4.472   5.161   7.361  0.3450 -2.2147  1.0414
    4MOL   N359 3425   3.294   4.994   6.258 -0.1038 -0.4477 -0.0114
    4MOL   C360 3426   3.257   4.871   6.201 -0.9670 -0.4674 -0.7557
    4MOL   C361 3427   3.348   4.820   6.103  0.2074  0.2362  0.4109
    4MOL   C362 3428   3.315   4.697   6.043 -0.1054 -0.3312  1.2175
    4MOL   C363 3429   3.210   4.615   6.083  0.3450 -0.1470  0.1982
    4MOL   N364 3430   3.203   4.482   6.040 -0.0885  0.3967 -0.0094
    4MOL   C365 3431   3.309   4.394   6.009  0.3482  0.2360  0.7924
    4MOL   C366 3432   3.428   4.410   6.076 -0.0251  0.7776 -1.0808
    4MOL   C367 3433   3.531   4.315   6.051 -0.7177 -0.0315  0.4478
    4MOL   C368 3434   3.513   4.208   5.965 -0.0730  0.2664 -0.1533
    4MOL   N369 3435   3.612   4.108   5.946 -0.0254 -0.0677  0.3290
    4MOL   C370 3436   3.725   4.092   6.030 -0.0069 -0.3431 -0.0046
    4MOL   C371 3437   3.820   4.193   6.040 -0.1905 -0.0169  0.0266
    4MOL   C372 3438   3.932   4.183   6.122 -0.3531 -0.3961 -0.2933
    4MOL   C373 3439   3.947   4.064   6.203 -0.1793 -0.2074 -0.4257
    4MOL   N374 3440   4.062   4.037   6.273  0.0126 -1.1160  0.3310
    4MOL   C375 3441   4.151   4.124   6.329 -0.0892  0.6236 -0.1043
    4MOL   C376 3442   4.101   4.231   6.404 -0.0123 -0.0147 -0.1063
    4MOL   C377 3443   4.187   4.338   6.437  0.4444 -0.3328  0.2399
    4MOL   C378 3444   4.325   4.322   6.409  0.5451 -0.1865  0.2324
    4MOL   C379 3445   4.417   4.433   6.442 -0.4202  0.1182 -0.2762
    4MOL   C380 3446   4.378   4.206   6.349 -0.0514 -0.0388 -0.4493
    4MOL   C381 3447   4.289   4.106   6.304  0.2099  0.0672 -0.6162
    4MOL   C382 3448   3.851   3.962   6.190  0.1624 -0.1957 -0.3960
    4MOL   C383 3449   3.743   3.971   6.100  0.3381  0.3711 -0.5186
    4MOL   C384 3450   3.393   4.198   5.895  0.9943  0.3832  0.0436
    4MOL   C385 3451   3.290   4.291   5.922 -0.0917 -0.2682  0.7212
    4MOL   C386 3452   3.109   4.679   6.164  0.4610  0.3275  0.2934
    4MOL   C387 3453   3.137   4.803   6.230 -0.1095 -0.1225  0.4898
    4MOL   H388 3454   3.381   5.039   6.234 -0.4544  0.3650  0.2168
    4MOL   H389 3455   3.431   4.881   6.070 -0.7787  1.1664 -0.3822
    4MOL   H390 3456   3.393   4.659   5.977  0.9876 -0.4825  2.5813
    4MOL   H391 3457   3.110   4.443   6.036  0.1235  0.0118 -1.2520
    4MOL   H392 3458   3.448   4.480   6.155  0.5563  0.5140 -0.9880
    4MOL   H393 3459   3.624   4.317   6.106 -0.1784  2.9858 -0.4776
    4MOL   H394 3460   3.598   4.024   5.892 -0.5669 -0.0523  0.4452
    4MOL   H395 3461   3.804   4.288   5.991  1.4662 -0.0341 -0.6018
    4MOL   H396 3462   4.001   4.266   6.115 -0.3541 -0.4662 -1.1393
    4MOL   H397 3463   4.049   3.952   6.327 -1.4150  0.9707  3.3927
    4MOL   H398 3464   3.995   4.235   6.424  0.2856 -0.1195  1.5502
    4MOL   H399 3465   4.136   4.424   6.477  0.8628 -0.2647  0.6380
    4MOL   H400 3466   4.367   4.502   6.510  0.7406 -2.4207  3.3071
    4MOL   H401 3467   4.437   4.485   6.348 -3.0109  0.0834 -0.8953
    4MOL   H402 3468   4.484   4.195   6.332 -0.1820  0.8416 -1.9373
    4MOL   H403 3469   4.320   4.008   6.270  0.9084  0.5085 -1.2648
    4MOL   H404 3470   3.853   3.864   6.236  0.2129 -0.4442 -0.9196
    4MOL   H405 3471   3.666   3.896   6.094  0.5582 -0.0133  1.0789
    4MOL   H406 3472   3.376   4.123   5.820 -0.4781  0.0367  0.7106
    4MOL   H407 3473   3.190   4.284   5.880  0.1683 -0.4406  0.1280
    4MOL   H408 3474   3.023   4.631   6.207 -0.2912  0.7305 -0.7315
    4MOL   H409 3475   3.066   4.834   6.305  0.6598  0.6852  0.8976
    4MOL   N410 3476   4.537   4.382   6.505 -0.3977  0.7422 -0.5406
    4MOL   C411 3477   4.644   4.458   6.452 -0.4441  0.9308 -0.0257
    4MOL   C412 3478   4.750   4.397   6.380 -0.1764  0.3553  0.1930
    4MOL   C413 3479   4.851   4.483   6.332 -0.4645 -0.3996 -0.1041
    4MOL   C414 3480   4.847   4.620   6.342 -0.1586 -0.0258  0.1612
    4MOL   N415 3481   4.943   4.694   6.273 -0.0704  0.3780  0.1321
    4MOL   C416 3482   5.016   4.804   6.324  0.6059 -0.4623  0.2069
    4MOL   C417 3483   5.002   4.837   6.464 -0.4535 -0.7580  0.1124
    4MOL   C418 3484   5.075   4.956   6.507 -0.9576  0.2065  0.3305
    4MOL   C419 3485   5.169   5.025   6.421  0.3735  0.7182  0.6925
    4MOL   N420 3486   5.239   5.132   6.461  0.5238  0.3573 -0.5706
    4MOL   C421 3487   5.259   5.181   6.589 -0.4664  0.1453  0.2797
    4MOL   C422 3488   5.282   5.098   6.705  0.3233  1.0054 -0.0537
    4MOL   C423 3489   5.329   5.153   6.826  0.5004  0.4488 -0.3318
    4MOL   C424 3490   5.350   5.291   6.834 -0.2764  0.5538 -0.5497
    4MOL   N425 3491   5.398   5.345   6.955 -0.8056 -0.7178 -0.5926
    4MOL   C426 3492   5.529   5.343   6.993 -0.1129  0.5736  0.5681
    4MOL   C427 3493   5.585   5.439   7.082  0.3828 -0.1708 -0.8119
    4MOL   C428 3494   5.724   5.456   7.113  0.2066  0.6828  0.0072
    4MOL   C429 3495   5.816   5.362   7.053  0.7231 -0.5460  0.1679
    4MOL   C430 3496   5.965   5.360   7.093  0.7711  0.1348  0.3061
    4MOL   C431 3497   5.767   5.278   6.955 -0.2844  0.5053 -0.0487
    4MOL   C432 3498   5.626   5.267   6.921  0.5907  0.1250  0.1224
    4MOL   C433 3499   5.315   5.379   6.729  0.8729  0.0870 -0.0776
    4MOL   C434 3500   5.271   5.325   6.609 -0.9662 -0.3083  0.6709
    4MOL   C435 3501   5.176   4.989   6.291  0.4754 -0.7518  0.0599
    4MOL   C436 3502   5.100   4.877   6.243  0.1693  0.2888 -0.9007
    4MOL   C437 3503   4.748   4.679   6.417 -0.1335 -0.0581 -0.8259
    4MOL   C438 3504   4.646   4.597   6.470  0.2835  0.0248  0.5690
    4MOL   H439 3505   4.539   4.282   6.513  0.0605  0.6208 -1.8971
    4MOL   H440 3506   4.744   4.293   6.350  1.0106  0.1941  0.5105
    4MOL   H441 3507   4.920   4.442   6.260 -0.2196 -0.5147  0.1919
    4MOL   H442 3508   4.994   4.641   6.203 -0.1043  0.1392  0.2890
    4MOL   H443 3509   4.950   4.783   6.541 -1.5090  0.1147  0.0339
    4MOL   H444 3510   5.072   4.995   6.608  3.2927  1.0559  0.2176
    4MOL   H445 3511   5.271   5.199   6.393 -0.4248  1.1956 -0.2136
    4MOL   H446 3512   5.276   4.991   6.692  2.3091  1.2263 -3.3543
    4MOL   H447 3513   5.340   5.078   6.902  0.3400 -2.0512 -2.6951
    4MOL   H448 3514   5.349   5.429   6.982  0.8255 -0.2665  1.0321
    4MOL   H449 3515   5.517   5.506   7.131  2.2043  0.7570  0.5010
    4MOL   H450 3516   5.752   5.531   7.186  0.9947  0.1790  0.2314
    4MOL   H451 3517   5.976   5.421   7.183 -0.3127  1.1610 -0.2446
    4MOL   H452 3518   6.027   5.418   7.024 -2.0187  1.1052 -1.4612
    4MOL   H453 3519   5.839   5.211   6.910  0.6931  0.0988  2.0553
    4MOL   H454 3520   5.599   5.198   6.842 -1.8710  1.9682 -0.7095
    4MOL   H455 3521   5.336   5.484   6.743  0.9441  0.0843 -0.1671
    4MOL   H456 3522   5.253   5.394   6.528  0.3719 -0.9107 -0.1379
    4MOL   H457 3523   5.238   5.046   6.224 -0.0152  0.1909  0.3943
    4MOL   H458 3524   5.103   4.849   6.139  3.2927 -1.5329 -0.4063
    4MOL   H459 3525   4.741   4.787   6.416  1.0031  0.0763  1.6868
    4MOL   H460 3526   4.576   4.650   6.533 -1.9363 -1.0267 -0.9617
    4MOL   N461 3527   6.027   5.234   7.117  0.7988  0.1279 -0.3173
    4MOL   C462 3528   6.160   5.236   7.163 -0.5205  0.4722  0.6358
    4MOL   C463 3529   6.214   5.119   7.224 -0.0720 -1.1406  0.5150
    4MOL   C464 3530   6.344   5.115   7.268  0.6746 -0.2170  0.7553
    4MOL   C465 3531   6.428   5.235   7.265  0.3303 -0.2100  0.2517
    4MOL   N466 3532   6.557   5.250   7.319 -0.1036  0.0984 -0.2974
    4MOL   C467 3533   6.633   5.142   7.376 -0.1824  0.3629 -0.5802
    4MOL   C468 3534   6.642   5.017   7.306 -0.1277  0.3620  0.3161
    4MOL   C469 3535   6.715   4.910   7.362  0.2123 -0.8131  0.2441
    4MOL   C470 3536   6.781   4.925   7.481  0.1710  0.8710  0.2541
    4MOL   N471 3537   6.856   4.818   7.533  0.2606 -0.2409  0.1851
    4MOL   C472 3538   6.928   4.807   7.652 -0.6452 -0.1797 -0.2257
    4MOL   C473 3539   7.004   4.916   7.705  0.6379 -0.7120 -0.1185
    4MOL   C474 3540   7.062   4.907   7.829  0.0881 -0.3814  0.3720
    4MOL   C475 3541   7.077   4.787   7.900 -0.3062  0.2000  0.6557
    4MOL   N476 3542   7.175   4.779   0.013 -0.5189 -0.1120 -0.3523
    4MOL   C477 3543   7.195   4.666   0.091 -0.0863  0.3520  0.1978
    4MOL   C478 3544   7.086   4.608   0.152  0.0227  0.5575  0.1934
    4MOL   C479 3545   7.105   4.491   0.229  0.3246  0.3660 -0.0487
    4MOL   C480 3546   7.233   4.439   0.256  0.2749  0.0031  0.2740
    4MOL   C481 3547   7.259   4.301   0.312 -0.5523 -1.1585 -1.0247
    4MOL   C482 3548   7.349   4.514   0.214  0.5113 -0.6185 -0.0733
    4MOL   C483 3549   7.329   4.625   0.124  0.1822 -0.0604  0.3930
    4MOL   C484 3550   7.014   4.672   7.844  0.5316 -0.0592 -0.5415
    4MOL   C485 3551   6.941   4.691   7.726  0.5524 -0.4807  0.3516
    4MOL   C486 3552   6.771   5.049   7.551 -0.7454  0.8703  0.0636
    4MOL   C487 3553   6.693   5.155   7.504  0.3248 -0.1742 -0.0246
    4MOL   C488 3554   6.376   5.346   7.197 -0.5717 -0.1732 -0.1145
    4MOL   C489 3555   6.244   5.347   7.148 -0.3630 -0.7266 -0.1397
    4MOL   H490 3556   5.977   5.146   7.114  0.1769  0.3122  2.8547
    4MOL   H491 3557   6.147   5.035   7.238 -0.0204 -0.7675  3.2090
    4MOL   H492 3558   6.377   5.033   7.330  0.1418 -0.9642  0.0715
    4MOL   H493 3559   6.583   5.341   7.355 -0.2099  0.0943 -0.2116
    4MOL   H494 3560   6.589   4.990   7.216  0.0901  2.0174 -0.3316
    4MOL   H495 3561   6.710   4.813   7.314 -0.5050 -0.5987 -0.1280
    4MOL   H496 3562   6.827   4.733   7.487 -1.4701 -0.4547  1.6338
    4MOL   H497 3563   7.006   5.009   7.651  0.0176 -1.1866 -0.9750
    4MOL   H498 3564   7.105   4.992   7.880 -0.4987  1.8138 -2.6257
    4MOL   H499 3565   7.252   4.843   7.980 -0.5833  0.3729  1.2812
    4MOL   H500 3566   6.987   4.651   0.145  0.4245  1.5210  0.3443
    4MOL   H501 3567   7.017   4.435   0.258 -0.2238  0.6794 -1.0459
    4MOL   H502 3568   7.323   4.311   0.400 -1.6253  0.6816 -0.4325
    4MOL   H503 3569   7.338   4.251   0.256 -0.2602 -1.9565  0.0841
    4MOL   H504 3570   7.451   4.486   0.236  0.6658 -0.7727 -0.9485
    4MOL   H505 3571   7.422   4.678   0.110 -0.6290  0.9132 -1.5422
    4MOL   H506 3572   7.019   4.574   7.889 -0.5043 -0.0358 -0.3567
    4MOL   H507 3573   6.900   4.610   7.667  0.7698  0.3792 -1.0059
    4MOL   H508 3574   6.817   5.064   7.648  2.5126  1.1281 -1.4679
    4MOL   H509 3575   6.686   5.244   7.564  0.0517  0.6958 -1.3277
    4MOL   H510 3576   6.422   5.443   7.187  1.1519 -0.8347  0.9674
    4MOL   H511 3577   6.217   5.438   7.096  1.2227  1.1553  2.1875
    4MOL   N512 3578   7.139   4.211   0.313  0.0782 -1.0517  0.5915
    4MOL   C513 3579   7.046   4.217   0.417 -0.1081 -0.5680  0.0900
    4MOL   C514 3580   7.063   4.312   0.518 -0.7831 -0.2627 -0.4983
    4MOL   C515 3581   6.974   4.312   0.629  0.6256 -0.8635 -0.0875
    4MOL   C516 3582   6.855   4.234   0.631 -0.3609  0.6008  0.4602
    4MOL   N517 3583   6.765   4.238   0.736  0.2405 -0.2440 -0.0530
    4MOL   C518 3584   6.772   4.320   0.848 -0.7013 -0.4009 -0.2576
    4MOL   C519 3585   6.886   4.322   0.938  0.3100  0.4584  0.2032
    4MOL   C520 3586   6.891   4.404   1.054 -0.1127 -0.2470  0.9827
    4MOL   C521 3587   6.781   4.480   1.089  0.6617  0.1563  0.1197
    4MOL   N522 3588   6.790   4.562   1.203 -0.0263  0.2147 -0.3668
    4MOL   C523 3589   6.685   4.636   1.260  0.4657 -1.0794  0.5328
    4MOL   C524 3590   6.679   4.772   1.242 -0.9672  0.8243 -0.3158
    4MOL   C525 3591   6.575   4.848   1.288 -0.6912 -0.1597 -0.2954
    4MOL   C526 3592   6.471   4.784   1.353 -0.6910 -0.3833 -0.8326
    4MOL   N527 3593   6.371   4.868   1.406  0.4286 -0.2112  0.0666
    4MOL   C528 3594   6.341   4.994   1.347  0.6459 -0.1802  0.1691
    4MOL   C529 3595   6.355   5.097   1.436 -0.1277  0.4592 -0.6662
    4MOL   C530 3596   6.338   5.227   1.393  0.3653  0.2888 -0.0528
    4MOL   C531 3597   6.298   5.253   1.261  0.2427 -0.5627  0.1587
    4MOL   C532 3598   6.291   5.394   1.201 -0.5008 -0.2633 -0.5490
    4MOL   C533 3599   6.280   5.145   1.169 -0.7337 -0.0515 -0.1998
    4MOL   C534 3600   6.300   5.016   1.215 -0.2250  0.0956 -0.1773
    4MOL   C535 3601   6.472   4.648   1.376 -0.1800  0.1574  0.0110
    4MOL   C536 3602   6.580   4.569   1.324  0.7492  0.6736 -0.4492
    4MOL   C537 3603   6.667   4.481   1.004  0.3328 -0.3380  0.1321
    4MOL   C538 3604   6.664   4.410   0.881 -0.9782  0.0531 -0.0591
    4MOL   C539 3605   6.827   4.150   0.518  0.0025 -0.5077 -0.6019
    4MOL   C540 3606   6.932   4.130   0.422  0.2564  0.1096  0.1625
    4MOL   H541 3607   7.144   4.125   0.259  0.8018 -0.2466 -0.6751
    4MOL   H542 3608   7.152   4.373   0.526 -1.1216 -0.0480  1.7809
    4MOL   H543 3609   7.003   4.382   0.706  0.6125 -2.7173  1.6303
    4MOL   H544 3610   6.675   4.211   0.697  0.0961 -1.6796  1.2290
    4MOL   H545 3611   6.956   4.249   0.903  0.5030 -0.7645  2.9974
    4MOL   H546 3612   6.975   4.401   1.122 -1.4576 -0.2329  2.6747
    4MOL   H547 3613   6.858   4.533   1.271  0.4921  1.6209 -0.2578
    4MOL   H548 3614   6.755   4.826   1.188 -0.0525  0.4208  0.5333
    4MOL   H549 3615   6.572   4.956   1.275 -1.5666 -0.1543 -0.0740
    4MOL   H550 3616   6.326   4.837   1.491  0.7205  0.3977  0.4415
    4MOL   H551 3617   6.395   5.076   1.534 -0.3765  0.2697 -0.6033
    4MOL   H552 3618   6.373   5.304   1.460  0.5358 -0.1944  0.4106
    4MOL   H553 3619   6.380   5.387   1.138  0.5970 -0.1351  0.9427
    4MOL   H554 3620   6.323   5.470   1.273  1.9802 -0.2483 -1.5981
    4MOL   H555 3621   6.250   5.158   1.066 -2.4774 -1.0159  0.1738
    4MOL   H556 3622   6.289   4.926   1.157 -3.2652 -0.5618  1.3111
    4MOL   H557 3623   6.387   4.606   1.429 -0.0212  1.6025  1.4116
    4MOL   H558 3624   6.580   4.462   1.329 -0.8875  0.7336  1.4950
    4MOL   H559 3625   6.586   4.550   1.019 -2.3027 -2.7106 -2.7448
    4MOL   H560 3626   6.580   4.415   0.813 -1.2553  2.5045  0.4070
    4MOL   H561 3627   6.735   4.093   0.515 -0.6926  0.5077  0.8416
    4MOL   H562 3628   6.926   4.071   0.332  0.8547  1.8920 -1.0688
    4MOL   N563 3629   6.164   5.413   1.129 -0.2052 -0.1002  0.1298
    4MOL   C564 3630   6.038   5.424   1.184  0.9825  0.1021  0.2395
    4MOL   C565 3631   5.936   5.467   1.099 -0.1860  0.3089 -0.1298
    4MOL   C566 3632   5.806   5.487   1.152 -0.5331  0.0513 -0.4704
    4MOL   C567 3633   5.783   5.481   1.296 -0.0476  0.0197 -0.1913
    4MOL   N568 3634   5.657   5.506   1.354 -0.1261  0.7611  0.1710
    4MOL   C569 3635   5.534   5.542   1.298 -0.1347 -1.0217  0.4044
    4MOL   C570 3636   5.426   5.460   1.320 -0.1538 -0.2116 -0.0113
    4MOL   C571 3637   5.301   5.485   1.262 -0.0598 -0.1857  0.5495
    4MOL   C572 3638   5.289   5.596   1.177 -0.5560  0.3718  0.3004
    4MOL   N573 3639   5.167   5.611   1.116 -0.2523 -0.5192  0.1062
    4MOL   C574 3640   5.134   5.689   1.005 -0.7458  0.1576  0.1893
    4MOL   C575 3641   5.147   5.831   1.009 -0.4804 -0.2473  0.7117
    4MOL   C576 3642   5.107   5.908   0.904 -0.0202 -0.0806  0.1096
    4MOL   C577 3643   5.046   5.846   0.794  0.1248  0.2171  0.0039
    4MOL   N578 3644   4.995   5.912   0.690  0.1482  0.0469 -0.2998
    4MOL   C579 3645   4.932   6.036   0.688 -0.1962  0.3560  0.5698
    4MOL   C580 3646   4.883   6.102   0.805 -0.1680  0.0011 -0.4360
    4MOL   C581 3647   4.817   6.227   0.796 -0.5752  0.8165 -0.3216
    4MOL   C582 3648   4.792   6.288   0.674 -0.3517  0.9640 -0.4305
    4MOL   C583 3649   4.728   6.425   0.664 -0.5488 -0.0650 -0.1393
    4MOL   C584 3650   4.829   6.215   0.561  0.3608 -0.2093  0.4406
    4MOL   C585 3651   4.901   6.094   0.560 -0.4221 -0.4702 -0.3271
    4MOL   C586 3652   5.035   5.708   0.787 -0.2179 -0.5105  0.1512
    4MOL   C587 3653   5.083   5.625   0.889 -0.2982  0.2245  0.2081
    4MOL   C588 3654   5.399   5.671   1.145 -0.3661  0.1160  0.3068
    4MOL   C589 3655   5.526   5.651   1.205 -0.3554  0.1033 -0.6532
    4MOL   C590 3656   5.888   5.442   1.383  0.3493 -0.3500  1.1031
    4MOL   C591 3657   6.017   5.422   1.325  0.4485 -0.6231 -0.1236
    4MOL   H592 3658   6.167   5.408   1.028 -0.1572  0.9077  0.0747
    4MOL   H593 3659   5.965   5.478   0.995  2.1980 -1.7058  0.2637
    4MOL   H594 3660   5.726   5.506   1.082  0.6796 -1.2269 -2.2226
    4MOL   H595 3661   5.650   5.458   1.443  0.0915  0.7376  0.1753
    4MOL   H596 3662   5.443   5.374   1.383 -0.2604 -0.3670 -0.1936
    4MOL   H597 3663   5.215   5.421   1.275 -0.5057  0.1999 -0.3810
    4MOL   H598 3664   5.100   5.537   1.126 -2.9064  1.8211  0.1962
    4MOL   H599 3665   5.181   5.876   1.101 -0.1498 -0.0276  0.4832
    4MOL   H600 3666   5.120   6.015   0.910 -1.4879  0.2116 -1.5817
    4MOL   H601 3667   5.021   5.863   0.605 -0.1508 -0.9605  0.1823
    4MOL   H602 3668   4.902   6.059   0.902  2.5247  2.4673  0.2198
    4MOL   H603 3669   4.781   6.271   0.888  1.9141 -1.5152  1.8779
    4MOL   H604 3670   4.727   6.483   0.756 -0.0273  0.3437 -0.3916
    4MOL   H605 3671   4.623   6.413   0.637 -0.4878  3.0860 -2.0367
    4MOL   H606 3672   4.803   6.264   0.469 -0.3283 -1.3064  0.0396
    4MOL   H607 3673   4.931   6.044   0.469  1.9037  1.2617 -0.5470
    4MOL   H608 3674   4.981   5.666   0.703 -0.7843 -0.3047  0.4092
    4MOL   H609 3675   5.095   5.519   0.875  0.8745  0.4870 -0.8299
    4MOL   H610 3676   5.389   5.759   1.082 -0.6537  0.1516  0.4004
    4MOL   H611 3677   5.609   5.716   1.182 -0.6823  0.8681  0.3031
    4MOL   H612 3678   5.870   5.431   1.489 -1.1205 -2.1863  0.6966
    4MOL   H613 3679   6.106   5.401   1.382  1.4752  2.5053 -0.4758
    4MOL   N614 3680   4.785   6.495   0.547  0.0262  0.3628  0.5208
    4MOL   C615 3681   4.732   6.619   0.507 -0.5390  0.0990  0.0487
    4MOL   C616 3682   4.597   6.652   0.524  0.1127  0.3687 -0.7445
    4MOL   C617 3683   4.550   6.775   0.472  0.3200  0.5039  0.4834
    4MOL   C618 3684   4.633   6.874   0.415  0.0518  0.2235 -0.6094
    4MOL   N619 3685   4.597   7.003   0.384 -0.4785 -0.3097 -0.2599
    4MOL   C620 3686   4.471   7.053   0.353  0.7213  0.2062 -0.6419
    4MOL   C621 3687   4.454   7.191   0.343 -0.8807 -0.0799  0.3494
    4MOL   C622 3688   4.331   7.249   0.315  0.2739  0.3384  0.4367
    4MOL   C623 3689   4.222   7.163   0.285  0.4263  0.4808  0.1589
    4MOL   N624 3690   4.103   7.222   0.249 -0.2289 -0.2064  0.3004
    4MOL   C625 3691   4.042   7.342   0.283 -0.0667  0.6923  0.6670
    4MOL   C626 3692   4.062   7.404   0.410 -0.3534 -0.3178  0.1993
    4MOL   C627 3693   4.004   7.527   0.434 -0.9223  0.4066 -0.3804
    4MOL   C628 3694   3.918   7.583   0.339 -0.7154 -0.0144  0.4112
    4MOL   N629 3695   3.857   7.707   0.372  0.3798 -0.1985 -0.0724
    4MOL   C630 3696   3.776   7.786   0.291  0.6298 -0.5330 -0.7591
    4MOL   C631 3697   3.660   7.729   0.234 -0.5502  0.2583 -0.1372
    4MOL   C632 3698   3.579   7.805   0.154 -0.5419  0.1779 -0.0255
    4MOL   C633 3699   3.616   7.934   0.115 -0.3859  0.9609 -0.6939
    4MOL   C634 3700   3.518   0.027   0.027 -0.0324  0.0072 -0.0641
    4MOL   C635 3701   3.726   0.012   0.176 -0.2169  0.2241  0.1310
    4MOL   C636 3702   3.808   7.920   0.267 -0.9273 -0.0448 -0.8289
    4MOL   C637 3703   3.892   7.525   0.216  0.0748  0.4226  0.0749
    4MOL   C638 3704   3.957   7.407   0.187  0.1372 -0.2075 -0.1380
    4MOL   C639 3705   4.240   7.026   0.274 -0.2813 -0.7356 -0.6347
    4MOL   C640 3706   4.361   6.971   0.313 -0.1579  0.1056  0.2452
    4MOL   C641 3707   4.772   6.840   0.403  0.2475 -0.5907 -0.8027
    4MOL   C642 3708   4.821   6.717   0.449 -0.3121 -0.2243 -0.2641
    4MOL   H643 3709   4.882   6.488   0.522  0.2034  3.3620  0.1186
    4MOL   H644 3710   4.525   6.581   0.562  1.1179 -0.3397 -0.1017
    4MOL   H645 3711   4.445   6.789   0.494  0.6088  1.0632  1.5246
    4MOL   H646 3712   4.648   7.073   0.437  0.4957 -0.6844 -0.6785
    4MOL   H647 3713   4.535   7.258   0.369 -2.6354  4.1921 -4.1615
    4MOL   H648 3714   4.315   7.355   0.311  1.7183  0.6429  2.0256
    4MOL   H649 3715   4.040   7.177   0.184  1.5636  1.2882 -2.5679
    4MOL   H650 3716   4.131   7.364   0.484  0.2016  0.2586  0.0025
    4MOL   H651 3717   4.020   7.577   0.528 -2.2651 -0.6353  0.4256
    4MOL   H652 3718   3.881   7.752   0.458  0.8529  0.1498 -0.3875
    4MOL   H653 3719   3.630   7.627   0.255 -1.7773  0.8862  1.2428
    4MOL   H654 3720   3.483   7.769   0.121 -0.0534 -1.0834 -0.1120
    4MOL   H655 3721   3.417   7.966   0.031  0.2470 -0.9028 -2.0315
    4MOL   H656 3722   3.554   0.022   7.906 -0.8020 -1.7448 -0.2722
    4MOL   H657 3723   3.746   0.113   0.146 -0.3955 -0.2859 -1.7889
    4MOL   H658 3724   3.887   7.973   0.319  0.8124 -1.1268 -2.3031
    4MOL   H659 3725   3.830   7.575   0.142 -0.3383  0.2990  0.3359
    4MOL   H660 3726   3.942   7.370   0.087 -1.0149 -0.3330  0.0755
    4MOL   H661 3727   4.159   6.968   0.232 -1.3052  0.9445 -1.0385
    4MOL   H662 3728   4.372   6.865   0.291 -0.1196  0.0974  0.3037
    4MOL   H663 3729   4.839   6.916   0.365 -1.6231  0.5693 -1.9045
    4MOL   H664 3730   4.927   6.698   0.438 -0.1675  1.0484 -1.1520
    4MOL   N665 3731   3.505   0.169   0.065  0.7675  0.9782 -0.0113
    4MOL   C666 3732   3.422   0.257   7.977  0.2949  0.5464  0.5499
    4MOL   C667 3733   3.351   0.346   0.070 -0.0144  0.4411 -0.6969
    4MOL   C668 3734   3.270   0.445   0.015  0.1424 -0.6485  0.0404
    4MOL   C669 3735   3.253   0.443   7.854  0.2263 -0.4477  0.3535
    4MOL   N670 3736   3.160   0.542   7.795  0.2882  0.5686 -0.3248
    4MOL   C671 3737   3.165   0.587   7.667 -0.5833  0.1748  0.2719
    4MOL   C672 3738   3.282   0.599   7.590  0.1757 -0.1208  0.2645
    4MOL   C673 3739   3.285   0.661   7.465 -0.1731  0.1947 -0.2649
    4MOL   C674 3740   3.165   0.711   7.411  0.4919 -0.4502 -0.2157
    4MOL   N675 3741   3.150   0.778   7.293  0.4349 -0.3487 -0.0864
    4MOL   C676 3742   3.220   0.754   7.174 -0.0632 -0.7662  0.0620
    4MOL   C677 3743   3.276   0.627   7.153 -0.1901  0.3174 -0.0821
    4MOL   C678 3744   3.340   0.595   7.030 -0.4174 -0.5269 -0.6472
    4MOL   C679 3745   3.356   0.697   6.935  0.5372  0.5737 -0.2271
    4MOL   N680 3746   3.441   0.677   6.825  0.7170  0.1629 -0.0591
    4MOL   C681 3747   3.506   0.555   6.808 -0.8044  0.2618 -0.6815
    4MOL   C682 3748   3.445   0.442   6.749  0.1114 -0.2398  0.0750
    4MOL   C683 3749   3.507   0.320   6.759  0.2935 -0.7471  0.0618
    4MOL   C684 3750   3.638   0.308   6.797 -0.4041  0.2552  0.3423
    4MOL   C685 3751   3.708   0.174   6.791  0.4703 -0.4343  0.0775
    4MOL   C686 3752   3.709   0.419   6.839 -0.1260 -0.0210 -0.1978
    4MOL   C687 3753   3.640   0.541   6.850  0.5408  0.2449  0.0133
    4MOL   C688 3754   3.298   0.827   6.949 -0.1626 -0.5993 -0.3073
    4MOL   C689 3755   3.239   0.855   7.076  0.4480  1.3066  0.5930
    4MOL   C690 3756   3.045   0.695   7.483 -0.0942  0.3699  0.1049
    4MOL   C691 3757   3.047   0.640   7.616  0.3780 -0.4494  0.0089
    4MOL   C692 3758   3.311   0.344   7.776 -0.3908 -0.4552 -0.0090
    4MOL   C693 3759   3.406   0.254   7.836 -0.0919 -0.6867 -0.6541
    4MOL   H694 3760   3.506   0.178   0.166 -2.8794  0.0787  0.1661
    4MOL   H695 3761   3.368   0.351   0.177 -1.4736  2.4603 -0.5312
    4MOL   H696 3762   3.206   0.511   0.072  2.1624  0.4026  1.1416
    4MOL   H697 3763   3.074   0.567   7.842 -0.1351 -0.5248 -0.4976
    4MOL   H698 3764   3.377   0.557   7.617  0.9990  1.3546 -0.3128
    4MOL   H699 3765   3.387   0.668   7.429 -0.3621 -0.7422 -0.9962
    4MOL   H700 3766   3.060   0.820   7.274  0.4428 -0.4521 -0.3563
    4MOL   H701 3767   3.274   0.555   7.233  0.3355  2.1855  1.6507
    4MOL   H702 3768   3.385   0.498   7.017 -1.5215 -0.6723 -3.6668
    4MOL   H703 3769   3.500   0.755   6.800  0.2814  0.8465  1.0212
    4MOL   H704 3770   3.341   0.447   6.721  0.3073  1.6471 -0.3797
    4MOL   H705 3771   3.445   0.240   6.722 -1.7646  0.5076  0.7385
    4MOL   H706 3772   3.804   0.194   6.744 -1.4970  1.6560 -3.2595
    4MOL   H707 3773   3.654   0.098   6.734 -0.1157  1.5958 -2.1503
    4MOL   H708 3774   3.814   0.409   6.861 -0.0208 -1.1210 -1.1456
    4MOL   H709 3775   3.688   0.630   6.888 -0.0989  0.4054  0.4461
    4MOL   H710 3776   3.315   0.908   6.879 -3.1139  1.6222  1.4614
    4MOL   H711 3777   3.200   0.954   7.094 -1.4910  1.4142 -3.6236
    4MOL   H712 3778   2.957   0.738   7.438 -1.3790 -1.4976  0.7831
    4MOL   H713 3779   2.959   0.630   7.677  1.2015 -2.2023  0.9397
    4MOL   H714 3780   3.295   0.335   7.670  0.9673 -1.0221 -0.1741
    4MOL   H715 3781   3.460   0.183   7.776  1.2641 -0.9817  0.8862
    4MOL   N716 3782   3.746   0.120   6.924  0.5038  0.4236 -0.6394
    4MOL   C717 3783   3.659   0.027   6.978 -0.1047 -0.2490 -0.2278
    4MOL   C718 3784   3.717   7.905   7.049 -0.0626  0.6156  0.4018
    4MOL   C719 3785   3.634   7.810   7.112 -0.0047 -0.5494 -0.4048
    4MOL   C720 3786   3.494   7.816   7.096  0.8039 -0.5089  0.8922
    4MOL   N721 3787   3.409   7.726   7.162 -0.2303 -0.3897 -0.3826
    4MOL   C722 3788   3.434   7.615   7.245 -0.2207  0.6211 -0.3658
    4MOL   C723 3789   3.351   7.579   7.358 -0.4849  0.2061  0.3045
    4MOL   C724 3790   3.395   7.477   7.456  0.2821 -0.7304 -0.4284
    4MOL   C725 3791   3.499   7.393   7.416  0.7921 -0.1564 -0.4096
    4MOL   N726 3792   3.532   7.287   7.506 -0.2884  0.0535  0.0854
    4MOL   C727 3793   3.599   7.169   7.494  0.1543 -0.1260  0.6025
    4MOL   C728 3794   3.602   7.095   7.372 -0.0380  0.2297 -0.5525
    4MOL   C729 3795   3.691   6.981   7.365 -0.2058 -0.2918 -0.5432
    4MOL   C730 3796   3.763   6.930   7.481  0.7791 -0.0943  0.0817
    4MOL   N731 3797   3.847   6.812   7.482  0.6677  0.5462 -0.3816
    4MOL   C732 3798   3.927   6.769   7.587 -0.5208 -0.5776  0.2454
    4MOL   C733 3799   3.907   6.644   7.648  0.1587  0.1426 -0.4428
    4MOL   C734 3800   3.986   6.610   7.756 -0.2281  0.4533 -0.1666
    4MOL   C735 3801   4.091   6.691   7.804  0.4255 -0.0608 -0.3961
    4MOL   C736 3802   4.168   6.670   7.932  0.2150  0.1427  0.1666
    4MOL   C737 3803   4.112   6.815   7.737 -0.1164 -0.8511  0.6865
    4MOL   C738 3804   4.029   6.855   7.631 -0.2680 -0.4588 -0.0622
    4MOL   C739 3805   3.752   7.004   7.599 -0.7108 -0.0589 -0.1372
    4MOL   C740 3806   3.671   7.124   7.608 -0.0341  0.4375  0.1159
    4MOL   C741 3807   3.569   7.407   7.296 -0.2496 -0.2042  0.4201
    4MOL   C742 3808   3.536   7.516   7.216 -1.3074 -0.8698 -0.2381
    4MOL   C743 3809   3.436   7.914   7.012  0.1806  0.3996 -0.8369
    4MOL   C744 3810   3.518   0.036   6.959 -0.4452  0.1244 -0.2326
    4MOL   H745 3811   3.844   0.101   6.943 -0.2078 -1.8489  0.9878
    4MOL   H746 3812   3.823   7.923   7.060  0.1331 -1.6056  2.4707
    4MOL   H747 3813   3.674   7.745   7.188  0.0137  1.7524  1.6374
    4MOL   H748 3814   3.313   7.759   7.165 -0.0335  0.1624 -0.1514
    4MOL   H749 3815   3.261   7.632   7.382  0.1597  0.2422  2.7558
    4MOL   H750 3816   3.339   7.466   7.548 -1.4232  1.1298 -1.1886
    4MOL   H751 3817   3.511   7.307   7.603  0.7322  1.4556  0.0254
    4MOL   H752 3818   3.542   7.132   7.290  0.7606 -0.9486 -1.6571
    4MOL   H753 3819   3.691   6.919   7.276  2.1535  0.6817 -1.2535
    4MOL   H754 3820   3.804   6.739   7.426  0.8541  0.3031 -0.2070
    4MOL   H755 3821   3.833   6.570   7.622 -0.3598 -0.1103  1.6272
    4MOL   H756 3822   3.966   6.519   7.810 -0.1859 -0.0560 -0.9993
    4MOL   H757 3823   4.275   6.692   7.930  0.3371 -0.2434  1.8281
    4MOL   H758 3824   4.175   6.562   7.941  0.0846  0.2181  1.3222
    4MOL   H759 3825   4.195   6.871   7.779  0.4667 -3.3211  2.9586
    4MOL   H760 3826   4.037   6.949   7.578 -1.8969  1.0190  2.2458
    4MOL   H761 3827   3.803   6.966   7.687 -1.0970  0.2822  0.2369
    4MOL   H762 3828   3.656   7.167   7.706 -0.8064 -0.2690  0.3164
    4MOL   H763 3829   3.644   7.333   7.272  0.8372  0.3599  1.9905
    4MOL   H764 3830   3.600   7.525   7.130 -2.3766  0.7222 -0.8757
    4MOL   H765 3831   3.329   7.928   7.016  0.2112  0.7269 -1.0977
    4MOL   H766 3832   3.468   0.116   6.906 -0.5850  1.4965  1.9039
    4MOL   N767 3833   4.096   6.747   0.063 -0.1376 -0.0235  0.2323
    4MOL   C768 3834   4.112   6.692   0.194 -0.2432  0.8279 -0.0510
    4MOL   C769 3835   4.220   6.607   0.225 -0.8004  0.0726  0.4140
    4MOL   C770 3836   4.242   6.563   0.358  0.2316 -0.0537  0.0332
    4MOL   C771 3837   4.160   6.622   0.463  0.5321 -0.1022 -0.3287
    4MOL   N772 3838   4.200   6.610   0.599 -0.3227  0.0660  0.7511
    4MOL   C773 3839   4.270   6.501   0.652 -0.4992 -0.3747  0.4814
    4MOL   C774 3840   4.242   6.364   0.617 -0.2616  0.0459 -0.1464
    4MOL   C775 3841   4.306   6.260   0.684 -0.3354 -0.4132  0.1269
    4MOL   C776 3842   4.394   6.286   0.786  0.4149  0.0020 -0.1398
    4MOL   N777 3843   4.444   6.185   0.863  0.4062 -0.2150 -0.7247
    4MOL   C778 3844   4.411   6.170   1.001 -0.2482  0.8893  0.4809
    4MOL   C779 3845   4.507   6.110   1.084  0.7377  0.3765 -0.5046
    4MOL   C780 3846   4.488   6.102   1.226  0.0215 -0.4082 -0.3017
    4MOL   C781 3847   4.367   6.132   1.289  0.8200 -0.1998  0.5054
    4MOL   N782 3848   4.347   6.124   1.430 -0.3054  0.0591  0.0357
    4MOL   C783 3849   4.398   6.028   1.524  0.0194  0.0757 -0.7624
    4MOL   C784 3850   4.444   5.901   1.485 -0.1683  0.3946  0.1864
    4MOL   C785 3851   4.497   5.816   1.583 -0.5720 -0.1456  0.1067
    4MOL   C786 3852   4.499   5.854   1.720 -0.3325  0.2267  0.1564
    4MOL   C787 3853   4.551   5.759   1.821  0.2984 -0.1851 -0.6409
    4MOL   C788 3854   4.457   5.981   1.760  0.4503 -0.2179 -0.0800
    4MOL   C789 3855   4.408   6.064   1.663 -0.4553  0.4801 -0.3302
    4MOL   C790 3856   4.265   6.184   1.203  0.5323  0.4857  0.1089
    4MOL   C791 3857   4.282   6.201   1.062  0.0858 -0.3903 -0.5317
    4MOL   C792 3858   4.424   6.420   0.823  0.1781 -0.0867 -0.1021
    4MOL   C793 3859   4.355   6.525   0.759 -0.4793 -0.2618 -0.9308
    4MOL   C794 3860   4.047   6.693   0.425  0.4134 -0.1960  0.5560
    4MOL   C795 3861   4.020   6.724   0.292 -0.4091 -0.6700 -0.0471
    4MOL   H796 3862   4.021   6.812   0.043 -2.6972 -2.6935  0.8732
    4MOL   H797 3863   4.283   6.564   0.148 -0.5796  2.5705 -0.8833
    4MOL   H798 3864   4.332   6.511   0.386  0.1198 -0.5870 -0.6093
    4MOL   H799 3865   4.199   6.687   0.664  2.5394  2.1797 -1.5812
    4MOL   H800 3866   4.179   6.335   0.534 -0.6706 -0.2612  0.2713
    4MOL   H801 3867   4.302   6.161   0.641 -1.6997 -1.1696  1.9751
    4MOL   H802 3868   4.520   6.128   0.828  0.2933 -0.9162  0.1425
    4MOL   H803 3869   4.600   6.088   1.035  0.7783 -0.2642 -0.1381
    4MOL   H804 3870   4.563   6.061   1.291  1.2157  0.9339 -0.8028
    4MOL   H805 3871   4.274   6.185   1.466 -0.1503  0.6746 -0.6896
    4MOL   H806 3872   4.459   5.880   1.380 -1.2786  1.3444 -0.1639
    4MOL   H807 3873   4.552   5.728   1.552 -0.5541 -0.0166 -0.2175
    4MOL   H808 3874   4.569   5.668   1.765 -1.6482 -0.9812 -0.0222
    4MOL   H809 3875   4.459   5.750   1.878  0.1512  3.1099 -0.2613
    4MOL   H810 3876   4.467   6.008   1.864  1.0397  0.5561 -0.3395
    4MOL   H811 3877   4.364   6.156   1.699 -0.4893  0.4491 -0.2939
    4MOL   H812 3878   4.166   6.204   1.241 -0.1566 -0.1608 -1.2940
    4MOL   H813 3879   4.202   6.235   0.998 -0.6697 -0.7189  0.2350
    4MOL   H814 3880   4.486   6.442   0.908  0.9298 -0.5905 -0.5203
    4MOL   H815 3881   4.360   6.624   0.803 -0.4594 -2.1061  3.4479
    4MOL   H816 3882   3.982   6.730   0.504  2.5412 -0.1907  2.3425
    4MOL   H817 3883   3.931   6.777   0.264  0.3070  0.7636  0.3702
    4MOL   N818 3884   4.651   5.808   1.915 -0.9208  0.4141  0.5861
    4MOL   C819 3885   4.678   5.733   2.031 -0.2784  0.1465 -0.6992
    4MOL   C820 3886   4.623   5.609   2.061  0.1008  0.4764  0.4049
    4MOL   C821 3887   4.657   5.538   2.182  0.2241 -0.2209  0.0235
    4MOL   C822 3888   4.735   5.607   2.280 -0.0431  0.3982 -0.2315
    4MOL   N823 3889   4.726   5.559   2.409  0.6094 -0.3434 -0.3682
    4MOL   C824 3890   4.652   5.620   2.504  0.5316  0.4208  0.3149
    4MOL   C825 3891   4.587   5.745   2.479 -0.0760  0.2027  0.0431
    4MOL   C826 3892   4.501   5.795   2.577 -0.1801  0.5074  0.2221
    4MOL   C827 3893   4.473   5.727   2.696 -0.7444  0.8106  0.0356
    4MOL   N828 3894   4.387   5.788   2.784  0.0786 -0.1544  0.2423
    4MOL   C829 3895   4.314   5.905   2.771 -0.6198  0.7215  0.7020
    4MOL   C830 3896   4.231   5.923   2.663  0.3891 -0.2888 -0.6962
    4MOL   C831 3897   4.168   6.048   2.646  0.5892  0.4754 -0.3857
    4MOL   C832 3898   4.182   6.150   2.736  0.4936 -1.7941 -0.0480
    4MOL   N833 3899   4.103   6.270   2.731 -0.2713 -0.1539 -0.0513
    4MOL   C834 3900   4.042   6.328   2.622 -0.4691  0.2623  0.2431
    4MOL   C835 3901   3.915   6.392   2.642  0.2594  0.3412  0.1805
    4MOL   C836 3902   3.835   6.430   2.528 -0.3568  0.3072  0.3114
    4MOL   C837 3903   3.888   6.423   2.394 -0.1884  0.0911 -1.0886
    4MOL   C838 3904   3.807   6.478   2.278 -0.2599  0.3401  0.5438
    4MOL   C839 3905   4.013   6.352   2.376  0.0935  0.1984 -0.1706
    4MOL   C840 3906   4.086   6.308   2.486  0.5862 -0.5673  0.0637
    4MOL   C841 3907   4.267   6.141   2.841  0.2469  0.0974  0.0848
    4MOL   C842 3908   4.337   6.016   2.860  0.0659 -0.1921 -0.2894
    4MOL   C843 3909   4.534   5.601   2.722 -1.0010  0.2160  0.4342
    4MOL   C844 3910   4.627   5.549   2.629 -0.0006 -0.4800  0.7119
    4MOL   C845 3911   4.798   5.729   2.242 -0.0328  0.3116 -0.4525
    4MOL   C846 3912   4.761   5.792   2.125 -0.0145  0.5564 -0.0632
    4MOL   H847 3913   4.713   5.883   1.890 -0.9975 -0.7657 -3.5088
    4MOL   H848 3914   4.553   5.561   1.994  1.4641  1.1143 -1.5177
    4MOL   H849 3915   4.600   5.451   2.209  0.9616 -0.2714  1.4631
    4MOL   H850 3916   4.746   5.460   2.405  1.1762 -0.2137 -0.7857
    4MOL   H851 3917   4.600   5.802   2.388  2.0724  1.6761  1.2247
    4MOL   H852 3918   4.461   5.891   2.548  0.3279  0.6053 -0.1557
    4MOL   H853 3919   4.358   5.724   2.857  0.6427  0.0194  0.6238
    4MOL   H854 3920   4.214   5.840   2.597  0.7092 -0.9441  0.0388
    4MOL   H855 3921   4.091   6.056   2.571  0.5083  2.1631 -0.1214
    4MOL   H856 3922   4.077   6.311   2.820 -0.5366  1.3624 -0.8117
    4MOL   H857 3923   3.871   6.411   2.739  1.2797  3.1336  0.1270
    4MOL   H858 3924   3.737   6.471   2.549 -0.9715 -0.1326 -1.5856
    4MOL   H859 3925   3.822   6.422   2.186 -0.4726  0.5483  0.3819
    4MOL   H860 3926   3.837   6.580   2.257 -3.2579  1.4201  1.3030
    4MOL   H861 3927   4.062   6.348   2.280  0.0038  2.0188 -0.3085
    4MOL   H862 3928   4.178   6.253   2.468 -0.0673 -2.1038  1.3557
    4MOL   H863 3929   4.292   6.217   2.914  0.5301  0.2282 -0.1506
    4MOL   H864 3930   4.394   5.995   2.950  0.2871  1.5491 -0.0172
    4MOL   H865 3931   4.523   5.554   2.818  1.4088 -1.2856  0.0202
    4MOL   H866 3932   4.686   5.462   2.654 -1.9575 -1.6324  1.4749
    4MOL   H867 3933   4.844   5.787   2.320 -1.9993 -0.0856  1.0216
    4MOL   H868 3934   4.787   5.896   2.110 -2.3442  0.9914 -1.2530
    4MOL   N869 3935   3.664   6.496   2.301 -0.0456  0.2093  0.3862
    4MOL   C870 3936   3.579   6.529   2.194  0.2768 -0.3260 -0.3730
    4MOL   C871 3937   3.472   6.611   2.223 -0.0042  0.0098 -0.2735
    4MOL   C872 3938   3.375   6.642   2.121  0.8568 -0.7792  0.3807
    4MOL   C873 3939   3.406   6.614   1.987 -0.0150 -0.2046 -0.4479
    4MOL   N874 3940   3.320   6.666   1.887 -0.5993 -0.0903 -0.1506
    4MOL   C875 3941   3.353   6.710   1.761  0.1508 -0.1412 -0.0325
    4MOL   C876 3942   3.277   6.657   1.654  0.5884  0.6222  0.3289
    4MOL   C877 3943   3.296   6.705   1.522  0.0103 -0.7393  0.2506
    4MOL   C878 3944   3.386   6.809   1.497 -0.2591 -0.5147 -0.1379
    4MOL   N879 3945   3.400   6.861   1.369  0.0822  0.2216  0.1869
    4MOL   C880 3946   3.513   6.897   1.304  0.2468 -0.1835  0.3225
    4MOL   C881 3947   3.648   6.860   1.330  0.2890  0.8529 -0.5108
    4MOL   C882 3948   3.753   6.901   1.250  0.4989  0.3709  0.3063
    4MOL   C883 3949   3.723   6.998   1.147 -0.5582 -0.1116  0.7541
    4MOL   N884 3950   3.830   7.059   1.075 -0.2397 -0.4596  0.0643
    4MOL   C885 3951   3.967   7.012   1.079  0.7593 -0.9816 -0.1923
    4MOL   C886 3952   4.004   6.894   1.027  0.5910 -0.0351 -0.2878
    4MOL   C887 3953   4.140   6.855   1.010 -0.3741 -0.7651 -0.8226
    4MOL   C888 3954   4.241   6.933   1.074  1.3134 -0.3346 -0.3577
    4MOL   C889 3955   4.387   6.892   1.056 -0.4301  0.2574  0.1158
    4MOL   C890 3956   4.198   7.052   1.149  0.6849 -0.1874  0.3957
    4MOL   C891 3957   4.067   7.097   1.142  0.1009  0.3708  1.0849
    4MOL   C892 3958   3.594   7.041   1.123 -0.4281 -0.2378 -0.1530
    4MOL   C893 3959   3.488   6.995   1.204 -0.0121  0.3686  0.0574
    4MOL   C894 3960   3.453   6.864   1.604 -0.0496  0.0531 -0.4136
    4MOL   C895 3961   3.436   6.818   1.740  0.0688 -0.4581  0.3825
    4MOL   C896 3962   3.520   6.544   1.955 -0.3020 -0.8387  0.6728
    4MOL   C897 3963   3.604   6.500   2.054  0.3363 -0.4083 -0.2536
    4MOL   H898 3964   3.644   6.556   2.380  1.6453 -0.3107  1.2184
    4MOL   H899 3965   3.436   6.636   2.322  2.3547  0.7956  0.4252
    4MOL   H900 3966   3.289   6.700   2.150  1.1423  0.6867 -1.5845
    4MOL   H901 3967   3.238   6.608   1.880 -0.2236 -0.5322 -0.9494
    4MOL   H902 3968   3.207   6.577   1.673  1.2248  0.4690  2.0699
    4MOL   H903 3969   3.232   6.680   1.439 -0.1294  1.4344 -0.3160
    4MOL   H904 3970   3.315   6.857   1.314 -0.7298  2.3023  1.2132
    4MOL   H905 3971   3.666   6.780   1.400 -1.1358 -0.2348 -1.3503
    4MOL   H906 3972   3.852   6.865   1.273  0.5061  0.2283  0.0550
    4MOL   H907 3973   3.826   7.158   1.058  0.4489 -0.1431  1.6216
    4MOL   H908 3974   3.935   6.821   0.987  0.5455 -0.4249  0.4843
    4MOL   H909 3975   4.166   6.764   0.959  0.4304 -0.1005 -1.5975
    4MOL   H910 3976   4.454   6.950   1.118 -0.5715  0.5380  0.0084
    4MOL   H911 3977   4.414   6.903   0.951 -2.7133 -2.3720 -0.8255
    4MOL   H912 3978   4.271   7.115   1.197  1.0041  0.9461 -1.5196
    4MOL   H913 3979   4.041   7.186   1.196 -0.6206  0.3956  0.6953
    4MOL   H914 3980   3.578   7.122   1.052 -1.4119  2.0789  2.6161
    4MOL   H915 3981   3.388   7.033   1.193 -0.7057 -1.2577  0.5718
    4MOL   H916 3982   3.516   6.950   1.584  0.0693  0.3757  1.3464
    4MOL   H917 3983   3.493   6.862   1.821 -0.1665  2.1118 -0.7739
    4MOL   H918 3984   3.550   6.507   1.858  0.0157 -0.2879  0.5607
    4MOL   H919 3985   3.689   6.444   2.019  1.5065 -0.2890  2.2992
    4MOL   N920 3986   4.403   6.752   1.085  0.1042 -0.5940 -0.7225
    4MOL   C921 3987   4.524   6.688   1.072 -0.4199  0.5308  0.1024
    4MOL   C922 3988   4.633   6.733   0.993  0.7167  0.2171 -0.4888
    4MOL   C923 3989   4.755   6.671   0.987 -0.0623  0.0757  0.1779
    4MOL   C924 3990   4.775   6.559   1.068 -0.4566  0.2370  0.0121
    4MOL   N925 3991   4.901   6.499   1.063  0.0176  0.0544  0.3626
    4MOL   C926 3992   4.952   6.399   1.143  0.2361 -0.4830 -0.0444
    4MOL   C927 3993   5.012   6.286   1.079  0.5196 -0.0587  0.1754
    4MOL   C928 3994   5.077   6.188   1.154  0.6450 -0.2198  0.4263
    4MOL   C929 3995   5.087   6.200   1.294  0.7145  0.0729  0.9548
    4MOL   N930 3996   5.174   6.115   1.366  0.2429  0.0781  0.4965
    4MOL   C931 3997   5.305   6.085   1.335  0.0584  0.4347  0.4204
    4MOL   C932 3998   5.347   5.962   1.390  0.4485 -0.3502 -0.4231
    4MOL   C933 3999   5.480   5.921   1.372  0.6113 -0.2333 -0.0827
    4MOL   C934 4000   5.565   5.996   1.297  0.3538 -0.1927  0.0828
    4MOL   N935 4001   5.697   5.951   1.275  0.2252  0.0137 -0.0696
    4MOL   C936 4002   5.780   5.989   1.173 -0.7275  0.1630 -0.1627
    4MOL   C937 4003   5.901   6.041   1.202 -0.1179  0.1876 -0.0113
    4MOL   C938 4004   5.987   6.084   1.099  0.7876  0.1974  0.8611
    4MOL   C939 4005   5.955   6.078   0.962 -0.2836  0.3074  0.1624
    4MOL   C940 4006   6.040   6.129   0.851 -0.0940 -0.7785  0.1214
    4MOL   C941 4007   5.831   6.009   0.937  0.6351  0.1705 -0.1367
    4MOL   C942 4008   5.744   5.967   1.034  0.5666 -0.2996 -0.4993
    4MOL   C943 4009   5.515   6.113   1.233 -0.0994 -0.1156 -0.6654
    4MOL   C944 4010   5.388   6.165   1.261 -0.0551  0.4109  0.0112
    4MOL   C945 4011   5.022   6.304   1.358 -0.3560 -0.2587  0.0966
    4MOL   C946 4012   4.952   6.401   1.286  0.2350 -0.1819 -0.7436
    4MOL   C947 4013   4.671   6.513   1.155 -0.1122 -0.0305 -0.2443
    4MOL   C948 4014   4.542   6.577   1.154 -0.5570 -0.2470  0.5518
    4MOL   H949 4015   4.330   6.704   1.137  0.3502 -1.3300 -1.0578
    4MOL   H950 4016   4.621   6.820   0.931 -0.3667 -0.4705 -1.2644
    4MOL   H951 4017   4.828   6.718   0.923  0.1051 -2.4893 -1.6175
    4MOL   H952 4018   4.945   6.502   0.972 -4.2817  0.9852 -1.8367
    4MOL   H953 4019   5.008   6.279   0.972  0.5667  1.4162  0.0647
    4MOL   H954 4020   5.137   6.113   1.106 -1.0401  0.2208 -2.4632
    4MOL   H955 4021   5.143   6.097   1.461 -1.4664 -1.2593 -0.2938
    4MOL   H956 4022   5.278   5.900   1.445 -1.3449 -0.7252 -2.9828
    4MOL   H957 4023   5.521   5.828   1.408 -0.6874 -0.5201  0.7045
    4MOL   H958 4024   5.742   5.923   1.362  0.8536  0.6798 -0.1808
    4MOL   H959 4025   5.934   6.062   1.303 -1.1774 -1.5805  0.7232
    4MOL   H960 4026   6.078   6.132   1.132  1.9693 -0.0905 -1.8381
    4MOL   H961 4027   6.023   6.059   0.770  2.3201  0.0155 -1.1131
    4MOL   H962 4028   6.147   6.140   0.869  0.0159 -2.3400  0.4444
    4MOL   H963 4029   5.805   5.989   0.834  0.8668  0.0984 -0.1824
    4MOL   H964 4030   5.647   5.925   1.011 -1.3146  2.4445  1.9097
    4MOL   H965 4031   5.579   6.164   1.162  2.7844 -2.1649  0.3696
    4MOL   H966 4032   5.358   6.262   1.223 -1.0292  0.4537  0.8706
    4MOL   H967 4033   5.033   6.316   1.465  0.0343  1.5528 -0.1206
    4MOL   H968 4034   4.933   6.499   1.328  0.3029 -0.0525 -1.0071
    4MOL   H969 4035   4.684   6.431   1.224  0.9965  1.4649  1.3640
    4MOL   H970 4036   4.471   6.536   1.225 -0.4355 -0.2826  0.6526
    4MOL   N971 4037   5.978   6.255   0.812  0.2135 -0.0506 -0.0822
    4MOL   C972 4038   6.053   6.344   0.728 -0.5684  0.5650 -0.1126
    4MOL   C973 4039   5.996   6.477   0.719 -0.5761 -0.2315 -0.8204
    4MOL   C974 4040   6.064   6.580   0.651  0.5699  0.0776 -0.6549
    4MOL   C975 4041   6.201   6.558   0.618  0.4920 -0.3852  1.0308
    4MOL   N976 4042   6.272   6.670   0.579 -0.1249 -0.6568 -0.5347
    4MOL   C977 4043   6.286   6.788   0.662  0.7105 -0.2221  0.7375
    4MOL   C978 4044   6.238   6.799   0.795 -0.7981 -0.4097 -0.1035
    4MOL   C979 4045   6.267   6.907   0.874 -0.3619 -0.1256  0.6268
    4MOL   C980 4046   6.350   7.008   0.829  0.4337  0.3418  0.7812
    4MOL   N981 4047   6.373   7.118   0.918  0.1809  0.2370  0.3500
    4MOL   C982 4048   6.431   7.244   0.893  0.0448  0.1841  0.0180
    4MOL   C983 4049   6.369   7.354   0.954  0.7582 -1.2468  0.0562
    4MOL   C984 4050   6.422   7.480   0.944 -0.9942  0.0399  0.3382
    4MOL   C985 4051   6.531   7.500   0.850 -0.1442  0.0299  0.9916
    4MOL   N986 4052   6.559   7.632   0.812  0.3086  0.3271 -0.1726
    4MOL   C987 4053   6.679   7.679   0.748  0.6764  0.3194 -1.1021
    4MOL   C988 4054   6.801   7.612   0.777  0.2561 -0.1797  0.4530
    4MOL   C989 4055   6.920   7.658   0.710 -0.5842  0.1620  0.1922
    4MOL   C990 4056   6.915   7.770   0.629  0.4003  0.0302 -0.0062
    4MOL   C991 4057   7.040   7.827   0.566 -0.5356 -0.5847 -0.0459
    4MOL   C992 4058   6.795   7.846   0.620 -0.5252 -0.0693  0.6739
    4MOL   C993 4059   6.675   7.793   0.667 -0.3036  0.2040 -0.0597
    4MOL   C994 4060   6.588   7.389   0.782  0.3475 -0.6539  0.0632
    4MOL   C995 4061   6.546   7.260   0.815  0.3371  0.1981 -0.4019
    4MOL   C996 4062   6.403   6.997   0.698 -0.1729  0.5317  0.2144
    4MOL   C997 4063   6.366   6.892   0.610 -0.3495 -0.2391  1.1535
    4MOL   C998 4064   6.262   6.432   0.620 -0.1508 -0.3715  0.9072
    4MOL   C999 4065   6.185   6.320   0.673 -0.5451  0.3908 -0.3324
    4MOL     H1 4066   5.924   6.301   0.884 -0.5875 -2.3181  0.8167
    4MOL     H2 4067   5.904   6.499   0.771 -1.2657 -2.2453 -1.1491
    4MOL     H3 4068   6.009   6.671   0.630  0.5395  0.4731  1.0839
    4MOL     H4 4069   6.341   6.652   0.507  0.6503  0.6182 -0.1137
    4MOL     H5 4070   6.170   6.724   0.834 -0.3605 -0.1074  1.2716
    4MOL     H6 4071   6.225   6.915   0.973  0.7234 -0.7157  1.1337
    4MOL     H7 4072   6.333   7.101   1.009 -0.6338 -0.8766 -0.2049
    4MOL     H8 4073   6.270   7.340   0.995  0.5099 -1.2757 -0.5416
    4MOL     H9 4074   6.370   7.569   0.978  0.4769  0.6088  1.1096
    4MOL    H10 4075   6.475   7.689   0.808  0.1461  0.0679 -0.5265
    4MOL    H11 4076   6.809   7.524   0.839  1.5967  1.2680  2.3898
    4MOL    H12 4077   7.011   7.601   0.723 -1.7493 -1.8602 -0.2498
    4MOL    H13 4078   7.091   7.889   0.640  0.9995  0.6468 -2.0805
    4MOL    H14 4079   7.014   7.879   0.474  0.6906 -4.3684 -2.6236
    4MOL    H15 4080   6.791   7.939   0.565 -1.3640 -0.3872  0.1800
    4MOL    H16 4081   6.579   7.842   0.662 -0.8806 -0.9198 -0.0159
    4MOL    H17 4082   6.657   7.391   0.699  1.2819  0.4809  0.8578
    4MOL    H18 4083   6.595   7.174   0.771  1.4938  1.2688 -1.2342
    4MOL    H19 4084   6.477   7.067   0.662  0.5890 -1.6563 -2.6593
    4MOL    H20 4085   6.431   6.889   0.524 -0.7634  1.5801  0.7430
    4MOL    H21 4086   6.365   6.412   0.594  0.1030  0.7586  1.0288
    4MOL    H22 4087   6.240   6.228   0.682 -3.3546 -1.2972  0.2040
    4MOL    H23 4088   7.110   7.748   0.539  0.7810  0.7576 -0.6270
    5MOL     N1 4089   7.395   1.172   5.988  0.5959  0.2384 -0.3548
    5MOL     C2 4090   7.322   1.171   6.105 -0.1304  0.6011 -0.1704
    5MOL     C3 4091   7.261   1.294   6.144 -0.4766  0.4575  0.0458
    5MOL     C4 4092   7.194   1.289   6.274  0.2240  0.3831  0.5348
    5MOL     C5 4093   7.183   1.171   6.347 -0.0441  0.9026  0.5079
    5MOL     N6 4094   7.113   1.154   6.469 -0.1670  0.5068  0.3984
    5MOL     C7 4095   7.091   1.251   6.566 -0.7868 -0.3654 -1.0855
    5MOL     C8 4096   6.970   1.235   6.636 -0.1690  0.1125 -0.7816
    5MOL     C9 4097   6.924   1.324   6.732 -0.3318 -0.8340 -0.1418
    5MOL    C10 4098   6.992   1.445   6.756 -0.3748 -0.6260 -0.4341
    5MOL    N11 4099   6.945   1.544   6.847 -0.0299 -0.1861  0.3916
    5MOL    C12 4100   6.812   1.564   6.889  0.5211  0.9689 -0.2256
    5MOL    C13 4101   6.701   1.529   6.807 -0.4335  0.3729 -0.9273
    5MOL    C14 4102   6.574   1.535   6.866 -0.2191 -0.2411 -0.5413
    5MOL    C15 4103   6.549   1.564   6.999 -0.3401 -0.4936  0.0045
    5MOL    N16 4104   6.424   1.574   7.058  0.0635 -0.8092 -0.4764
    5MOL    C17 4105   6.304   1.522   7.010 -0.0362 -0.6883 -0.5364
    5MOL    C18 4106   6.194   1.604   7.031 -0.0073  0.1817  0.0122
    5MOL    C19 4107   6.070   1.573   6.975 -0.0865  1.1153  0.2331
    5MOL    C20 4108   6.057   1.452   6.909 -0.1294 -0.2115 -0.5743
    5MOL    C21 4109   5.919   1.415   6.852  0.1089  0.5109  0.1420
    5MOL    C22 4110   6.171   1.367   6.894 -0.2417  0.4933  0.3020
    5MOL    C23 4111   6.292   1.402   6.943 -0.3544  0.2539  0.3441
    5MOL    C24 4112   6.660   1.596   7.074 -0.1212 -0.6103  0.0058
    5MOL    C25 4113   6.791   1.595   7.023 -0.3302 -0.5330  0.4217
    5MOL    C26 4114   7.114   1.461   6.690 -0.9633  0.3150  0.2542
    5MOL    C27 4115   7.167   1.369   6.588 -0.2001 -0.6506 -0.4780
    5MOL    C28 4116   7.245   1.054   6.299  0.1617  0.4206 -0.3925
    5MOL    C29 4117   7.308   1.052   6.175  0.0026 -0.0737  0.7722
    5MOL    H30 4118   7.368   1.235   5.914 -1.3782  0.4166  0.4769
    5MOL    H31 4119   7.256   1.387   6.091  0.6401  0.8339  0.5956
    5MOL    H32 4120   7.138   1.377   6.303 -0.6936  0.4023 -1.2059
    5MOL    H33 4121   7.086   1.060   6.495  2.0905 -0.6233 -1.0905
    5MOL    H34 4122   6.913   1.144   6.623  0.8876 -0.8372  1.0615
    5MOL    H35 4123   6.835   1.304   6.791 -0.0883  2.4454  1.4855
    5MOL    H36 4124   7.009   1.621   6.862  0.5384 -0.7260  0.7531
    5MOL    H37 4125   6.707   1.512   6.701  0.3008 -0.4277 -0.7660
    5MOL    H38 4126   6.492   1.524   6.797 -1.5340 -0.6168  1.0701
    5MOL    H39 4127   6.409   1.652   7.120  0.0719 -0.8962 -0.3639
    5MOL    H40 4128   6.205   1.702   7.075  0.8374 -0.0851  0.3956
    5MOL    H41 4129   5.989   1.643   6.986 -0.8681  0.3443 -0.4704
    5MOL    H42 4130   5.924   1.460   6.753 -1.1057 -0.1246 -0.2174
    5MOL    H43 4131   5.838   1.466   6.903 -1.7532  0.1141 -2.2965
    5MOL    H44 4132   6.150   1.276   6.840  1.4862  0.3598 -0.1709
    5MOL    H45 4133   6.375   1.333   6.933  0.4490  1.5417 -2.2826
    5MOL    H46 4134   6.643   1.641   7.171 -0.0358 -0.3147 -0.1168
    5MOL    H47 4135   6.867   1.611   7.098  0.2488  1.5438 -0.5607
    5MOL    H48 4136   7.174   1.547   6.715  0.1025 -0.7615  1.5245
    5MOL    H49 4137   7.263   1.383   6.541 -0.7816 -2.4567 -2.2594
    5MOL    H50 4138   7.230   0.962   6.353 -3.2274  1.3036  0.3093
    5MOL    H51 4139   7.363   0.964   6.143 -1.9201 -1.7299  1.8893
    5MOL    H52 4140   7.440   1.087   5.958  0.2770 -0.8377  2.0733
    5MOL    N53 4141   5.898   1.273   6.844  0.1169  0.3176  0.0349
    5MOL    C54 4142   5.828   1.230   6.735 -0.9393  0.8168  0.0669
    5MOL    C55 4143   5.710   1.161   6.752 -0.0512 -0.6200  0.3451
    5MOL    C56 4144   5.646   1.107   6.635 -0.0972  0.1294  0.2599
    5MOL    C57 4145   5.691   1.135   6.508  0.5091 -0.0883 -0.5247
    5MOL    N58 4146   5.620   1.084   6.400  0.1249 -0.6668 -0.0796
    5MOL    C59 4147   5.678   1.005   6.298  0.6446  0.1861  0.2462
    5MOL    C60 4148   5.597   0.974   6.187  0.4148 -0.8742 -0.0356
    5MOL    C61 4149   5.653   0.903   6.076  0.3537 -0.4762  0.6218
    5MOL    C62 4150   5.786   0.852   6.084  0.5258 -0.3965 -0.0297
    5MOL    N63 4151   5.849   0.794   5.970  0.2816  0.6056  0.0558
    5MOL    C64 4152   5.885   0.661   5.963  0.3387 -0.8930 -0.3529
    5MOL    C65 4153   5.843   0.567   6.059 -0.0245 -0.2243 -0.0369
    5MOL    C66 4154   5.880   0.434   6.048  0.0044  0.5839  0.0136
    5MOL    C67 4155   5.961   0.386   5.945 -0.5929 -0.1615  0.6786
    5MOL    N68 4156   5.992   0.248   5.942  0.2578 -0.4192  0.1494
    5MOL    C69 4157   6.088   0.189   5.862  0.0905  0.1896 -0.0140
    5MOL    C70 4158   6.046   0.069   5.800 -0.7771  0.1651 -0.2713
    5MOL    C71 4159   6.133   0.007   5.705  0.9502  0.4610 -0.1198
    5MOL    C72 4160   6.255   0.066   5.668 -0.2109  0.0847 -0.2208
    5MOL    C73 4161   6.352   0.001   5.566 -0.2199 -0.2316 -0.4548
    5MOL    C74 4162   6.298   0.181   5.737  0.0271  0.1161 -0.2363
    5MOL    C75 4163   6.215   0.244   5.828 -0.1188  0.4393  0.1422
    5MOL    C76 4164   5.988   0.480   5.838  0.7317  0.4194 -0.1247
    5MOL    C77 4165   5.952   0.614   5.847 -0.1314 -0.3657 -0.1783
    5MOL    C78 4166   5.858   0.875   6.202 -0.3988 -0.1964  0.6589
    5MOL    C79 4167   5.812   0.958   6.303 -0.3798  0.1112  0.2217
    5MOL    C80 4168   5.797   1.227   6.493  1.0990 -0.6091 -0.3259
    5MOL    C81 4169   5.869   1.266   6.603 -0.1401 -0.4397  0.1394
    5MOL    H82 4170   5.864   1.229   6.929  1.2922 -0.6482  0.0225
    5MOL    H83 4171   5.656   1.145   6.844 -0.5082 -3.5186 -0.3945
    5MOL    H84 4172   5.563   1.038   6.641  1.0832 -1.7517 -3.2416
    5MOL    H85 4173   5.519   1.076   6.407 -0.0174 -0.0315 -1.1920
    5MOL    H86 4174   5.492   0.998   6.182  0.6561 -0.0526 -1.2762
    5MOL    H87 4175   5.605   0.874   5.984  2.6031 -0.2987 -0.6211
    5MOL    H88 4176   5.822   0.831   5.880  1.5760  0.0436 -0.5785
    5MOL    H89 4177   5.778   0.603   6.137  0.3005 -2.4241  1.2716
    5MOL    H90 4178   5.864   0.370   6.133 -1.7460  2.2325  0.9423
    5MOL    H91 4179   5.932   0.195   6.003 -0.9532 -0.4202 -1.0291
    5MOL    H92 4180   5.946   0.039   5.829 -0.6941  1.4645  1.5129
    5MOL    H93 4181   6.091   7.903   5.654 -1.3131  1.7758 -0.5447
    5MOL    H94 4182   6.433   7.949   5.631  0.3197  2.2035  0.2197
    5MOL    H95 4183   6.382   0.082   5.499 -2.6629  0.1926 -1.0848
    5MOL    H96 4184   6.399   0.217   5.719 -0.7844  2.2885 -0.6554
    5MOL    H97 4185   6.250   0.333   5.877  1.2627 -0.2636  0.4437
    5MOL    H98 4186   6.056   0.452   5.758 -0.0179 -0.6591 -0.4026
    5MOL    H99 4187   5.973   0.685   5.769 -1.0200  1.6520  1.3575
    5MOL   H100 4188   5.955   0.827   6.207 -0.0920  0.2138 -1.1122
    5MOL   H101 4189   5.877   0.988   6.384  0.1475  2.0414 -0.8727
    5MOL   H102 4190   5.820   1.255   6.392 -0.5411  1.0666 -0.2688
    5MOL   H103 4191   5.957   1.324   6.580  1.3793 -2.1568  1.5018
    5MOL   N104 4192   6.298   7.876   5.481 -0.5345 -0.2288 -0.0036
    5MOL   C105 4193   6.184   7.887   5.400 -0.1513 -0.3534 -0.4010
    5MOL   C106 4194   6.130   0.027   5.363  0.9549  0.6290  0.1019
    5MOL   C107 4195   6.024   0.040   5.269  0.2782 -0.2943  0.5264
    5MOL   C108 4196   5.976   7.906   5.211 -0.2500  0.4519  0.2975
    5MOL   N109 4197   5.870   7.908   5.117  0.1122  0.7508 -0.4175
    5MOL   C110 4198   5.793   0.034   5.079  0.1315  0.5359  0.8885
    5MOL   C111 4199   5.652   0.020   5.076  0.0983  0.3379 -0.0292
    5MOL   C112 4200   5.570   0.123   5.031 -0.3826 -0.0853  0.5261
    5MOL   C113 4201   5.626   0.241   4.994 -0.2470 -0.3681  0.1233
    5MOL   N114 4202   5.538   0.343   4.945 -0.2482  0.1588  0.1766
    5MOL   C115 4203   5.564   0.480   4.938 -0.2587  0.0791  0.8959
    5MOL   C116 4204   5.533   0.558   4.825  0.1279  0.5244 -0.3909
    5MOL   C117 4205   5.552   0.696   4.831 -0.6692 -0.4344 -0.4726
    5MOL   C118 4206   5.598   0.762   4.946  0.2680 -0.5598 -0.4585
    5MOL   N119 4207   5.594   0.897   4.951 -0.0690  0.3610 -0.0400
    5MOL   C120 4208   5.666   0.981   5.035 -0.3586  1.3523  0.2936
    5MOL   C121 4209   5.609   1.101   5.085 -0.0521  0.6227 -0.9215
    5MOL   C122 4210   5.678   1.184   5.178 -0.4033 -0.0438 -0.2283
    5MOL   C123 4211   5.810   1.141   5.219 -0.1573  0.0923  0.5773
    5MOL   C124 4212   5.887   1.221   5.318 -0.4340 -0.3465 -0.0064
    5MOL   C125 4213   5.870   1.030   5.159 -0.2654  0.3242  0.1489
    5MOL   C126 4214   5.796   0.950   5.074  0.1151  0.5647  0.0299
    5MOL   C127 4215   5.624   0.685   5.064 -0.2988  0.2520 -0.2079
    5MOL   C128 4216   5.608   0.546   5.058 -0.8973  0.8819  0.5525
    5MOL   C129 4217   5.766   0.258   5.003 -0.6471 -0.5303 -0.5196
    5MOL   C130 4218   5.851   0.156   5.045  0.0275  0.1004 -0.6724
    5MOL   C131 4219   6.017   7.780   5.257 -0.0977 -0.7710 -0.6837
    5MOL   C132 4220   6.123   7.770   5.355 -0.5265 -0.1757  0.0191
    5MOL   H133 4221   6.347   7.788   5.488 -0.8574 -0.4353 -0.3350
    5MOL   H134 4222   6.176   0.117   5.401  0.4575 -0.0780  2.4779
    5MOL   H135 4223   5.998   0.142   5.246 -0.5215 -0.8957 -1.2879
    5MOL   H136 4224   5.820   7.820   5.113  1.4785  0.0256 -2.6764
    5MOL   H137 4225   5.596   7.913   5.099  1.8890 -1.1099 -1.2047
    5MOL   H138 4226   5.462   0.112   5.023 -0.4173  1.2561 -1.1443
    5MOL   H139 4227   5.490   0.311   4.862 -0.6065  0.9966  0.0579
    5MOL   H140 4228   5.471   0.511   4.750  0.2318  0.4686 -0.4407
    5MOL   H141 4229   5.517   0.759   4.751 -2.9220  0.3136  1.0549
    5MOL   H142 4230   5.526   0.949   4.896  0.2304  1.0872  0.2688
    5MOL   H143 4231   5.510   1.136   5.059 -0.2620 -0.9085 -2.1991
    5MOL   H144 4232   5.644   1.279   5.214 -0.8646 -0.9065  1.6407
    5MOL   H145 4233   5.861   1.185   5.417  0.3251  0.1407  0.3657
    5MOL   H146 4234   5.844   1.321   5.312  0.7230  0.2331  1.2546
    5MOL   H147 4235   5.968   0.993   5.184 -0.3800  0.5215  0.9369
    5MOL   H148 4236   5.846   0.864   5.031 -0.9159 -0.5946  1.1074
    5MOL   H149 4237   5.664   0.736   5.151 -0.5277  0.9322 -0.4910
    5MOL   H150 4238   5.650   0.493   5.143 -0.0457  0.6900  0.0148
    5MOL   H151 4239   5.813   0.351   4.978 -1.1896 -0.5254 -1.5312
    5MOL   H152 4240   5.958   0.168   5.048 -0.2134  1.9859  1.2530
    5MOL   H153 4241   5.975   7.697   5.202 -1.4267 -1.2704  1.0234
    5MOL   H154 4242   6.172   7.673   5.360 -1.3181 -0.4656  2.5985
    5MOL   N155 4243   6.030   1.223   5.319 -0.5884  0.3354  0.0641
    5MOL   C156 4244   6.114   1.244   5.210  0.9135  0.1913 -0.3233
    5MOL   C157 4245   6.064   1.287   5.088  0.2231  0.6818  0.9619
    5MOL   C158 4246   6.149   1.314   4.980  0.6679  1.1927  0.5965
    5MOL   C159 4247   6.288   1.303   4.997 -0.1901  0.2043  0.3909
    5MOL   N160 4248   6.360   1.337   4.879 -0.0582  0.0731  0.1726
    5MOL   C161 4249   6.416   1.458   4.847  0.3145 -0.5268  1.0640
    5MOL   C162 4250   6.527   1.450   4.760 -0.7996  0.2864  0.4368
    5MOL   C163 4251   6.595   1.571   4.721 -0.2905 -0.8050 -0.2871
    5MOL   C164 4252   6.544   1.691   4.771 -0.4058  0.2747  0.3110
    5MOL   N165 4253   6.603   1.816   4.743  0.2069  0.2380  0.3850
    5MOL   C166 4254   6.639   1.877   4.628  0.5923 -0.0498  0.2917
    5MOL   C167 4255   6.747   1.966   4.629  0.2694  0.1066 -0.5502
    5MOL   C168 4256   6.784   2.025   4.514  0.2618 -0.0655 -0.3616
    5MOL   C169 4257   6.711   2.008   4.397  0.0064  0.1705  0.1606
    5MOL   N170 4258   6.773   2.073   4.286  0.4993  0.8749  0.6830
    5MOL   C171 4259   6.757   2.055   4.144 -0.0237  0.2082 -0.4408
    5MOL   C172 4260   6.724   1.932   4.084  0.3382  0.0545 -0.5043
    5MOL   C173 4261   6.697   1.925   3.950 -0.0862  0.2528 -0.2037
    5MOL   C174 4262   6.725   2.041   3.869  0.3943  0.7427  0.3193
    5MOL   C175 4263   6.701   2.050   3.716 -0.5303 -0.2060 -0.3580
    5MOL   C176 4264   6.786   2.156   3.926  0.7436  0.1473  0.6500
    5MOL   C177 4265   6.788   2.163   4.065  0.1029 -0.1541  0.0859
    5MOL   C178 4266   6.602   1.920   4.385  0.3212  0.2054 -0.4424
    5MOL   C179 4267   6.578   1.849   4.504 -0.3385  0.7147  0.7331
    5MOL   C180 4268   6.431   1.702   4.858 -0.1595  0.6336  0.2246
    5MOL   C181 4269   6.378   1.582   4.899  1.0468  0.2789 -0.9597
    5MOL   C182 4270   6.339   1.248   5.113 -0.0195 -0.0587 -0.1468
    5MOL   C183 4271   6.252   1.223   5.223  0.3281  0.0603 -0.1912
    5MOL   H184 4272   6.082   1.177   5.392 -1.5302 -0.5804  0.1571
    5MOL   H185 4273   5.959   1.276   5.064  0.9540 -2.3424 -1.1081
    5MOL   H186 4274   6.115   1.347   4.883  0.8296  0.2427  0.2101
    5MOL   H187 4275   6.419   1.267   4.836 -0.7527  1.0664 -2.5074
    5MOL   H188 4276   6.569   1.363   4.713  0.8099 -0.4189  3.0588
    5MOL   H189 4277   6.673   1.571   4.647 -0.8156  1.4215 -0.9002
    5MOL   H190 4278   6.585   1.881   4.818  0.2649  0.4733  0.1947
    5MOL   H191 4279   6.796   1.981   4.725 -2.2683  2.5232  0.4326
    5MOL   H192 4280   6.873   2.085   4.503 -1.3241  2.1175 -1.5331
    5MOL   H193 4281   6.828   2.154   4.308  3.0229 -0.2692 -1.0952
    5MOL   H194 4282   6.702   1.851   4.152  0.5194  0.4073 -0.0133
    5MOL   H195 4283   6.678   1.834   3.896  0.9087  0.7398 -1.4160
    5MOL   H196 4284   6.619   2.119   3.700 -1.7414 -1.7344 -0.8462
    5MOL   H197 4285   6.665   1.950   3.690 -0.5783 -0.7840  1.8419
    5MOL   H198 4286   6.806   2.239   3.860 -1.4558 -0.8976 -1.3987
    5MOL   H199 4287   6.822   2.256   4.107 -0.2985  0.2544 -0.4929
    5MOL   H200 4288   6.552   1.911   4.289  2.3432  0.3902 -1.5474
    5MOL   H201 4289   6.500   1.775   4.499  0.9912 -0.5992 -1.5428
    5MOL   H202 4290   6.405   1.799   4.899  0.5725  1.4630 -1.2575
    5MOL   H203 4291   6.301   1.591   4.974  1.6750 -2.0930  0.0203
    5MOL   H204 4292   6.444   1.229   5.133  0.0118  1.5425  1.3702
    5MOL   H205 4293   6.288   1.181   5.315  0.3026 -0.7160 -0.5301
    5MOL   N206 4294   6.824   2.070   3.643  0.1228 -0.1721  0.0625
    5MOL   C207 4295   6.814   2.080   3.507 -0.4259 -0.1562  0.2470
    5MOL   C208 4296   6.698   2.056   3.434  0.2329 -0.3670  0.6315
    5MOL   C209 4297   6.696   2.067   3.296  0.1100  0.3331 -1.3319
    5MOL   C210 4298   6.816   2.081   3.226  0.4798 -0.4963 -0.4454
    5MOL   N211 4299   6.820   2.069   3.089  0.2005  0.0067  0.2213
    5MOL   C212 4300   6.706   2.052   3.013  0.0293 -0.6128  0.2394
    5MOL   C213 4301   6.694   1.933   2.945  0.2736 -0.3720  0.2016
    5MOL   C214 4302   6.577   1.914   2.873 -0.1455 -0.1176 -0.3075
    5MOL   C215 4303   6.480   2.012   2.868  0.7113  0.9631  0.1635
    5MOL   N216 4304   6.369   2.005   2.790 -0.5310 -0.1631 -0.1745
    5MOL   C217 4305   6.362   1.973   2.654 -0.1980 -0.4954 -0.8795
    5MOL   C218 4306   6.479   1.950   2.576 -0.3847  0.4976 -0.1987
    5MOL   C219 4307   6.467   1.932   2.439  0.7897 -0.0111 -0.8369
    5MOL   C220 4308   6.345   1.953   2.372 -0.3619  0.2047 -1.3066
    5MOL   N221 4309   6.332   1.947   2.235  0.1732  0.5239 -0.5332
    5MOL   C222 4310   6.387   1.856   2.148 -0.2026 -0.0850  1.3157
    5MOL   C223 4311   6.349   1.871   2.013 -0.1428 -0.1123 -0.1104
    5MOL   C224 4312   6.402   1.787   1.915 -0.1652 -0.2040  0.5566
    5MOL   C225 4313   6.501   1.689   1.950 -0.1837  0.3870 -0.4917
    5MOL   C226 4314   6.569   1.614   1.835 -1.0766  0.0728 -0.3819
    5MOL   C227 4315   6.535   1.671   2.086  0.2221 -0.3770 -0.2815
    5MOL   C228 4316   6.473   1.752   2.182 -0.0107  0.5590  0.1416
    5MOL   C229 4317   6.233   1.985   2.453 -0.5220 -0.1407  0.4053
    5MOL   C230 4318   6.239   1.980   2.595  0.2754  0.0964  0.0797
    5MOL   C231 4319   6.498   2.134   2.937  0.3632 -0.6582 -0.9832
    5MOL   C232 4320   6.619   2.163   2.998  0.4585 -0.3122  0.1980
    5MOL   C233 4321   6.937   2.107   3.296 -0.1154 -0.2499  0.6534
    5MOL   C234 4322   6.931   2.117   3.436 -0.0669  0.0812 -0.0641
    5MOL   H235 4323   6.906   2.105   3.691  2.4317 -1.5631 -2.6484
    5MOL   H236 4324   6.603   2.040   3.483  1.2117 -1.7398  2.1646
    5MOL   H237 4325   6.607   2.050   3.238  0.6166  2.8484 -2.8954
    5MOL   H238 4326   6.909   2.044   3.049 -0.4479  0.1948 -1.3649
    5MOL   H239 4327   6.761   1.848   2.951  2.9440  1.7581  2.2779
    5MOL   H240 4328   6.557   1.817   2.829  0.2042  0.1203 -0.9969
    5MOL   H241 4329   6.289   2.024   2.848 -0.4829 -0.5082  0.0093
    5MOL   H242 4330   6.580   1.937   2.612 -0.5889  0.7048  0.4435
    5MOL   H243 4331   6.560   1.918   2.385  0.3606 -0.6749 -1.4100
    5MOL   H244 4332   6.262   2.010   2.199 -0.0645  0.8533  0.4942
    5MOL   H245 4333   6.292   1.956   1.979  0.2508  1.1286  2.2160
    5MOL   H246 4334   6.368   1.811   1.815  2.8256  1.0736 -0.1933
    5MOL   H247 4335   6.487   1.573   1.777  0.1950  0.5786 -2.5941
    5MOL   H248 4336   6.624   1.530   1.876 -1.5830  0.1318  0.4276
    5MOL   H249 4337   6.612   1.604   2.121  0.7332 -0.2561 -1.1653
    5MOL   H250 4338   6.500   1.735   2.285  1.2882 -3.5718 -0.7579
    5MOL   H251 4339   6.136   2.010   2.412 -0.6965  0.1295  0.9777
    5MOL   H252 4340   6.156   2.014   2.655 -0.8678 -0.4192 -1.2041
    5MOL   H253 4341   6.433   2.218   2.917 -0.0337 -0.5028  0.9096
    5MOL   H254 4342   6.643   2.257   3.044  1.5441  0.2915 -1.5438
    5MOL   H255 4343   7.030   2.136   3.249  0.2618 -1.5212  0.5957
    5MOL   H256 4344   7.022   2.137   3.491 -0.5869 -1.3560  1.3549
    5MOL   N257 4345   6.637   1.711   1.755 -0.5338 -0.5910 -0.3032
    5MOL   C258 4346   6.704   1.678   1.639  0.1524  0.3200  0.0686
    5MOL   C259 4347   6.683   1.552   1.573 -0.2124  0.0835 -0.0163
    5MOL   C260 4348   6.761   1.516   1.464  0.1128  0.2315 -0.1574
    5MOL   C261 4349   6.862   1.602   1.411  0.3010 -0.3943  0.7959
    5MOL   N262 4350   6.935   1.568   1.292  0.1986 -0.1787 -0.3330
    5MOL   C263 4351   7.007   1.448   1.278 -0.2062 -0.1949 -0.1986
    5MOL   C264 4352   7.050   1.380   1.388 -0.1829 -0.1242  0.2332
    5MOL   C265 4353   7.123   1.263   1.379  0.6526 -0.1276 -0.5659
    5MOL   C266 4354   7.166   1.225   1.254  0.0371  0.1598  0.6517
    5MOL   N267 4355   7.250   1.112   1.248  0.0019 -0.5677 -0.5397
    5MOL   C268 4356   7.314   1.069   1.131  0.6073  0.6601 -0.0137
    5MOL   C269 4357   7.263   0.955   1.069  0.4130 -0.0240  0.2637
    5MOL   C270 4358   7.327   0.903   0.954 -0.6509 -0.1810 -0.4638
    5MOL   C271 4359   7.449   0.968   0.914  0.3620 -0.2608  0.1444
    5MOL   N272 4360   7.529   0.909   0.815 -0.1447  0.4356 -0.4871
    5MOL   C273 4361   7.571   0.775   0.814  0.0774 -0.4975  0.3355
    5MOL   C274 4362   7.570   0.699   0.934  0.0089 -0.1502  0.3032
    5MOL   C275 4363   7.631   0.568   0.945 -0.3716 -0.2187 -0.0690
    5MOL   C276 4364   7.693   0.506   0.846 -0.2228  0.5271 -0.0600
    5MOL   C277 4365   7.779   0.375   0.860  0.5342 -0.0432 -0.6562
    5MOL   C278 4366   7.701   0.584   0.728 -0.3859  0.3830 -0.9572
    5MOL   C279 4367   7.634   0.712   0.707 -0.1878  0.1208 -0.5349
    5MOL   C280 4368   7.485   1.091   0.964 -0.2811 -0.4902  0.1635
    5MOL   C281 4369   7.424   1.139   1.082  0.0569  0.5997 -0.0286
    5MOL   C282 4370   7.120   1.289   1.133  0.1268  0.5537 -0.5416
    5MOL   C283 4371   7.033   1.398   1.151 -0.4508  0.0949  0.4917
    5MOL   C284 4372   6.872   1.726   1.469  1.0641 -0.3399  0.2831
    5MOL   C285 4373   6.794   1.769   1.584 -0.3112 -0.4365 -0.4205
    5MOL   H286 4374   6.649   1.801   1.798 -0.8393 -1.0278  0.7071
    5MOL   H287 4375   6.611   1.479   1.607 -0.1181  0.5930  1.3261
    5MOL   H288 4376   6.734   1.425   1.413 -1.4306  0.1603  0.7442
    5MOL   H289 4377   6.967   1.635   1.224 -0.4339 -0.0015 -0.4652
    5MOL   H290 4378   7.035   1.429   1.483  4.8185 -0.3044  1.2826
    5MOL   H291 4379   7.156   1.213   1.469 -3.9860  0.7497  1.8309
    5MOL   H292 4380   7.285   1.070   1.333 -1.4043  2.1605  1.4622
    5MOL   H293 4381   7.168   0.914   1.101  0.5505  0.6812  1.6201
    5MOL   H294 4382   7.291   0.816   0.901 -0.1579 -0.3839 -0.4703
    5MOL   H295 4383   7.552   0.965   0.734  1.1113 -0.9212 -1.0805
    5MOL   H296 4384   7.525   0.739   1.024 -2.4442  1.3086 -1.5130
    5MOL   H297 4385   7.643   0.521   1.041  0.6698  2.1121  1.0007
    5MOL   H298 4386   7.713   0.296   0.822  0.5293 -0.5661  0.4262
    5MOL   H299 4387   7.796   0.357   0.966  1.3633  2.0922 -0.4167
    5MOL   H300 4388   7.744   0.530   0.644  0.3378  1.8985 -1.5843
    5MOL   H301 4389   7.632   0.757   0.609  0.1461 -0.7017 -0.9317
    5MOL   H302 4390   7.569   1.144   0.923 -1.4410  2.0686  0.9878
    5MOL   H303 4391   7.458   1.224   1.139  1.8190  0.1775 -0.4195
    5MOL   H304 4392   7.151   1.259   1.034  1.1574  2.1560 -0.7216
    5MOL   H305 4393   7.020   1.461   1.064 -0.7748 -2.4727 -1.3635
    5MOL   H306 4394   6.944   1.798   1.433 -0.2743  1.7074  1.6225
    5MOL   H307 4395   6.807   1.867   1.629 -0.6676 -0.3812 -0.4379
    5MOL   N308 4396   7.911   0.371   0.802 -0.6405 -0.1132  0.4773
    5MOL   C309 4397   0.014   0.260   0.828  0.3324 -0.0501  0.1123
    5MOL   C310 4398   0.149   0.274   0.815  0.1671  0.0274 -0.1650
    5MOL   C311 4399   0.240   0.170   0.838  0.4777  0.4547 -0.1215
    5MOL   C312 4400   0.189   0.042   0.871  0.2663  0.3772 -0.7374
    5MOL   N313 4401   0.285   7.923   0.876  0.8498 -0.1675 -0.5105
    5MOL   C314 4402   0.273   7.795   0.929  0.0138  0.1028 -0.3440
    5MOL   C315 4403   0.381   7.732   1.004 -0.0917 -0.3468  0.3520
    5MOL   C316 4404   0.363   7.603   1.045  0.2777 -1.1177  0.6191
    5MOL   C317 4405   0.254   7.522   1.015 -0.6378 -0.9441  0.1761
    5MOL   N318 4406   0.231   7.393   1.060  0.4315 -0.2761 -0.0431
    5MOL   C319 4407   0.272   7.335   1.180  0.3918 -0.2496 -1.0433
    5MOL   C320 4408   0.240   7.200   1.198 -0.5770  0.2047  0.1924
    5MOL   C321 4409   0.282   7.141   1.315  0.1323 -0.5203 -0.0265
    5MOL   C322 4410   0.350   7.202   1.416 -0.9042 -0.6406 -0.8086
    5MOL   N323 4411   0.397   7.134   1.528 -0.1323  0.3266  0.0186
    5MOL   C324 4412   0.470   7.185   1.633  0.0011 -0.1181  0.6017
    5MOL   C325 4413   0.412   7.177   1.761 -0.8369  0.5098  0.6496
    5MOL   C326 4414   0.484   7.229   1.871 -0.5049  0.6269  0.1904
    5MOL   C327 4415   0.613   7.275   1.858 -0.5375  0.2805 -0.8144
    5MOL   C328 4416   0.669   7.325   1.990  0.0372 -0.0299 -0.2337
    5MOL   C329 4417   0.677   7.276   1.729 -0.6197 -1.0294 -0.3190
    5MOL   C330 4418   0.603   7.231   1.620  0.0445 -0.2414  0.1470
    5MOL   C331 4419   0.355   7.343   1.407  0.1796 -0.1581 -1.3490
    5MOL   C332 4420   0.329   7.412   1.286  0.2749  0.0724  0.1457
    5MOL   C333 4421   0.159   7.582   0.930  0.6379  0.5651  0.3392
    5MOL   C334 4422   0.165   7.715   0.893  0.4713  0.6184  0.6110
    5MOL   C335 4423   0.046   0.027   0.890  0.3254  0.2395  0.0934
    5MOL   C336 4424   7.944   0.135   0.874 -0.0545  0.4776 -1.0566
    5MOL   H337 4425   7.962   0.458   0.805  0.2487 -0.5822 -0.7902
    5MOL   H338 4426   0.191   0.370   0.787  0.5727 -0.2868 -0.6299
    5MOL   H339 4427   0.346   0.188   0.833  1.0242 -1.6984  2.5069
    5MOL   H340 4428   0.382   7.953   0.880  1.6264 -2.1236 -3.1316
    5MOL   H341 4429   0.470   7.783   1.038 -0.6939  0.8838  0.1332
    5MOL   H342 4430   0.438   7.558   1.108 -0.9833 -1.4396  1.9386
    5MOL   H343 4431   0.177   7.334   0.998 -0.1137  0.6858 -0.4990
    5MOL   H344 4432   0.181   7.145   1.127 -1.6529  2.7399 -0.9481
    5MOL   H345 4433   0.258   7.037   1.331  1.4957 -0.6381  1.3328
    5MOL   H346 4434   0.339   7.054   1.549  1.8115 -1.8206 -2.5535
    5MOL   H347 4435   0.309   7.145   1.770 -0.7209  0.6225  2.5109
    5MOL   H348 4436   0.444   7.217   1.970 -0.1391 -1.4615  0.1184
    5MOL   H349 4437   0.772   7.354   1.969  1.2927 -3.1259  1.2894
    5MOL   H350 4438   0.663   7.244   2.063  3.3686  0.9049  1.1707
    5MOL   H351 4439   0.780   7.307   1.720 -1.1366  0.7868 -0.1063
    5MOL   H352 4440   0.632   7.243   1.517 -2.8986  0.0119 -0.6695
    5MOL   H353 4441   0.409   7.398   1.483  0.0966 -0.9940 -0.6759
    5MOL   H354 4442   0.341   7.520   1.293 -0.8936  0.3093 -1.4152
    5MOL   H355 4443   0.076   7.520   0.897  2.0664 -1.5509  0.6633
    5MOL   H356 4444   0.088   7.748   0.824 -1.6679  0.9697  3.0945
    5MOL   H357 4445   7.982   7.912   0.905 -2.3574  0.9492 -2.9714
    5MOL   H358 4446   7.842   0.110   0.900  0.0668 -0.3964 -1.4197
    5MOL   N359 4447   0.598   7.436   2.053 -0.4108  0.6272  0.6817
    5MOL   C360 4448   0.665   7.502   2.159 -0.3183 -0.8858 -0.1102
    5MOL   C361 4449   0.611   7.628   2.198  0.0079  0.6112  0.0007
    5MOL   C362 4450   0.652   7.687   2.323  0.2134 -0.3748  0.0289
    5MOL   C363 4451   0.750   7.627   2.407  0.7942 -0.2470  0.7971
    5MOL   N364 4452   0.780   7.692   2.531  0.3492 -0.0778 -0.4472
    5MOL   C365 4453   0.861   7.640   2.627  0.0918  0.2935  0.0448
    5MOL   C366 4454   0.840   7.509   2.675 -0.2648  0.1372  0.2181
    5MOL   C367 4455   0.928   7.448   2.760  0.4899  0.2107 -0.2565
    5MOL   C368 4456   1.027   7.527   2.821 -0.2060 -0.0742 -0.5847
    5MOL   N369 4457   1.112   7.467   2.919  0.3651 -0.2207 -0.0616
    5MOL   C370 4458   1.180   7.517   3.032  0.0371 -0.2075  0.5221
    5MOL   C371 4459   1.315   7.478   3.052 -0.1532  0.5397 -0.2378
    5MOL   C372 4460   1.373   7.502   3.182  0.0919  0.2056 -0.3502
    5MOL   C373 4461   1.300   7.576   3.282 -0.4490  0.1723 -0.4295
    5MOL   N374 4462   1.370   7.614   3.396  0.3252  0.1451 -0.9131
    5MOL   C375 4463   1.493   7.566   3.444 -0.2227 -0.0412  0.5498
    5MOL   C376 4464   1.534   7.433   3.427 -0.5584 -0.6117  0.6355
    5MOL   C377 4465   1.665   7.394   3.476 -0.3714 -0.0893 -0.3470
    5MOL   C378 4466   1.748   7.489   3.545 -0.2604  0.1822  0.4045
    5MOL   C379 4467   1.897   7.455   3.576  0.6116  0.1101  0.6540
    5MOL   C380 4468   1.695   7.618   3.563  0.6382 -0.6449 -0.2341
    5MOL   C381 4469   1.569   7.655   3.526  0.6183  0.3793 -0.4691
    5MOL   C382 4470   1.174   7.620   3.249 -0.4976  0.0634  1.1364
    5MOL   C383 4471   1.113   7.594   3.130 -0.6035 -0.7462  0.7943
    5MOL   C384 4472   1.042   7.661   2.789  0.4894  0.1271 -0.5144
    5MOL   C385 4473   0.966   7.719   2.688  1.2418 -0.0880 -0.1745
    5MOL   C386 4474   0.804   7.509   2.366 -0.4558  0.1278  0.3357
    5MOL   C387 4475   0.767   7.445   2.247 -0.1007  0.1815  0.2003
    5MOL   H388 4476   0.520   7.481   2.007 -0.5315 -0.1853  0.0640
    5MOL   H389 4477   0.533   7.677   2.143 -0.8393 -0.7695 -0.0560
    5MOL   H390 4478   0.610   7.779   2.360 -0.0296 -0.7138  0.5945
    5MOL   H391 4479   0.756   7.790   2.528 -0.1406 -0.2453 -2.7673
    5MOL   H392 4480   0.761   7.443   2.641  0.2558  0.4419 -1.6370
    5MOL   H393 4481   0.900   7.347   2.788 -0.6826  0.5993  0.0422
    5MOL   H394 4482   1.132   7.370   2.898  0.7451 -0.2039  0.2139
    5MOL   H395 4483   1.371   7.420   2.979  2.5500 -1.1749  3.0552
    5MOL   H396 4484   1.480   7.487   3.190  0.0766  0.0155 -0.5051
    5MOL   H397 4485   1.331   7.700   3.432 -0.8068 -0.0898 -1.5707
    5MOL   H398 4486   1.461   7.362   3.390  1.2317 -0.3733 -3.5618
    5MOL   H399 4487   1.703   7.294   3.460  2.7143  0.9327  0.2299
    5MOL   H400 4488   1.923   7.367   3.517  1.2693 -0.5409  1.8981
    5MOL   H401 4489   1.885   7.414   3.676  1.2141 -1.8138 -0.0469
    5MOL   H402 4490   1.767   7.688   3.601  1.7013 -1.5982 -0.4649
    5MOL   H403 4491   1.538   7.758   3.528  0.8606  0.4295  1.1327
    5MOL   H404 4492   1.124   7.678   3.325 -1.6361  0.4680  0.0916
    5MOL   H405 4493   1.014   7.637   3.128  1.1486  3.4642 -0.4718
    5MOL   H406 4494   1.129   7.711   2.830 -1.4936  0.6519  3.3308
    5MOL   H407 4495   0.988   7.819   2.653  0.2391 -0.0748 -0.7833
    5MOL   H408 4496   0.887   7.464   2.418  1.0854  0.5794 -1.6640
    5MOL   H409 4497   0.816   7.352   2.225 -0.5311 -0.4041  1.7070
    5MOL   N410 4498   1.999   7.565   3.567 -0.8550 -0.7765  0.1047
    5MOL   C411 4499   2.136   7.531   3.591 -0.0409 -0.1754 -1.4021
    5MOL   C412 4500   2.174   7.413   3.664 -0.3809  0.0077  0.1702
    5MOL   C413 4501   2.306   7.390   3.684 -0.0793  0.4292 -0.9735
    5MOL   C414 4502   2.410   7.474   3.631  0.2859  1.0112  0.1083
    5MOL   N415 4503   2.548   7.439   3.638  0.0434 -0.4745  0.8351
    5MOL   C416 4504   2.611   7.405   3.755 -0.0386 -0.1611 -0.3863
    5MOL   C417 4505   2.559   7.446   3.878 -0.2958 -0.4747  0.1169
    5MOL   C418 4506   2.634   7.421   4.000 -0.0671  0.0272 -0.1205
    5MOL   C419 4507   2.758   7.347   4.003 -0.4916  0.1280  0.9545
    5MOL   N420 4508   2.822   7.317   4.122  0.1079  0.3576  0.0293
    5MOL   C421 4509   2.835   7.382   4.239 -0.3117 -0.4809 -0.2002
    5MOL   C422 4510   2.788   7.517   4.259  0.3219  0.3413  0.5270
    5MOL   C423 4511   2.804   7.577   4.388  0.6658  0.1098 -0.3568
    5MOL   C424 4512   2.865   7.511   4.487  0.0137  0.0917 -0.4667
    5MOL   N425 4513   2.879   7.577   4.610  0.0842  0.2439 -0.3710
    5MOL   C426 4514   2.857   7.523   4.739 -0.6781  0.4833  0.2628
    5MOL   C427 4515   2.902   7.600   4.853 -0.3595 -0.4251 -0.6808
    5MOL   C428 4516   2.858   7.558   4.982  0.1099  0.2829 -0.4977
    5MOL   C429 4517   2.785   7.440   4.999  0.6308 -0.1626  0.0762
    5MOL   C430 4518   2.740   7.392   5.140  0.5530  0.6672  0.3536
    5MOL   C431 4519   2.752   7.364   4.886  1.0680  0.5516  0.0067
    5MOL   C432 4520   2.774   7.415   4.754  0.0425  0.1616 -0.1194
    5MOL   C433 4521   2.908   7.376   4.466 -0.8829  0.1635 -0.3185
    5MOL   C434 4522   2.901   7.316   4.341 -0.0708 -0.0972 -0.2321
    5MOL   C435 4523   2.808   7.308   3.877  0.2515  0.3137  0.4229
    5MOL   C436 4524   2.734   7.335   3.756  0.2947 -0.9236 -0.2667
    5MOL   C437 4525   2.374   7.590   3.563  0.0767  0.0108 -0.0050
    5MOL   C438 4526   2.235   7.616   3.534 -0.2425  0.5765  0.1338
    5MOL   H439 4527   1.987   7.634   3.495 -1.1431 -0.6463  0.2752
    5MOL   H440 4528   2.099   7.348   3.707  0.1442 -0.5745  0.2028
    5MOL   H441 4529   2.327   7.299   3.740 -0.1790  1.1113  0.1822
    5MOL   H442 4530   2.615   7.484   3.577  0.0879  1.3784  2.1947
    5MOL   H443 4531   2.468   7.502   3.890 -0.1752  0.1427 -1.6020
    5MOL   H444 4532   2.574   7.454   4.085 -3.3786 -1.2599 -1.8530
    5MOL   H445 4533   2.878   7.233   4.122  0.0292  0.3035  0.4604
    5MOL   H446 4534   2.754   7.576   4.175  0.1461 -0.0858  0.2959
    5MOL   H447 4535   2.775   7.681   4.392 -0.2860 -0.1799  0.5762
    5MOL   H448 4536   2.915   7.671   4.603 -0.8743  0.8063  1.8197
    5MOL   H449 4537   2.957   7.692   4.847  0.8136 -1.0499  0.2039
    5MOL   H450 4538   2.881   7.619   5.069  0.3787 -0.3193 -0.1399
    5MOL   H451 4539   2.757   7.473   5.210 -0.9873  0.1474  1.3585
    5MOL   H452 4540   2.792   7.299   5.160 -0.8002 -0.1601  0.1355
    5MOL   H453 4541   2.686   7.279   4.896  1.2115  0.3426 -0.7588
    5MOL   H454 4542   2.737   7.361   4.668 -1.0210 -0.2778  0.6158
    5MOL   H455 4543   2.955   7.327   4.550  0.2730 -0.5494 -1.3726
    5MOL   H456 4544   2.931   7.214   4.323 -2.4909 -0.8070 -0.5173
    5MOL   H457 4545   2.902   7.256   3.871  0.2846  0.2878  1.1756
    5MOL   H458 4546   2.781   7.297   3.667 -0.9226  0.7419 -1.6582
    5MOL   H459 4547   2.454   7.657   3.535 -0.4924  0.5165 -0.4246
    5MOL   H460 4548   2.201   7.696   3.469  0.9763  0.9295 -0.0790
    5MOL   N461 4549   2.595   7.366   5.148  0.7181  0.5241 -0.2242
    5MOL   C462 4550   2.530   7.321   5.267 -0.2461  0.3375  0.0017
    5MOL   C463 4551   2.612   7.288   5.381  0.5525 -0.1512 -0.1393
    5MOL   C464 4552   2.555   7.249   5.496  0.3926  0.2042 -0.5120
    5MOL   C465 4553   2.410   7.233   5.506  0.0727  0.0827  0.5724
    5MOL   N466 4554   2.344   7.163   5.608 -0.2414  0.3986 -0.0707
    5MOL   C467 4555   2.359   7.185   5.748 -0.2095  0.6840 -0.5674
    5MOL   C468 4556   2.456   7.274   5.801 -0.3431  0.7769 -0.0574
    5MOL   C469 4557   2.463   7.296   5.943 -0.3061 -0.2002 -0.7747
    5MOL   C470 4558   2.386   7.216   6.033 -0.1067  0.2333 -0.3751
    5MOL   N471 4559   2.404   7.238   6.165 -0.1580 -0.2539 -0.0399
    5MOL   C472 4560   2.321   7.204   6.269 -0.3684  0.1970 -0.0874
    5MOL   C473 4561   2.182   7.221   6.260 -0.7704  0.1159  0.6691
    5MOL   C474 4562   2.106   7.214   6.380  0.2703 -0.0301  0.4436
    5MOL   C475 4563   2.171   7.172   6.498 -0.6431 -0.0368 -0.4319
    5MOL   N476 4564   2.104   7.160   6.619  0.0063 -0.4073  0.8280
    5MOL   C477 4565   1.967   7.151   6.644 -0.2077  0.2437 -0.0599
    5MOL   C478 4566   1.894   7.076   6.556  0.4033 -0.0783 -0.3922
    5MOL   C479 4567   1.751   7.078   6.566 -0.4585  0.1480 -0.0507
    5MOL   C480 4568   1.684   7.142   6.673 -0.1059 -0.5844 -0.2790
    5MOL   C481 4569   1.529   7.143   6.680  0.3323 -0.4813  0.0096
    5MOL   C482 4570   1.763   7.215   6.764  0.2699 -0.0140  0.0750
    5MOL   C483 4571   1.905   7.215   6.748  0.2870 -0.4581  0.3301
    5MOL   C484 4572   2.306   7.158   6.501 -0.2574 -1.6569  0.3137
    5MOL   C485 4573   2.381   7.174   6.387  0.1758 -0.3672 -0.1138
    5MOL   C486 4574   2.306   7.120   5.974  0.0457 -0.1876  0.2517
    5MOL   C487 4575   2.283   7.112   5.833 -0.1148  0.0610 -0.1092
    5MOL   C488 4576   2.333   7.261   5.389  0.3251  0.2171  0.2007
    5MOL   C489 4577   2.394   7.299   5.270  0.2090 -0.3757  0.2924
    5MOL   H490 4578   2.537   7.375   5.066  0.0076  0.3440  0.2573
    5MOL   H491 4579   2.719   7.286   5.374  0.5435  2.8514 -2.7420
    5MOL   H492 4580   2.615   7.210   5.577  2.5636 -1.3413 -2.7940
    5MOL   H493 4581   2.290   7.085   5.573 -2.1405  1.2152  0.9856
    5MOL   H494 4582   2.524   7.321   5.731 -0.4979 -0.1957 -0.8669
    5MOL   H495 4583   2.516   7.383   5.979  0.9070 -0.7365 -1.2468
    5MOL   H496 4584   2.479   7.295   6.203 -0.1975 -0.6974  0.7037
    5MOL   H497 4585   2.141   7.247   6.163  2.5173  1.5770 -0.3710
    5MOL   H498 4586   2.000   7.234   6.379  0.7864  2.7917 -0.2925
    5MOL   H499 4587   2.167   7.183   6.695 -0.6663  0.4976  1.1259
    5MOL   H500 4588   1.939   7.014   6.480  0.9680  0.2955 -0.3624
    5MOL   H501 4589   1.689   7.028   6.493 -0.8865  2.6119 -1.4492
    5MOL   H502 4590   1.495   7.201   6.765 -0.4999 -1.9748  0.7301
    5MOL   H503 4591   1.500   7.042   6.709 -1.1463 -0.8509 -2.5640
    5MOL   H504 4592   1.714   7.273   6.841  0.5684 -0.9111  0.9448
    5MOL   H505 4593   1.974   7.252   6.822  0.3416  0.0232  0.0370
    5MOL   H506 4594   2.355   7.124   6.591 -0.9376  0.5111  1.5541
    5MOL   H507 4595   2.488   7.169   6.404  0.3131 -0.8810 -1.0524
    5MOL   H508 4596   2.257   7.043   6.032 -0.0680  1.4073  2.3233
    5MOL   H509 4597   2.212   7.042   5.791  0.6769 -1.4601  1.0544
    5MOL   H510 4598   2.227   7.243   5.386  0.2527  0.5260  0.8728
    5MOL   H511 4599   2.333   7.316   5.183  1.2535 -0.4725 -0.4722
    5MOL   N512 4600   1.477   7.185   6.555 -0.5388 -0.7052  0.3404
    5MOL   C513 4601   1.339   7.202   6.530 -0.1052  0.0608  0.4967
    5MOL   C514 4602   1.246   7.199   6.630 -0.0389 -0.4013 -0.1039
    5MOL   C515 4603   1.119   7.244   6.598  0.1978  0.8450  0.2814
    5MOL   C516 4604   1.074   7.278   6.460  0.6344  0.2058  0.5345
    5MOL   N517 4605   0.950   7.331   6.433 -0.2906  0.2105  0.1043
    5MOL   C518 4606   0.886   7.321   6.305 -0.3622 -0.3735 -0.1487
    5MOL   C519 4607   0.889   7.206   6.231  0.0707  0.5489  0.1552
    5MOL   C520 4608   0.843   7.208   6.098  0.0446  0.8572 -0.6505
    5MOL   C521 4609   0.800   7.324   6.035  0.1519 -0.1683 -0.4582
    5MOL   N522 4610   0.786   7.336   5.892 -0.1986  0.3264 -0.7717
    5MOL   C523 4611   0.739   7.237   5.803 -0.8098  0.1143 -0.0500
    5MOL   C524 4612   0.655   7.133   5.841  0.6954  0.4486  0.5807
    5MOL   C525 4613   0.616   7.033   5.747 -0.6837  0.0344  0.2521
    5MOL   C526 4614   0.655   7.044   5.613  0.0971  0.2551 -0.3063
    5MOL   N527 4615   0.612   6.950   5.517 -0.7393 -0.4535  0.4783
    5MOL   C528 4616   0.670   6.894   5.400 -0.8534  0.4663 -0.4379
    5MOL   C529 4617   0.611   6.784   5.332 -0.3376  0.8934 -0.4350
    5MOL   C530 4618   0.666   6.732   5.213  0.1239  0.3432  0.1671
    5MOL   C531 4619   0.780   6.793   5.155 -0.5059  0.7543  0.5133
    5MOL   C532 4620   0.846   6.736   5.024  0.0683  0.2434 -0.2595
    5MOL   C533 4621   0.848   6.894   5.226 -0.4832  0.7610  0.7446
    5MOL   C534 4622   0.792   6.940   5.349 -0.3047 -0.2419  0.5172
    5MOL   C535 4623   0.727   7.159   5.577  0.1720  0.0339  0.0660
    5MOL   C536 4624   0.771   7.256   5.670  1.1277 -0.2294 -0.0939
    5MOL   C537 4625   0.794   7.444   6.111  0.0843  0.3780 -0.4096
    5MOL   C538 4626   0.835   7.441   6.247 -0.2657  0.7047  0.7635
    5MOL   C539 4627   1.166   7.245   6.360  0.1282  0.0393  0.2048
    5MOL   C540 4628   1.298   7.214   6.390 -0.1724  0.8041 -0.0745
    5MOL   H541 4629   1.544   7.186   6.479  0.5577  3.6494  1.2457
    5MOL   H542 4630   1.279   7.178   6.731  1.0874  0.0903 -0.3663
    5MOL   H543 4631   1.051   7.257   6.681 -1.1409  0.9687 -0.8179
    5MOL   H544 4632   0.904   7.393   6.498  0.0154  0.7335 -0.1797
    5MOL   H545 4633   0.938   7.118   6.269  1.2800  0.8243 -0.7408
    5MOL   H546 4634   0.860   7.120   6.038  0.9529  0.0290  0.7642
    5MOL   H547 4635   0.845   7.411   5.857 -0.0067  0.2622 -0.5859
    5MOL   H548 4636   0.613   7.126   5.940  1.1111  0.3908  0.7525
    5MOL   H549 4637   0.566   6.943   5.777  0.5252 -0.7131  0.0662
    5MOL   H550 4638   0.525   6.905   5.542 -1.9831  2.5840  1.8159
    5MOL   H551 4639   0.532   6.730   5.382 -0.1275  0.7516 -0.2556
    5MOL   H552 4640   0.624   6.645   5.166 -1.9000  1.7289 -0.6383
    5MOL   H553 4641   0.811   6.809   4.950  0.3111  2.8086  2.0484
    5MOL   H554 4642   0.796   6.644   4.996  0.1928  0.2063 -0.3578
    5MOL   H555 4643   0.938   6.943   5.192 -1.1265  1.4468  0.0220
    5MOL   H556 4644   0.853   7.007   5.408 -2.3093  0.0254  2.3114
    5MOL   H557 4645   0.766   7.174   5.477  0.3955  3.0652  0.5342
    5MOL   H558 4646   0.837   7.337   5.641  0.1912  0.2299 -0.9754
    5MOL   H559 4647   0.758   7.538   6.072  1.1368  1.4097  1.0673
    5MOL   H560 4648   0.822   7.532   6.304  0.7909  1.5982 -0.4113
    5MOL   H561 4649   1.145   7.254   6.254  3.8116  2.7718 -0.3968
    5MOL   H562 4650   1.374   7.201   6.314  1.0976  0.7260  1.1871
    5MOL   N563 4651   0.990   6.718   5.025 -0.3981 -0.5344  0.2372
    5MOL   C564 4652   1.043   6.746   4.895 -0.0513  0.5393  0.6234
    5MOL   C565 4653   1.029   6.650   4.784 -0.0319 -0.7326  0.0744
    5MOL   C566 4654   1.081   6.681   4.658  0.1372 -0.5508 -0.3262
    5MOL   C567 4655   1.144   6.807   4.645  0.2369 -0.1641  0.8063
    5MOL   N568 4656   1.184   6.838   4.516 -0.3699  0.0187  0.3698
    5MOL   C569 4657   1.311   6.816   4.460  0.1921  0.7374 -0.0175
    5MOL   C570 4658   1.312   6.813   4.324 -0.0659  0.5418 -0.4756
    5MOL   C571 4659   1.438   6.790   4.257  0.1681 -0.3274  0.3244
    5MOL   C572 4660   1.559   6.783   4.328  0.0942  0.7345 -0.6549
    5MOL   N573 4661   1.674   6.776   4.267  0.0811  0.5564  0.2525
    5MOL   C574 4662   1.695   6.735   4.135  0.1950  0.1136 -0.8608
    5MOL   C575 4663   1.655   6.607   4.091  0.7367 -0.3381 -0.5288
    5MOL   C576 4664   1.648   6.575   3.949  0.3977  0.0640 -0.8266
    5MOL   C577 4665   1.706   6.669   3.860 -0.2826 -0.3656 -0.0797
    5MOL   N578 4666   1.704   6.647   3.723  0.0653 -0.7113 -0.5838
    5MOL   C579 4667   1.592   6.614   3.644  0.0626 -1.0655 -0.4018
    5MOL   C580 4668   1.465   6.589   3.693 -0.0469  0.5590  0.0732
    5MOL   C581 4669   1.358   6.566   3.609 -0.6955  0.6366  0.6315
    5MOL   C582 4670   1.379   6.584   3.468  0.0928  0.0507  0.3735
    5MOL   C583 4671   1.264   6.565   3.375 -0.5556  0.4803 -0.5238
    5MOL   C584 4672   1.509   6.611   3.417 -0.0088  0.2938 -0.1022
    5MOL   C585 4673   1.611   6.619   3.506 -0.6947  0.0064  0.0565
    5MOL   C586 4674   1.768   6.794   3.912  0.2161  0.0069  0.3595
    5MOL   C587 4675   1.754   6.825   4.046 -0.2700 -0.7018  0.6448
    5MOL   C588 4676   1.556   6.787   4.472  0.0452 -0.2630 -0.2299
    5MOL   C589 4677   1.433   6.812   4.535 -0.7496  0.4111 -0.4608
    5MOL   C590 4678   1.175   6.889   4.754  0.1327 -0.7705 -0.3630
    5MOL   C591 4679   1.125   6.855   4.878 -0.1145  0.1145 -0.1012
    5MOL   H592 4680   1.023   6.775   5.101 -1.6442  0.0528  0.3601
    5MOL   H593 4681   0.980   6.556   4.805 -1.2433 -0.1588 -0.0880
    5MOL   H594 4682   1.053   6.614   4.578  0.6464 -1.1767  0.0092
    5MOL   H595 4683   1.111   6.840   4.446 -1.7896 -1.6545  1.7702
    5MOL   H596 4684   1.223   6.823   4.264  1.2021  0.6043 -2.3871
    5MOL   H597 4685   1.437   6.800   4.149  1.8123  0.1562  0.3380
    5MOL   H598 4686   1.756   6.809   4.315  0.2923 -0.4063  0.5525
    5MOL   H599 4687   1.621   6.540   4.168  2.2161 -0.2089  0.2392
    5MOL   H600 4688   1.603   6.483   3.914 -2.2015  1.1737 -0.5243
    5MOL   H601 4689   1.772   6.699   3.670 -0.3153  0.3291 -0.0638
    5MOL   H602 4690   1.453   6.582   3.800  0.3126  1.3906  0.1740
    5MOL   H603 4691   1.261   6.535   3.644 -0.8333 -0.7479 -0.9316
    5MOL   H604 4692   1.206   6.651   3.408 -3.1105 -1.1152 -0.6838
    5MOL   H605 4693   1.211   6.470   3.382  1.3172 -0.6259 -0.9822
    5MOL   H606 4694   1.530   6.619   3.311  1.6834 -1.0989  0.1123
    5MOL   H607 4695   1.712   6.644   3.476 -1.4946  0.3545 -2.4694
    5MOL   H608 4696   1.800   6.865   3.838  0.7656  0.4200  0.9922
    5MOL   H609 4697   1.790   6.921   4.079 -0.3907  0.2277 -1.8477
    5MOL   H610 4698   1.649   6.779   4.526 -0.7541  0.9942  1.3548
    5MOL   H611 4699   1.433   6.827   4.642  1.8745 -0.1090 -0.3549
    5MOL   H612 4700   1.238   6.975   4.738 -1.5322  0.6101  0.4568
    5MOL   H613 4701   1.146   6.911   4.968 -0.3226 -0.6767  0.4518
    5MOL   N614 4702   1.290   6.582   3.227 -0.1342 -0.1740 -0.0206
    5MOL   C615 4703   1.188   6.610   3.133  0.6241  0.4731 -0.0196
    5MOL   C616 4704   1.050   6.600   3.167 -0.3151  0.5904  0.6504
    5MOL   C617 4705   0.951   6.622   3.064  0.2698  0.3371  0.2293
    5MOL   C618 4706   0.987   6.682   2.944 -0.2387 -0.5554 -0.1813
    5MOL   N619 4707   0.891   6.712   2.843 -0.1934  1.1105  0.0821
    5MOL   C620 4708   0.793   6.632   2.792 -0.1837  0.1276  0.6849
    5MOL   C621 4709   0.820   6.556   2.674  0.4692 -0.1288  0.0318
    5MOL   C622 4710   0.717   6.468   2.628  0.0519  0.0107 -0.1410
    5MOL   C623 4711   0.603   6.443   2.710 -0.2808  0.1216  0.4098
    5MOL   N624 4712   0.505   6.346   2.680 -0.4283 -0.6063  0.2861
    5MOL   C625 4713   0.531   6.210   2.654 -0.1929  1.0880 -0.1332
    5MOL   C626 4714   0.654   6.139   2.641 -0.1342 -0.2613  0.0712
    5MOL   C627 4715   0.663   6.006   2.594  0.1360  0.1845 -0.3957
    5MOL   C628 4716   0.546   5.937   2.556 -0.5165  0.0506 -0.7174
    5MOL   N629 4717   0.544   5.806   2.515 -0.8913 -0.3301  0.1414
    5MOL   C630 4718   0.629   5.706   2.546  0.0337  0.2457 -1.0125
    5MOL   C631 4719   0.766   5.703   2.515  1.2884  0.1933  0.5359
    5MOL   C632 4720   0.847   5.593   2.543  0.0838 -0.3376 -0.3694
    5MOL   C633 4721   0.793   5.474   2.595  0.0297  0.5912  0.1038
    5MOL   C634 4722   0.875   5.353   2.619 -0.0612 -0.5948  1.4470
    5MOL   C635 4723   0.657   5.472   2.618 -0.0098  0.3529  0.2945
    5MOL   C636 4724   0.578   5.587   2.596 -0.7029 -0.2310  0.2228
    5MOL   C637 4725   0.422   6.006   2.553  0.0421  0.1041 -0.4481
    5MOL   C638 4726   0.419   6.135   2.611  0.2598 -0.2469  0.2450
    5MOL   C639 4727   0.578   6.516   2.829 -0.6893 -0.5101  0.4675
    5MOL   C640 4728   0.669   6.619   2.862 -0.1181 -0.5986 -0.0585
    5MOL   C641 4729   1.121   6.711   2.918  0.0899 -0.8677 -0.1894
    5MOL   C642 4730   1.220   6.668   3.007 -0.2161  0.0678  0.5237
    5MOL   H643 4731   1.380   6.606   3.189 -0.6321  1.8601 -0.0248
    5MOL   H644 4732   1.026   6.568   3.267 -0.9942  2.1568  0.9922
    5MOL   H645 4733   0.848   6.593   3.078 -0.4960  2.3882 -0.9802
    5MOL   H646 4734   0.904   6.795   2.786  1.7184  1.7724  1.4185
    5MOL   H647 4735   0.920   6.550   2.632 -0.6865 -0.4406 -2.8336
    5MOL   H648 4736   0.735   6.406   2.541  0.1108 -1.9299  1.2253
    5MOL   H649 4737   0.413   6.373   2.713  0.2902 -0.2632  2.1038
    5MOL   H650 4738   0.755   6.173   2.661 -0.3003 -0.5709  1.4589
    5MOL   H651 4739   0.761   5.959   2.590  0.1056  0.1267 -0.4482
    5MOL   H652 4740   0.462   5.774   2.465 -0.6615 -0.5055 -0.1250
    5MOL   H653 4741   0.804   5.793   2.469 -2.3647 -0.5125 -4.2853
    5MOL   H654 4742   0.953   5.588   2.528  0.0271  1.8692 -1.7285
    5MOL   H655 4743   0.973   5.377   2.579 -0.5620 -2.1433 -0.8273
    5MOL   H656 4744   0.841   5.264   2.566 -2.4008  0.3953  1.2327
    5MOL   H657 4745   0.603   5.380   2.635  1.3632 -0.9482 -2.1471
    5MOL   H658 4746   0.473   5.575   2.619 -0.8338  2.7501  1.4316
    5MOL   H659 4747   0.328   5.970   2.515  0.5622 -1.2518 -0.4790
    5MOL   H660 4748   0.323   6.184   2.616  1.7282  2.5473  2.3609
    5MOL   H661 4749   0.489   6.502   2.889  0.8794 -1.9596  2.5328
    5MOL   H662 4750   0.651   6.672   2.954  2.1565  1.4421 -0.7296
    5MOL   H663 4751   1.162   6.738   2.821 -1.0108 -0.3676 -0.5247
    5MOL   H664 4752   1.325   6.688   2.996 -0.7071  3.5103  1.5648
    5MOL   N665 4753   0.910   5.325   2.760  0.5706 -0.0771 -0.1501
    5MOL   C666 4754   0.815   5.262   2.840 -0.0809  0.1097 -0.4122
    5MOL   C667 4755   0.720   5.172   2.786  0.1055 -0.0825  0.2063
    5MOL   C668 4756   0.608   5.149   2.868  0.0285 -0.0056  0.2338
    5MOL   C669 4757   0.604   5.193   3.003 -0.1900 -0.1910 -0.1930
    5MOL   N670 4758   0.494   5.174   3.088 -0.6209 -0.2000 -0.4229
    5MOL   C671 4759   0.396   5.073   3.085  0.2001 -0.2585  0.3870
    5MOL   C672 4760   0.427   4.944   3.032  0.2226 -0.4956  0.3329
    5MOL   C673 4761   0.336   4.838   3.056 -0.3651 -0.5038  0.7687
    5MOL   C674 4762   0.221   4.860   3.130  0.8709  0.2255 -0.2214
    5MOL   N675 4763   0.125   4.760   3.150 -0.4043 -0.6730 -0.3375
    5MOL   C676 4764   0.141   4.626   3.168  0.2502  0.0311 -0.6609
    5MOL   C677 4765   0.044   4.541   3.123  0.3331 -0.3647 -0.0859
    5MOL   C678 4766   0.050   4.400   3.142 -0.1308 -0.4159 -0.2588
    5MOL   C679 4767   0.161   4.343   3.210  0.7733 -0.7095 -0.5075
    5MOL   N680 4768   0.159   4.200   3.233 -0.3449  0.5669 -0.0285
    5MOL   C681 4769   0.260   4.121   3.285  0.2054 -0.1605  0.4665
    5MOL   C682 4770   0.235   4.029   3.392 -0.1132 -0.9337  0.1239
    5MOL   C683 4771   0.343   3.951   3.441 -0.5115 -0.5423  0.0567
    5MOL   C684 4772   0.473   3.949   3.374 -0.6448 -0.4239 -0.4498
    5MOL   C685 4773   0.576   3.857   3.429  0.0917 -0.3724  0.3015
    5MOL   C686 4774   0.495   4.031   3.268 -0.5167 -0.1097  0.1408
    5MOL   C687 4775   0.389   4.118   3.230 -0.3079 -1.2611 -0.3065
    5MOL   C688 4776   0.260   4.429   3.265 -0.3676 -0.4111  0.3106
    5MOL   C689 4777   0.248   4.571   3.239  0.9523 -0.2877 -0.0416
    5MOL   C690 4778   0.191   4.987   3.177  0.0259  0.4667 -0.0043
    5MOL   C691 4779   0.276   5.097   3.155 -1.1543 -0.0494 -0.1363
    5MOL   C692 4780   0.708   5.271   3.055 -0.3709 -0.2926  0.4884
    5MOL   C693 4781   0.819   5.302   2.978  0.3975 -0.6031  0.6642
    5MOL   H694 4782   0.981   5.388   2.796  1.0909  0.2232 -1.6534
    5MOL   H695 4783   0.709   5.149   2.681 -0.5635  2.8357 -0.4016
    5MOL   H696 4784   0.516   5.100   2.838 -0.5048  1.0561  0.1369
    5MOL   H697 4785   0.485   5.238   3.164 -1.2168 -0.8420  0.0555
    5MOL   H698 4786   0.522   4.919   2.988 -0.6443  0.5837 -2.2030
    5MOL   H699 4787   0.351   4.735   3.027  2.4225  0.2802 -0.8145
    5MOL   H700 4788   0.027   4.785   3.152 -0.6625 -1.7486  1.5885
    5MOL   H701 4789   7.943   4.577   3.065 -0.6805 -0.0494  1.5312
    5MOL   H702 4790   7.951   4.342   3.101 -2.4703  1.9050  0.9845
    5MOL   H703 4791   0.069   4.158   3.251  0.2985 -0.9807 -0.3792
    5MOL   H704 4792   0.134   4.025   3.430 -0.8224 -1.6915 -1.7940
    5MOL   H705 4793   0.322   3.891   3.528 -4.9466  1.0258  0.1738
    5MOL   H706 4794   0.669   3.857   3.372 -0.2802 -1.2052 -0.3236
    5MOL   H707 4795   0.551   3.752   3.417  0.2051 -0.2927 -0.7449
    5MOL   H708 4796   0.590   4.029   3.216 -1.0479 -3.1172 -0.7688
    5MOL   H709 4797   0.394   4.184   3.145 -2.6957  0.5466  0.8937
    5MOL   H710 4798   0.349   4.395   3.316 -0.3106 -0.5062  0.1475
    5MOL   H711 4799   0.334   4.633   3.256  0.8847 -0.4333  0.8899
    5MOL   H712 4800   0.104   5.007   3.237  0.7941  0.0397  1.2880
    5MOL   H713 4801   0.257   5.190   3.206 -1.5237 -0.9117  1.3295
    5MOL   H714 4802   0.711   5.292   3.161  0.4136 -0.6785  0.5485
    5MOL   H715 4803   0.901   5.354   3.025  0.8122  1.6422 -2.4073
    5MOL   N716 4804   0.601   3.881   3.569 -0.3403  0.3368  0.0029
    5MOL   C717 4805   0.645   4.008   3.614  0.4326 -0.0295 -0.4266
    5MOL   C718 4806   0.592   4.062   3.734 -0.0885  0.2195 -0.5306
    5MOL   C719 4807   0.635   4.184   3.787 -1.0930 -0.1186  0.7232
    5MOL   C720 4808   0.750   4.245   3.731  0.2267  0.1615 -0.7101
    5MOL   N721 4809   0.807   4.363   3.781 -0.1792  0.4332 -0.1547
    5MOL   C722 4810   0.852   4.396   3.909  0.6439 -0.1132 -0.5278
    5MOL   C723 4811   0.831   4.320   4.027 -0.3328  0.1832 -0.6118
    5MOL   C724 4812   0.868   4.372   4.152  0.4262  0.1152  0.1921
    5MOL   C725 4813   0.925   4.500   4.162 -0.4439  0.1828 -0.5580
    5MOL   N726 4814   0.952   4.549   4.286  0.5364  0.0386 -0.0612
    5MOL   C727 4815   0.984   4.681   4.328  0.2306 -0.4708 -0.1145
    5MOL   C728 4816   1.089   4.700   4.418 -0.6716  0.3364 -0.1227
    5MOL   C729 4817   1.135   4.828   4.441  0.2311 -0.4621  0.5425
    5MOL   C730 4818   1.056   4.942   4.403 -1.1837  0.4830 -0.0190
    5MOL   N731 4819   1.095   5.068   4.442  0.6103  0.0234 -0.2529
    5MOL   C732 4820   1.067   5.191   4.378 -0.2911  0.3890 -0.1301
    5MOL   C733 4821   1.045   5.307   4.456 -0.2390  0.1180 -0.1663
    5MOL   C734 4822   1.026   5.432   4.389 -0.3107  0.5916  0.0728
    5MOL   C735 4823   1.023   5.444   4.251 -0.3890 -0.2477  0.1187
    5MOL   C736 4824   1.001   5.575   4.180  0.3269  0.1438 -0.2118
    5MOL   C737 4825   1.045   5.326   4.178 -0.9511 -0.3779  0.6004
    5MOL   C738 4826   1.053   5.202   4.237  0.5233 -0.1692  0.2556
    5MOL   C739 4827   0.939   4.923   4.326  0.0631  0.4175 -0.0756
    5MOL   C740 4828   0.911   4.794   4.286 -0.2579 -0.2887  0.4787
    5MOL   C741 4829   0.949   4.576   4.045  0.3290 -0.5101  0.0168
    5MOL   C742 4830   0.919   4.518   3.923 -0.0415 -0.2340  0.8607
    5MOL   C743 4831   0.801   4.198   3.611 -0.0425  0.2887 -0.2975
    5MOL   C744 4832   0.751   4.078   3.554 -0.0384 -0.2276  0.2027
    5MOL   H745 4833   0.563   3.814   3.635  1.1463  0.6841  1.2277
    5MOL   H746 4834   0.502   4.018   3.774 -1.3901  0.7384 -2.7945
    5MOL   H747 4835   0.579   4.224   3.870  0.0795  0.2560  1.3394
    5MOL   H748 4836   0.818   4.433   3.709  2.7112 -2.3315 -2.5375
    5MOL   H749 4837   0.781   4.224   4.022 -1.9774  0.8422  2.1715
    5MOL   H750 4838   0.850   4.316   4.243  0.8336  1.2404  0.9770
    5MOL   H751 4839   0.994   4.482   4.348 -0.6984  1.6369  2.6066
    5MOL   H752 4840   1.147   4.617   4.454  0.2378  0.2920 -1.6438
    5MOL   H753 4841   1.224   4.835   4.501  1.3684 -1.7260 -0.9702
    5MOL   H754 4842   1.177   5.074   4.501 -0.2478  1.6430  0.7849
    5MOL   H755 4843   1.047   5.311   4.564 -1.6010  1.1904 -0.1712
    5MOL   H756 4844   1.019   5.521   4.449  0.8024  2.5244 -2.5590
    5MOL   H757 4845   1.004   5.559   4.072 -1.4099  0.9366 -0.3805
    5MOL   H758 4846   1.073   5.654   4.203  0.4755 -0.2484  0.7023
    5MOL   H759 4847   1.039   5.329   4.070 -0.3921 -1.5774  0.5306
    5MOL   H760 4848   1.079   5.108   4.189 -0.0458  1.0710 -2.5743
    5MOL   H761 4849   0.883   5.008   4.291 -0.3654 -0.3032 -1.1669
    5MOL   H762 4850   0.824   4.769   4.227 -0.7912 -2.3193  2.0667
    5MOL   H763 4851   1.001   4.671   4.052 -2.7287  1.3195 -0.9927
    5MOL   H764 4852   0.945   4.572   3.833 -1.2066 -0.6509  0.2668
    5MOL   H765 4853   0.881   4.240   3.553  1.5806  0.4625  1.9928
    5MOL   H766 4854   0.786   4.052   3.455  1.3481  1.9873  0.0774
    5MOL   N767 4855   0.869   5.622   4.217  0.3676  0.2852  0.2472
    5MOL   C768 4856   0.832   5.750   4.175 -0.3972  0.2341  0.7720
    5MOL   C769 4857   0.902   5.826   4.080  0.3522 -0.4428 -0.4171
    5MOL   C770 4858   0.861   5.951   4.050 -0.6564  0.1003  0.1967
    5MOL   C771 4859   0.743   6.006   4.097  0.5040 -0.3830 -0.2238
    5MOL   N772 4860   0.708   6.133   4.044  0.2446  0.3815 -0.0705
    5MOL   C773 4861   0.589   6.198   4.053  0.1072 -0.3858 -0.1509
    5MOL   C774 4862   0.588   6.339   4.076  0.4711 -0.2918 -0.2167
    5MOL   C775 4863   0.465   6.404   4.091 -0.0529 -0.7772 -0.0164
    5MOL   C776 4864   0.346   6.340   4.079  0.2068  0.2117  0.1832
    5MOL   N777 4865   0.226   6.401   4.115 -0.0147 -0.7044  0.1079
    5MOL   C778 4866   0.119   6.422   4.027  0.4873 -0.1794 -0.3514
    5MOL   C779 4867   7.981   6.465   4.087 -0.8901  0.2595  0.7497
    5MOL   C780 4868   7.878   6.518   4.007  0.1280  0.7308  0.3762
    5MOL   C781 4869   7.886   6.514   3.863 -0.0862 -0.5824  0.3235
    5MOL   N782 4870   7.788   6.573   3.785 -0.0980 -0.3876  0.2628
    5MOL   C783 4871   7.655   6.611   3.806  0.2775  0.3438  0.4896
    5MOL   C784 4872   7.594   6.714   3.732 -0.9251 -0.0971  0.0056
    5MOL   C785 4873   7.456   6.739   3.749  0.1151  0.6866 -0.2223
    5MOL   C786 4874   7.379   6.684   3.851  0.4428  0.4825  0.6287
    5MOL   C787 4875   7.232   6.724   3.871  0.1865 -0.5299 -0.5085
    5MOL   C788 4876   7.444   6.585   3.931 -0.6383  0.5965  0.1018
    5MOL   C789 4877   7.581   6.548   3.903  0.2343 -0.0243 -0.6600
    5MOL   C790 4878   0.018   6.456   3.803  0.2460 -0.1294 -0.0724
    5MOL   C791 4879   0.128   6.419   3.885 -0.6389  0.3306 -0.2891
    5MOL   C792 4880   0.344   6.200   4.046 -0.7486 -0.7003  0.4386
    5MOL   C793 4881   0.466   6.128   4.035 -0.6605 -0.1923  0.1705
    5MOL   C794 4882   0.664   5.934   4.195  0.2768 -0.6682  1.1400
    5MOL   C795 4883   0.710   5.803   4.231 -0.3713  0.7919 -0.0977
    5MOL   H796 4884   0.805   5.561   4.266  0.0532  0.1383 -0.3536
    5MOL   H797 4885   0.992   5.788   4.033 -0.8958 -1.8892 -1.6741
    5MOL   H798 4886   0.922   5.996   3.973 -2.2632 -1.8629 -2.3329
    5MOL   H799 4887   0.783   6.186   4.002  0.0755  1.5783  1.1051
    5MOL   H800 4888   0.679   6.394   4.091 -1.6244  2.7502  1.8831
    5MOL   H801 4889   0.465   6.511   4.103  0.3477 -0.8886  1.1023
    5MOL   H802 4890   0.223   6.451   4.203 -0.8969  0.0131 -0.3240
    5MOL   H803 4891   7.965   6.461   4.193 -3.3333  0.0202  0.4052
    5MOL   H804 4892   7.795   6.558   4.063  0.4879  3.9233 -1.2706
    5MOL   H805 4893   7.821   6.628   3.707  0.2566 -1.5959 -0.4434
    5MOL   H806 4894   7.652   6.769   3.659 -0.6096  0.1530  0.4458
    5MOL   H807 4895   7.407   6.807   3.681  1.3359  3.0452  1.2236
    5MOL   H808 4896   7.177   6.666   3.797 -1.4544  0.5982 -0.2165
    5MOL   H809 4897   7.212   6.830   3.852  1.6057 -0.0545  0.5285
    5MOL   H810 4898   7.389   6.540   4.013 -0.6342  0.0864 -0.1708
    5MOL   H811 4899   7.623   6.468   3.962  1.5139 -0.5633 -2.2486
    5MOL   H812 4900   0.019   6.450   3.696  0.9607 -0.0140 -0.0732
    5MOL   H813 4901   0.225   6.384   3.852  1.0599  2.5688  2.1601
    5MOL   H814 4902   0.249   6.148   4.045 -0.6632 -0.8593 -1.1640
    5MOL   H815 4903   0.472   6.022   4.015 -1.8927 -0.2202 -0.0848
    5MOL   H816 4904   0.574   5.976   4.238  0.1815  0.1678  0.1553
    5MOL   H817 4905   0.652   5.744   4.300  0.5435 -0.0678 -0.0536
    5MOL   N818 4906   7.176   6.693   4.004 -0.7723 -0.6617  0.0820
    5MOL   C819 4907   7.038   6.675   4.034  0.3187  0.6804  0.1782
    5MOL   C820 4908   6.998   6.653   4.166 -0.1824  0.3946 -0.2314
    5MOL   C821 4909   6.856   6.650   4.203 -0.1746  0.6157 -0.4322
    5MOL   C822 4910   6.761   6.638   4.097 -0.4688  0.1320 -0.4392
    5MOL   N823 4911   6.624   6.623   4.122 -0.3911 -0.3678 -0.6651
    5MOL   C824 4912   6.556   6.683   4.233 -0.7639 -0.1543  0.7588
    5MOL   C825 4913   6.478   6.801   4.220 -0.9474 -0.0758 -0.4481
    5MOL   C826 4914   6.413   6.855   4.332  0.6043 -0.4988 -0.1950
    5MOL   C827 4915   6.425   6.794   4.459 -0.4130  0.2059  0.1214
    5MOL   N828 4916   6.343   6.833   4.566  0.2832  0.1723  0.3861
    5MOL   C829 4917   6.366   6.878   4.694  0.1042  0.0632 -0.3605
    5MOL   C830 4918   6.260   6.874   4.786  0.7284  0.2261 -0.0216
    5MOL   C831 4919   6.278   6.931   4.915  0.2673  0.3697 -0.2605
    5MOL   C832 4920   6.394   6.996   4.950 -0.7624 -0.4593 -0.0652
    5MOL   N833 4921   6.399   7.062   5.072  0.0286  0.6319  0.0585
    5MOL   C834 4922   6.466   7.021   5.187 -0.2328 -0.2801  0.7656
    5MOL   C835 4923   6.536   6.899   5.187  0.3338  0.1718 -0.0738
    5MOL   C836 4924   6.591   6.855   5.309  0.1355 -0.1140 -0.8199
    5MOL   C837 4925   6.591   6.937   5.427  0.2357 -0.4713 -0.1882
    5MOL   C838 4926   6.668   6.915   5.559  1.0311  0.4558  0.1467
    5MOL   C839 4927   6.520   7.056   5.413 -0.5528  0.5856  0.1805
    5MOL   C840 4928   6.464   7.096   5.298 -1.0316 -0.1323  0.4167
    5MOL   C841 4929   6.505   6.989   4.860  0.0802 -0.6189 -0.5611
    5MOL   C842 4930   6.491   6.930   4.734 -0.1381 -0.6812  0.1396
    5MOL   C843 4931   6.513   6.682   4.474  0.2044  0.2174  0.3969
    5MOL   C844 4932   6.575   6.625   4.362  0.3032 -0.5528  0.6890
    5MOL   C845 4933   6.803   6.656   3.968  0.4389  1.0752 -0.8337
    5MOL   C846 4934   6.938   6.679   3.942 -0.2206 -0.0191  0.4236
    5MOL   H847 4935   7.240   6.725   4.075  3.2081 -1.0930 -3.1082
    5MOL   H848 4936   7.069   6.643   4.246  0.3633  0.8212 -0.6547
    5MOL   H849 4937   6.840   6.652   4.310  1.2702  1.1947 -0.2045
    5MOL   H850 4938   6.575   6.617   4.035 -3.8625  0.0564  1.1816
    5MOL   H851 4939   6.446   6.857   4.134 -1.4052  1.9965  1.0385
    5MOL   H852 4940   6.353   6.941   4.304  0.3750 -0.9249 -1.0405
    5MOL   H853 4941   6.244   6.824   4.549 -0.2510  0.6497  3.0419
    5MOL   H854 4942   6.163   6.827   4.772  0.6227  0.9016 -1.6058
    5MOL   H855 4943   6.204   6.917   4.992  1.0344 -2.3486  0.0125
    5MOL   H856 4944   6.321   7.123   5.090 -0.7705 -0.2142 -0.4930
    5MOL   H857 4945   6.550   6.835   5.101 -0.5999  0.6747 -0.6010
    5MOL   H858 4946   6.653   6.767   5.317 -0.2031 -0.3703 -0.9771
    5MOL   H859 4947   6.593   6.883   5.630 -1.1356 -0.7390 -2.5732
    5MOL   H860 4948   6.713   7.008   5.593  1.0105 -0.4035  2.6021
    5MOL   H861 4949   6.522   7.120   5.500 -0.6583 -0.2006  0.7713
    5MOL   H862 4950   6.418   7.193   5.303 -1.0468 -0.1924  1.6874
    5MOL   H863 4951   6.602   7.021   4.893 -0.1359 -1.2404  0.7270
    5MOL   H864 4952   6.576   6.932   4.668  0.3465 -1.1563  0.7363
    5MOL   H865 4953   6.519   6.627   4.567  1.2253  1.7655  1.2660
    5MOL   H866 4954   6.626   6.531   4.376  0.4715 -0.6184 -0.2919
    5MOL   H867 4955   6.728   6.674   3.893 -1.5121  0.3208  0.8762
    5MOL   H868 4956   6.968   6.711   3.843 -0.9657 -0.0523  0.1790
    5MOL   N869 4957   6.775   6.813   5.555  0.4833 -0.1002 -0.2280
    5MOL   C870 4958   6.900   6.840   5.502 -0.7506 -0.2700  0.2345
    5MOL   C871 4959   6.923   6.918   5.386 -0.3458  0.4390  0.2276
    5MOL   C872 4960   7.050   6.934   5.329  0.1224  0.5822  0.4903
    5MOL   C873 4961   7.159   6.872   5.387  0.3469 -0.2624 -0.7159
    5MOL   N874 4962   7.272   6.865   5.319 -0.1107 -0.2994 -0.3121
    5MOL   C875 4963   7.289   6.760   5.234  0.4290  0.2242 -1.0589
    5MOL   C876 4964   7.360   6.783   5.113 -0.1251 -0.4091 -0.8440
    5MOL   C877 4965   7.392   6.681   5.025 -0.3527 -0.6458  0.4048
    5MOL   C878 4966   7.349   6.550   5.044  0.0186  0.5860 -0.4846
    5MOL   N879 4967   7.373   6.453   4.952 -0.7450 -0.1843  1.1746
    5MOL   C880 4968   7.284   6.368   4.880 -0.3742 -0.2799 -0.9289
    5MOL   C881 4969   7.143   6.381   4.910  0.5044 -0.1676  0.0148
    5MOL   C882 4970   7.050   6.289   4.858 -0.7388 -0.6403 -0.2812
    5MOL   C883 4971   7.100   6.187   4.773 -0.5444 -0.7512  0.4006
    5MOL   N884 4972   6.999   6.094   4.729 -0.8013 -0.1631  0.5350
    5MOL   C885 4973   6.867   6.119   4.692 -0.3839 -0.0261  0.4319
    5MOL   C886 4974   6.838   6.236   4.609 -0.1048 -0.6055  0.0302
    5MOL   C887 4975   6.705   6.259   4.559 -0.9663 -0.7547 -0.4056
    5MOL   C888 4976   6.604   6.161   4.574 -0.6674  0.4143 -0.0830
    5MOL   C889 4977   6.470   6.171   4.509 -0.3783 -0.1661  0.5209
    5MOL   C890 4978   6.636   6.043   4.654 -0.2935 -0.1585 -0.4771
    5MOL   C891 4979   6.765   6.026   4.713  0.8290 -0.6519 -0.4417
    5MOL   C892 4980   7.240   6.173   4.749 -0.4179  1.1494  0.0628
    5MOL   C893 4981   7.332   6.264   4.807  0.1241 -0.1985  0.3774
    5MOL   C894 4982   7.282   6.519   5.165  0.4377 -0.1108 -0.1800
    5MOL   C895 4983   7.254   6.624   5.262 -0.4807 -0.1193 -0.1300
    5MOL   C896 4984   7.143   6.803   5.510 -0.5562 -0.2570 -0.0689
    5MOL   C897 4985   7.015   6.778   5.564  0.3136  0.0323  0.8393
    5MOL   H898 4986   6.765   6.728   5.609  0.0412 -1.4898 -2.4262
    5MOL   H899 4987   6.837   6.958   5.334  1.6540  0.2806 -3.4212
    5MOL   H900 4988   7.049   6.989   5.236 -0.9815  1.0762  0.7868
    5MOL   H901 4989   7.312   6.950   5.282 -1.1463  0.1752 -0.3296
    5MOL   H902 4990   7.385   6.886   5.090 -0.3112 -0.0144  0.6529
    5MOL   H903 4991   7.450   6.711   4.939 -0.7349  0.3842  0.5052
    5MOL   H904 4992   7.456   6.467   4.897 -2.6522 -0.2140 -1.8433
    5MOL   H905 4993   7.109   6.455   4.982  1.3275  0.7963 -0.5767
    5MOL   H906 4994   6.943   6.290   4.873 -0.7858  0.0404 -0.6537
    5MOL   H907 4995   7.025   5.996   4.731 -2.0685 -0.5333 -0.5032
    5MOL   H908 4996   6.908   6.315   4.589  2.5704 -3.2469 -1.4623
    5MOL   H909 4997   6.682   6.349   4.503 -1.8108 -2.3452 -2.7168
    5MOL   H910 4998   6.394   6.144   4.581  0.6400 -0.3212  1.5474
    5MOL   H911 4999   6.454   6.094   4.433 -0.5040 -1.9339  2.3212
    5MOL   H912 5000   6.566   5.965   4.681 -2.8750  1.7844 -1.3721
    5MOL   H913 5001   6.776   5.944   4.782  0.4835 -0.3556 -0.0324
    5MOL   H914 5002   7.277   6.087   4.694 -0.6645  0.3674  1.0984
    5MOL   H915 5003   7.439   6.246   4.803 -0.2111 -2.4631  0.9739
    5MOL   H916 5004   7.249   6.419   5.188 -2.0967  0.6271 -0.3860
    5MOL   H917 5005   7.221   6.595   5.360 -0.7299 -1.6714 -0.6654
    5MOL   H918 5006   7.223   6.746   5.554 -0.8060 -0.6009 -0.0619
    5MOL   H919 5007   7.008   6.704   5.643 -1.1283  1.2512  1.8720
    5MOL   N920 5008   6.442   6.307   4.456  0.6101 -0.4403  0.4885
    5MOL   C921 5009   6.320   6.327   4.383  0.1354 -0.3416 -0.0080
    5MOL   C922 5010   6.328   6.406   4.264  0.1445 -0.6371  0.1461
    5MOL   C923 5011   6.206   6.425   4.189  1.0363  0.1087 -0.6275
    5MOL   C924 5012   6.082   6.366   4.227  0.1485 -1.2005  0.2754
    5MOL   N925 5013   5.967   6.391   4.149  0.9578  0.0405 -0.2336
    5MOL   C926 5014   5.870   6.304   4.111  0.4870 -0.1513 -0.2524
    5MOL   C927 5015   5.741   6.352   4.078 -1.2033 -0.3921 -0.4272
    5MOL   C928 5016   5.634   6.267   4.035  0.2567 -0.2664 -0.0316
    5MOL   C929 5017   5.652   6.127   4.027 -0.1059 -0.1434  1.2280
    5MOL   N930 5018   5.547   6.036   3.993  0.0272  0.3384 -0.1100
    5MOL   C931 5019   5.559   5.896   3.976  0.8651  0.2884 -0.4053
    5MOL   C932 5020   5.662   5.841   3.895  0.7467  0.2140  0.1379
    5MOL   C933 5021   5.678   5.706   3.882 -0.5684 -0.4992 -0.2619
    5MOL   C934 5022   5.584   5.615   3.938  0.0730  0.5416  0.4813
    5MOL   N935 5023   5.599   5.481   3.906  0.3795  0.1442 -1.2733
    5MOL   C936 5024   5.715   5.406   3.920  0.2612 -0.3833 -0.3993
    5MOL   C937 5025   5.822   5.447   4.001  0.4110  0.5032 -0.0356
    5MOL   C938 5026   5.938   5.363   4.015 -0.3101  0.1784  1.2253
    5MOL   C939 5027   5.952   5.248   3.927  0.3572  0.0237 -0.3485
    5MOL   C940 5028   6.070   5.157   3.930 -0.9209  0.0833  0.0072
    5MOL   C941 5029   5.842   5.209   3.848 -0.6206  0.3680 -0.3614
    5MOL   C942 5030   5.722   5.288   3.849  0.0717 -0.4832 -0.0507
    5MOL   C943 5031   5.481   5.668   4.017  0.0651  0.2970  0.4435
    5MOL   C944 5032   5.462   5.809   4.036 -1.1912  0.0350  0.6609
    5MOL   C945 5033   5.778   6.080   4.070  0.0801  0.3560  0.7059
    5MOL   C946 5034   5.884   6.164   4.113  1.1158 -0.0373 -0.0526
    5MOL   C947 5035   6.080   6.279   4.340 -0.1337  0.1195 -0.0644
    5MOL   C948 5036   6.197   6.267   4.420 -0.5394 -0.1274  0.1628
    5MOL   H949 5037   6.511   6.381   4.462 -0.9353  1.0329  0.2311
    5MOL   H950 5038   6.421   6.434   4.218 -0.5628  2.4394  0.4945
    5MOL   H951 5039   6.208   6.495   4.107  1.4579  1.3702  0.4387
    5MOL   H952 5040   5.957   6.488   4.123  3.5554 -0.0750 -1.7531
    5MOL   H953 5041   5.735   6.460   4.077  0.0033 -0.2569  1.9260
    5MOL   H954 5042   5.545   6.322   4.009  0.4499 -0.5023 -1.2267
    5MOL   H955 5043   5.454   6.059   4.026 -0.2491 -0.2727 -0.4451
    5MOL   H956 5044   5.730   5.909   3.846 -0.1661  1.4289  0.5417
    5MOL   H957 5045   5.753   5.680   3.808 -0.1274  2.2806 -0.8466
    5MOL   H958 5046   5.518   5.421   3.913  0.6547  0.0370  1.5088
    5MOL   H959 5047   5.827   5.539   4.057  0.3232 -1.0393  2.5803
    5MOL   H960 5048   6.011   5.378   4.093  1.9795 -2.2221 -0.3984
    5MOL   H961 5049   6.029   5.057   3.919 -0.9181  0.1745 -0.9568
    5MOL   H962 5050   6.116   5.176   4.026  1.1544  0.1587 -0.9710
    5MOL   H963 5051   5.835   5.117   3.791  3.1565 -0.0002 -0.3572
    5MOL   H964 5052   5.637   5.264   3.788 -0.1734  1.1339 -0.3797
    5MOL   H965 5053   5.411   5.597   4.059  0.3468  0.3302  0.9748
    5MOL   H966 5054   5.383   5.849   4.099 -1.6647 -0.9650  0.7043
    5MOL   H967 5055   5.800   5.974   4.064 -1.3068 -0.1277  3.2621
    5MOL   H968 5056   5.979   6.117   4.135  0.5707 -2.7720 -3.1215
    5MOL   H969 5057   5.987   6.230   4.364 -0.1363  0.0996 -0.1145
    5MOL   H970 5058   6.195   6.193   4.499  1.4431 -0.1563  0.2230
    5MOL   N971 5059   6.175   5.164   3.831  0.3514  0.1290 -0.2975
    5MOL   C972 5060   6.260   5.274   3.812 -0.5915  0.0499 -0.5032
    5MOL   C973 5061   6.270   5.395   3.884  0.2611  0.4969 -0.7322
    5MOL   C974 5062   6.370   5.492   3.863  0.1818 -0.5569 -0.0421
    5MOL   C975 5063   6.470   5.469   3.763  0.0038 -0.1161 -0.0383
    5MOL   N976 5064   6.565   5.562   3.716 -0.4884 -0.1859  0.1167
    5MOL   C977 5065   6.550   5.699   3.681  0.3478  0.3300 -0.0726
    5MOL   C978 5066   6.661   5.783   3.663  0.1416  0.2544 -0.6079
    5MOL   C979 5067   6.646   5.913   3.615  0.2574  0.0275  0.0094
    5MOL   C980 5068   6.514   5.965   3.588  0.1663 -0.3702  0.2631
    5MOL   N981 5069   6.507   6.098   3.545 -0.0344 -0.3617 -0.7235
    5MOL   C982 5070   6.430   6.144   3.444 -0.2559 -0.9268 -0.7899
    5MOL   C983 5071   6.387   6.279   3.433  0.6502 -0.0971  1.2016
    5MOL   C984 5072   6.314   6.325   3.323 -0.3720  0.3967 -0.2313
    5MOL   C985 5073   6.278   6.235   3.219 -0.1915 -0.1423  1.1487
    5MOL   N986 5074   6.197   6.287   3.122  0.6881 -0.3665  0.1164
    5MOL   C987 5075   6.164   6.241   2.992 -0.4437  0.3277 -0.6204
    5MOL   C988 5076   6.043   6.285   2.947  0.8395 -0.8148  1.2578
    5MOL   C989 5077   5.996   6.258   2.818  0.0916  0.2408  0.7276
    5MOL   C990 5078   6.074   6.173   2.739 -0.1826 -0.3914  0.9252
    5MOL   C991 5079   6.028   6.127   2.604  0.0223  0.1634 -0.5245
    5MOL   C992 5080   6.197   6.133   2.785 -0.4175  0.8259 -0.1482
    5MOL   C993 5081   6.252   6.167   2.909 -0.1898 -0.4977 -0.4866
    5MOL   C994 5082   6.316   6.103   3.228  0.4124 -0.3518 -0.4667
    5MOL   C995 5083   6.392   6.054   3.340 -0.9230  0.0461 -0.2724
    5MOL   C996 5084   6.402   5.883   3.609 -0.1973 -0.7855 -0.5781
    5MOL   C997 5085   6.422   5.752   3.654  0.0891  0.2356  0.5274
    5MOL   C998 5086   6.464   5.348   3.692 -0.4513 -0.2037 -0.4035
    5MOL   C999 5087   6.367   5.251   3.718 -0.0947  0.0810  0.4210
    5MOL     H1 5088   6.158   5.106   3.750 -2.1363 -1.4755  1.3292
    5MOL     H2 5089   6.198   5.419   3.961 -0.1953  0.8511 -1.2707
    5MOL     H3 5090   6.359   5.583   3.920 -0.4327 -1.1806  0.8343
    5MOL     H4 5091   6.644   5.512   3.678  1.2614  2.2434  0.3993
    5MOL     H5 5092   6.762   5.753   3.687 -0.8254 -1.3145  1.7546
    5MOL     H6 5093   6.736   5.968   3.591  0.9827 -2.5963 -3.8529
    5MOL     H7 5094   6.519   6.155   3.628  1.8569 -1.3551 -0.2853
    5MOL     H8 5095   6.418   6.356   3.503  0.3636 -2.1742  3.6853
    5MOL     H9 5096   6.284   6.429   3.333 -0.5951  0.3404 -0.3051
    5MOL    H10 5097   6.142   6.367   3.148 -0.0549 -0.5244 -0.9610
    5MOL    H11 5098   5.978   6.344   3.009  1.6503 -0.5860  1.8915
    5MOL    H12 5099   5.896   6.290   2.791 -0.0441  0.6117  1.6613
    5MOL    H13 5100   6.093   6.163   2.524 -4.7785  1.5704 -4.0980
    5MOL    H14 5101   5.932   6.175   2.585 -0.5537 -1.2196 -1.2269
    5MOL    H15 5102   6.261   6.076   2.720 -0.7132 -0.0523  0.3269
    5MOL    H16 5103   6.351   6.158   2.951 -0.0593  1.1714 -0.4071
    5MOL    H17 5104   6.281   6.035   3.151  0.2987 -0.2553 -0.4999
    5MOL    H18 5105   6.417   5.949   3.345 -0.4306  0.2215  1.6381
    5MOL    H19 5106   6.311   5.928   3.572  0.9124 -0.4721 -3.0011
    5MOL    H20 5107   6.336   5.687   3.663  1.0520 -1.6781 -2.9630
    5MOL    H21 5108   6.528   5.323   3.609 -0.8812 -1.7691 -0.2740
    5MOL    H22 5109   6.386   5.162   3.660  2.8447  1.5275 -0.9792
    5MOL    H23 5110   6.013   6.019   2.600 -1.9341  0.3720  0.4109
    6MOL     N1 5111   0.590   6.923   3.750 -0.4283 -0.2982  0.1536
    6MOL     C2 5112   0.612   7.017   3.854  0.6613  0.5036 -0.0198
    6MOL     C3 5113   0.740   7.031   3.911 -0.1310 -0.3304 -0.4201
    6MOL     C4 5114   0.744   7.122   4.021 -0.1770  0.2436 -0.6112
    6MOL     C5 5115   0.632   7.196   4.064  0.2126 -0.7381  0.7013
    6MOL     N6 5116   0.634   7.295   4.166  0.1700  0.1506  0.3305
    6MOL     C7 5117   0.740   7.324   4.249 -0.0238 -0.6689 -0.5231
    6MOL     C8 5118   0.860   7.373   4.196  0.8526 -0.6840 -0.2528
    6MOL     C9 5119   0.968   7.404   4.279 -1.1931 -0.3628 -1.0444
    6MOL    C10 5120   0.967   7.363   4.416  0.0524  0.1696 -0.1423
    6MOL    N11 5121   1.076   7.378   4.499 -0.0917 -0.6110 -0.4900
    6MOL    C12 5122   1.075   7.359   4.642  0.0429  0.1782 -0.1264
    6MOL    C13 5123   1.149   7.254   4.707  0.2156  0.3288 -0.5816
    6MOL    C14 5124   1.115   7.231   4.839 -0.0538  0.4387 -0.0304
    6MOL    C15 5125   1.025   7.309   4.917  0.2053 -0.5329  0.0353
    6MOL    N16 5126   0.986   7.277   5.045 -0.4699 -0.2995 -0.5602
    6MOL    C17 5127   1.067   7.257   5.158 -0.1051 -0.0822 -0.0290
    6MOL    C18 5128   1.009   7.207   5.280  0.4042 -0.5331  0.0075
    6MOL    C19 5129   1.086   7.197   5.395 -0.3607 -0.4105 -0.1712
    6MOL    C20 5130   1.223   7.239   5.399  0.4538 -0.3659  0.5021
    6MOL    C21 5131   1.300   7.229   5.524  0.5478 -0.0001 -0.3183
    6MOL    C22 5132   1.282   7.277   5.280  0.2051 -0.3202 -0.2440
    6MOL    C23 5133   1.202   7.289   5.161 -0.0485 -0.1178  0.2627
    6MOL    C24 5134   0.970   7.423   4.857  0.3474 -0.1906  0.2910
    6MOL    C25 5135   0.994   7.447   4.718  0.0463  0.0496  0.0078
    6MOL    C26 5136   0.846   7.307   4.469 -0.6889 -0.1958  0.3429
    6MOL    C27 5137   0.729   7.299   4.390 -0.3759  0.8342  0.5934
    6MOL    C28 5138   0.511   7.190   3.993  0.0026  0.1615  0.2534
    6MOL    C29 5139   0.501   7.100   3.884  0.2011  0.0747  0.2046
    6MOL    H30 5140   0.494   6.922   3.719 -0.4263 -0.0286  0.1375
    6MOL    H31 5141   0.820   6.964   3.882  0.2658  0.0158 -0.1309
    6MOL    H32 5142   0.843   7.133   4.063 -0.5790  1.0665  0.1202
    6MOL    H33 5143   0.553   7.290   4.227 -0.7296 -0.0921 -0.8695
    6MOL    H34 5144   0.861   7.392   4.089 -0.5519  0.7812 -0.0202
    6MOL    H35 5145   1.051   7.467   4.249 -1.8233  2.1234  2.1865
    6MOL    H36 5146   1.167   7.384   4.457 -0.0869 -0.0682 -0.4176
    6MOL    H37 5147   1.223   7.198   4.652  0.2172 -0.4896  0.2451
    6MOL    H38 5148   1.167   7.149   4.887 -1.2088 -0.6135 -0.5730
    6MOL    H39 5149   0.892   7.306   5.067 -0.2504  0.0803 -0.0926
    6MOL    H40 5150   0.905   7.180   5.294 -0.3383  2.4435  0.5138
    6MOL    H41 5151   1.039   7.156   5.484  0.1976  1.8293  1.2054
    6MOL    H42 5152   1.404   7.213   5.496  1.8272  0.0612  3.9780
    6MOL    H43 5153   1.271   7.137   5.575  1.7981 -0.2425 -0.0084
    6MOL    H44 5154   1.385   7.307   5.265  0.4656 -0.7143  0.7421
    6MOL    H45 5155   1.239   7.317   5.063 -0.0826 -1.1220 -0.0505
    6MOL    H46 5156   0.893   7.478   4.908  0.7100 -0.4563  1.1300
    6MOL    H47 5157   0.940   7.529   4.674  1.7114  0.6516 -0.9625
    6MOL    H48 5158   0.845   7.274   4.572  0.3247 -1.4967 -0.0560
    6MOL    H49 5159   0.643   7.260   4.442  0.3895 -0.4874  0.8859
    6MOL    H50 5160   0.432   7.261   4.015  0.0970  0.8798 -1.6041
    6MOL    H51 5161   0.403   7.095   3.838 -0.6470 -1.0926  2.0480
    6MOL    H52 5162   0.635   6.833   3.753 -0.7731 -0.5122 -0.7724
    6MOL    N53 5163   1.288   7.334   5.629 -0.0479  0.2287 -0.2490
    6MOL    C54 5164   1.383   7.429   5.623 -0.5410  0.5950  0.0352
    6MOL    C55 5165   1.396   7.524   5.520  0.5677  0.3238 -0.0795
    6MOL    C56 5166   1.508   7.603   5.513 -0.5159  0.1054  0.1956
    6MOL    C57 5167   1.611   7.600   5.611 -0.5663  0.3593 -0.2278
    6MOL    N58 5168   1.720   7.687   5.601  0.2561  0.1620  0.0951
    6MOL    C59 5169   1.858   7.654   5.623 -0.4429 -0.7920 -0.1146
    6MOL    C60 5170   1.899   7.532   5.677  0.0172 -0.7622 -0.4485
    6MOL    C61 5171   2.036   7.505   5.702 -1.0696 -0.2670 -0.4033
    6MOL    C62 5172   2.137   7.596   5.660  1.0956 -0.3042  0.7629
    6MOL    N63 5173   2.267   7.553   5.694 -0.1225 -0.2375 -0.5202
    6MOL    C64 5174   2.383   7.607   5.648 -0.8697  0.1867  0.3216
    6MOL    C65 5175   2.409   7.614   5.505  0.1070 -0.0969 -0.6394
    6MOL    C66 5176   2.529   7.654   5.450  0.1062 -0.3090  0.1366
    6MOL    C67 5177   2.626   7.700   5.537 -0.6327  0.4607 -0.1455
    6MOL    N68 5178   2.749   7.735   5.480 -0.2517 -0.1277 -0.8744
    6MOL    C69 5179   2.874   7.697   5.532 -0.0941  0.2667 -0.6809
    6MOL    C70 5180   2.983   7.749   5.470 -0.1507 -0.0607  0.2771
    6MOL    C71 5181   3.117   7.704   5.494 -0.4491  0.5428  0.0118
    6MOL    C72 5182   3.138   7.597   5.573 -0.3321 -0.3435  0.0777
    6MOL    C73 5183   3.281   7.547   5.613  0.2191 -0.0938 -0.0144
    6MOL    C74 5184   3.029   7.545   5.649  0.0099 -0.3945 -0.6802
    6MOL    C75 5185   2.899   7.591   5.619  0.5633  0.7165  0.4356
    6MOL    C76 5186   2.605   7.709   5.677 -0.6634  0.4776 -0.0188
    6MOL    C77 5187   2.485   7.658   5.733 -0.4146  0.4300  0.1765
    6MOL    C78 5188   2.101   7.717   5.594  0.0137  0.0019 -0.1474
    6MOL    C79 5189   1.958   7.747   5.586 -0.1279  0.0965  0.2373
    6MOL    C80 5190   1.585   7.522   5.729  0.4189  0.0222  1.0958
    6MOL    C81 5191   1.465   7.444   5.738 -0.5710 -0.3802  0.0720
    6MOL    H82 5192   1.295   7.289   5.719  0.4122 -1.9011 -1.3158
    6MOL    H83 5193   1.328   7.532   5.436  0.6774  0.5942 -0.1446
    6MOL    H84 5194   1.520   7.671   5.429  0.7008  0.6801  0.8382
    6MOL    H85 5195   1.717   7.785   5.575  1.3634 -0.1467 -1.2581
    6MOL    H86 5196   1.832   7.451   5.702  1.6132 -1.9080  0.2779
    6MOL    H87 5197   2.062   7.408   5.741  1.3658  0.4202 -0.2251
    6MOL    H88 5198   2.280   7.490   5.772  2.2444  0.8948  0.0450
    6MOL    H89 5199   2.330   7.578   5.441  1.5504 -0.4085 -2.2657
    6MOL    H90 5200   2.541   7.630   5.345 -0.9080 -0.0738 -0.0390
    6MOL    H91 5201   2.760   7.775   5.388 -0.6133 -0.9927 -1.2909
    6MOL    H92 5202   2.981   7.824   5.393 -0.0520 -1.4533 -1.1033
    6MOL    H93 5203   3.196   7.753   5.440 -2.0538  2.4410 -0.6674
    6MOL    H94 5204   3.285   7.492   5.707  0.5186  0.6711  0.4273
    6MOL    H95 5205   3.344   7.637   5.612 -1.5744  1.2117  1.3348
    6MOL    H96 5206   3.049   7.475   5.728  0.3587  0.5669  0.0921
    6MOL    H97 5207   2.816   7.539   5.664  0.2963  1.6597  1.0369
    6MOL    H98 5208   2.691   7.729   5.740  0.5070 -1.8138 -0.8076
    6MOL    H99 5209   2.486   7.650   5.841 -2.9432 -2.2891  0.0877
    6MOL   H100 5210   2.181   7.783   5.564  1.0076 -2.2782 -2.6730
    6MOL   H101 5211   1.927   7.843   5.547 -0.0326  0.0418  0.0249
    6MOL   H102 5212   1.652   7.517   5.814  1.2246  3.6342  0.7916
    6MOL   H103 5213   1.457   7.383   5.826  1.6267  0.5104  0.9188
    6MOL   N104 5214   3.345   7.467   5.513 -0.6476 -0.2957  0.0451
    6MOL   C105 5215   3.343   7.327   5.522  0.5788 -0.3177  0.5562
    6MOL   C106 5216   3.453   7.262   5.464 -0.2913  0.7682  0.4320
    6MOL   C107 5217   3.472   7.124   5.478 -0.2635  0.0725  0.3009
    6MOL   C108 5218   3.374   7.053   5.544  1.0673  0.1968  0.3058
    6MOL   N109 5219   3.370   6.912   5.541 -0.0765  0.0915 -0.3405
    6MOL   C110 5220   3.476   6.820   5.566  0.3468  0.5766 -0.0906
    6MOL   C111 5221   3.574   6.866   5.653 -0.4843 -0.0299 -0.1098
    6MOL   C112 5222   3.685   6.788   5.676 -0.1667 -0.0111 -0.0586
    6MOL   C113 5223   3.693   6.657   5.618  0.3229  0.4476 -0.2371
    6MOL   N114 5224   3.809   6.580   5.638 -0.2927 -0.2072 -0.3372
    6MOL   C115 5225   3.824   6.440   5.645 -0.1421  0.5730 -0.4619
    6MOL   C116 5226   3.958   6.390   5.639 -0.1680 -0.6413  0.5565
    6MOL   C117 5227   3.986   6.253   5.649 -0.4096  0.2323 -0.3681
    6MOL   C118 5228   3.882   6.164   5.647 -0.1303  0.4634 -0.1963
    6MOL   N119 5229   3.913   6.027   5.631  0.1143  0.3485  0.5382
    6MOL   C120 5230   3.818   5.935   5.584 -0.0341  0.1540  0.5332
    6MOL   C121 5231   3.766   5.842   5.675 -0.3588 -0.2883 -0.2071
    6MOL   C122 5232   3.662   5.759   5.628  0.7628 -0.2370  0.1670
    6MOL   C123 5233   3.605   5.770   5.503  0.8056 -1.5174  0.2057
    6MOL   C124 5234   3.486   5.685   5.466  0.4550  0.3049 -0.5213
    6MOL   C125 5235   3.656   5.871   5.415 -0.7436 -0.4104 -0.1984
    6MOL   C126 5236   3.769   5.952   5.457 -0.1787 -0.2603  0.0763
    6MOL   C127 5237   3.748   6.210   5.654  0.5797  0.1994 -0.0160
    6MOL   C128 5238   3.718   6.345   5.661  0.0463  0.4147 -0.1137
    6MOL   C129 5239   3.597   6.611   5.532  0.1508 -0.5464  1.0260
    6MOL   C130 5240   3.484   6.695   5.504 -0.1477  0.2162 -0.3885
    6MOL   C131 5241   3.263   7.109   5.609  0.1224  0.0798 -0.1470
    6MOL   C132 5242   3.250   7.253   5.598 -0.2981  0.6146 -0.5961
    6MOL   H133 5243   3.429   7.502   5.468  0.8460 -1.6209  1.7209
    6MOL   H134 5244   3.520   7.327   5.410  0.6853 -0.9015 -0.4129
    6MOL   H135 5245   3.557   7.077   5.433  0.6807  2.0784 -0.0732
    6MOL   H136 5246   3.297   6.880   5.480  0.4905 -0.1551 -0.8926
    6MOL   H137 5247   3.561   6.957   5.709 -1.1199  0.3067 -0.7871
    6MOL   H138 5248   3.762   6.816   5.746  0.9786 -0.6653 -1.0593
    6MOL   H139 5249   3.882   6.631   5.686  1.0527 -1.9039 -0.5493
    6MOL   H140 5250   4.044   6.454   5.624  1.4827 -2.8749  0.2633
    6MOL   H141 5251   4.090   6.225   5.651  0.6289  3.6761 -1.5330
    6MOL   H142 5252   3.955   5.993   5.716  0.3147 -0.9038 -0.0629
    6MOL   H143 5253   3.807   5.841   5.775 -3.1895  1.1922  1.0139
    6MOL   H144 5254   3.605   5.698   5.697  1.0129  0.2830  0.8355
    6MOL   H145 5255   3.458   5.635   5.559  0.9557  0.2364 -0.4063
    6MOL   H146 5256   3.508   5.600   5.402  0.5381  1.0216 -1.4551
    6MOL   H147 5257   3.611   5.884   5.317  1.1943  2.8073 -0.7091
    6MOL   H148 5258   3.810   6.029   5.394  1.7148 -1.2790  0.0260
    6MOL   H149 5259   3.670   6.136   5.661  0.3621  0.3853 -0.4905
    6MOL   H150 5260   3.612   6.365   5.662 -0.1012  0.0733 -3.1301
    6MOL   H151 5261   3.615   6.521   5.476  0.4205  0.4228 -0.4677
    6MOL   H152 5262   3.414   6.662   5.429  0.9879 -2.0428 -0.5199
    6MOL   H153 5263   3.180   7.046   5.638 -1.6956  2.2932 -0.3963
    6MOL   H154 5264   3.167   7.300   5.649 -0.7461 -1.0968  0.3146
    6MOL   N155 5265   3.372   5.761   5.428 -0.0824  0.3057 -0.8648
    6MOL   C156 5266   3.306   5.739   5.307  0.4661  0.3128 -0.6579
    6MOL   C157 5267   3.169   5.759   5.294  0.3545 -0.6224  0.0842
    6MOL   C158 5268   3.106   5.723   5.180 -0.1848 -0.0749  0.1691
    6MOL   C159 5269   3.177   5.669   5.069 -0.3626 -0.0728 -0.1089
    6MOL   N160 5270   3.104   5.618   4.963 -0.4040 -0.4360 -0.3601
    6MOL   C161 5271   3.141   5.546   4.851 -0.6702 -0.8646  0.2351
    6MOL   C162 5272   3.216   5.429   4.874 -0.5820 -0.0920  0.1313
    6MOL   C163 5273   3.256   5.362   4.760  0.2200  0.0895  0.0331
    6MOL   C164 5274   3.223   5.404   4.633 -0.0143 -0.1988  0.0819
    6MOL   N165 5275   3.255   5.321   4.524 -0.2328  0.3522  0.2346
    6MOL   C166 5276   3.374   5.248   4.504 -0.3656  0.7447 -0.0607
    6MOL   C167 5277   3.500   5.301   4.535  0.6202  0.3096  0.0839
    6MOL   C168 5278   3.612   5.224   4.526 -0.1392 -0.3037  0.5570
    6MOL   C169 5279   3.601   5.087   4.507  0.4505  0.2426  0.1330
    6MOL   N170 5280   3.707   4.998   4.536 -0.2693 -0.0461  0.0045
    6MOL   C171 5281   3.837   5.024   4.579 -0.0132  0.4470 -0.0992
    6MOL   C172 5282   3.914   5.127   4.516  0.1352  0.2869  0.6023
    6MOL   C173 5283   4.047   5.148   4.561  0.3682  0.3661  0.4013
    6MOL   C174 5284   4.096   5.076   4.670 -0.5995  0.4229  0.6799
    6MOL   C175 5285   4.243   5.105   4.725  0.1508 -0.9227 -0.5358
    6MOL   C176 5286   4.022   4.978   4.737  0.3971 -0.6867 -0.3289
    6MOL   C177 5287   3.896   4.949   4.686  0.4083 -0.7084  0.3630
    6MOL   C178 5288   3.474   5.033   4.461  0.0486  0.1265 -0.1774
    6MOL   C179 5289   3.364   5.115   4.456 -0.0626  0.3275  0.5639
    6MOL   C180 5290   3.137   5.518   4.612  0.2001  0.8474  0.4621
    6MOL   C181 5291   3.094   5.587   4.725  0.1983  0.3496 -0.1196
    6MOL   C182 5292   3.317   5.668   5.074  0.0877  0.1086 -0.1683
    6MOL   C183 5293   3.375   5.700   5.192 -0.8199  0.2433  0.2088
    6MOL   H184 5294   3.323   5.813   5.499 -1.0175 -1.5496 -0.1200
    6MOL   H185 5295   3.116   5.810   5.373 -0.5981  1.7118 -1.9933
    6MOL   H186 5296   2.999   5.717   5.166  0.0610 -1.0637 -1.5825
    6MOL   H187 5297   3.018   5.671   4.954 -1.3435 -1.4869  1.8460
    6MOL   H188 5298   3.251   5.393   4.969  0.3390  0.6375  0.0787
    6MOL   H189 5299   3.314   5.271   4.769  1.1381  0.7712  1.2758
    6MOL   H190 5300   3.177   5.292   4.466 -1.0765  2.3370  0.3307
    6MOL   H191 5301   3.513   5.403   4.568 -1.9981  1.7965 -3.1706
    6MOL   H192 5302   3.706   5.271   4.551 -0.0654  0.8022 -1.6310
    6MOL   H193 5303   3.691   4.898   4.533  0.6211 -0.1685 -0.8589
    6MOL   H194 5304   3.868   5.179   4.433 -1.1916 -2.3095 -0.3304
    6MOL   H195 5305   4.115   5.209   4.503  3.3092 -3.8987 -0.9406
    6MOL   H196 5306   4.306   5.023   4.692  0.1830 -1.3240  0.4922
    6MOL   H197 5307   4.254   5.086   4.832  3.6797  1.2615 -0.4351
    6MOL   H198 5308   4.052   4.941   4.833 -1.2841 -1.5135 -0.1168
    6MOL   H199 5309   3.836   4.879   4.742  0.0119 -0.1959  0.5815
    6MOL   H200 5310   3.463   4.926   4.455 -1.7965  0.2877  0.0296
    6MOL   H201 5311   3.267   5.072   4.434  0.2493 -0.7338  1.2532
    6MOL   H202 5312   3.101   5.547   4.514 -0.3720 -2.7564 -0.4599
    6MOL   H203 5313   3.023   5.668   4.714  1.0898  0.9983 -1.0913
    6MOL   H204 5314   3.375   5.618   4.999 -2.7993 -1.2952 -1.5587
    6MOL   H205 5315   3.480   5.678   5.203 -0.8351  0.1716  0.2120
    6MOL   N206 5316   4.304   5.236   4.699 -0.6851  0.0668  0.4629
    6MOL   C207 5317   4.269   5.348   4.779  0.0337 -1.0390 -0.7124
    6MOL   C208 5318   4.368   5.448   4.788  0.3923 -0.6400  0.3669
    6MOL   C209 5319   4.348   5.561   4.877 -0.0085 -0.5122  0.4186
    6MOL   C210 5320   4.226   5.562   4.954 -0.7837  0.5592  0.9251
    6MOL   N211 5321   4.210   5.665   5.054 -0.3746  0.2868 -0.0995
    6MOL   C212 5322   4.268   5.794   5.059 -0.0984  0.6420  0.2981
    6MOL   C213 5323   4.279   5.850   5.184  0.2323  0.7030  0.4459
    6MOL   C214 5324   4.316   5.983   5.200 -0.3805  0.2623  0.8993
    6MOL   C215 5325   4.336   6.061   5.082 -0.8848  0.4030 -0.1528
    6MOL   N216 5326   4.349   6.204   5.097 -0.4186 -0.2961  0.3192
    6MOL   C217 5327   4.276   6.298   5.027 -0.0036 -0.1954  0.1748
    6MOL   C218 5328   4.306   6.433   5.042 -0.6105 -0.8132  0.1156
    6MOL   C219 5329   4.227   6.531   4.978  0.1975  0.5813 -0.8401
    6MOL   C220 5330   4.127   6.496   4.890  0.4064 -0.9925  0.3488
    6MOL   N221 5331   4.047   6.601   4.838  0.1906  0.4117 -0.5461
    6MOL   C222 5332   3.968   6.595   4.724 -0.2160  0.7516  0.2752
    6MOL   C223 5333   4.015   6.518   4.613  0.4279 -0.0054 -0.1930
    6MOL   C224 5334   3.939   6.512   4.492  0.0325 -0.0797 -0.5681
    6MOL   C225 5335   3.823   6.593   4.488  0.0495 -0.4133  0.2626
    6MOL   C226 5336   3.751   6.593   4.358 -0.3638 -0.0289  0.6780
    6MOL   C227 5337   3.788   6.684   4.592 -0.0976 -0.2650  0.1424
    6MOL   C228 5338   3.859   6.686   4.714 -0.5236  0.0852  0.4412
    6MOL   C229 5339   4.097   6.360   4.867  0.1197 -0.3657 -0.8632
    6MOL   C230 5340   4.165   6.258   4.937 -0.1450 -0.2864 -0.2815
    6MOL   C231 5341   4.336   5.998   4.955  0.2531 -0.1726  0.1116
    6MOL   C232 5342   4.292   5.868   4.945 -0.4741  0.2835 -0.4556
    6MOL   C233 5343   4.133   5.458   4.944  0.0724  0.2593  0.0218
    6MOL   C234 5344   4.150   5.348   4.861  0.0502  0.3781 -0.3052
    6MOL   H235 5345   4.396   5.243   4.658 -0.6252 -0.1541  0.5549
    6MOL   H236 5346   4.456   5.458   4.726 -0.7926  0.0071 -1.2418
    6MOL   H237 5347   4.425   5.637   4.882  0.0680 -0.4369 -1.6796
    6MOL   H238 5348   4.148   5.635   5.128  1.0334 -0.7842  0.6731
    6MOL   H239 5349   4.255   5.793   5.273  0.0973  2.7576  1.7701
    6MOL   H240 5350   4.320   6.029   5.297 -1.2842  0.7678  0.6977
    6MOL   H241 5351   4.409   6.243   5.168 -0.5340  3.2617 -1.4032
    6MOL   H242 5352   4.385   6.474   5.102  0.3211  1.0375 -2.2858
    6MOL   H243 5353   4.243   6.635   5.002 -1.5246  0.5987  0.3740
    6MOL   H244 5354   4.026   6.673   4.906 -2.1758 -0.5101 -0.2439
    6MOL   H245 5355   4.108   6.463   4.611  0.7237  0.4507  0.9932
    6MOL   H246 5356   3.975   6.450   4.411  2.5050  1.1290 -0.4221
    6MOL   H247 5357   3.652   6.637   4.372 -1.2089 -1.6658 -0.0572
    6MOL   H248 5358   3.731   6.492   4.324  0.7841  0.0258 -0.1503
    6MOL   H249 5359   3.713   6.760   4.576  0.6832  0.4548 -0.1220
    6MOL   H250 5360   3.827   6.744   4.799 -1.0079 -1.8179  1.5934
    6MOL   H251 5361   4.012   6.337   4.804 -1.6357 -0.7115  1.5834
    6MOL   H252 5362   4.135   6.158   4.912  0.8505 -0.6708  0.0273
    6MOL   H253 5363   4.360   6.060   4.869 -0.3640 -0.1720 -0.0598
    6MOL   H254 5364   4.280   5.822   4.848 -0.9726  1.1466 -0.8153
    6MOL   H255 5365   4.036   5.471   4.991 -0.3768 -0.1644 -0.7827
    6MOL   H256 5366   4.066   5.281   4.850 -1.3345  2.0287 -0.0072
    6MOL   N257 5367   3.814   6.674   4.256 -0.1037  0.0428  0.4919
    6MOL   C258 5368   3.802   6.629   4.122 -0.9434 -0.0009 -0.0863
    6MOL   C259 5369   3.913   6.660   4.039 -0.6501  0.4719  0.2765
    6MOL   C260 5370   3.909   6.626   3.904 -1.2034 -0.0567 -0.0312
    6MOL   C261 5371   3.798   6.568   3.847 -0.2717 -0.0540 -0.3834
    6MOL   N262 5372   3.813   6.529   3.716 -0.0542 -0.2584 -0.1831
    6MOL   C263 5373   3.778   6.404   3.667 -0.0994 -0.1147 -0.4724
    6MOL   C264 5374   3.768   6.392   3.533  0.3926  0.4143 -0.2691
    6MOL   C265 5375   3.743   6.271   3.465  0.0503  0.0047 -0.2709
    6MOL   C266 5376   3.708   6.158   3.545 -0.0125 -0.2207  0.3219
    6MOL   N267 5377   3.690   6.026   3.490  0.2682  0.1711  0.0612
    6MOL   C268 5378   3.603   5.931   3.538  0.3485 -0.4378  0.8532
    6MOL   C269 5379   3.477   5.963   3.582  0.2986  1.6193  0.0935
    6MOL   C270 5380   3.400   5.864   3.639 -1.1113  0.5197 -0.0490
    6MOL   C271 5381   3.441   5.726   3.635  0.1802 -0.1118 -0.0602
    6MOL   N272 5382   3.368   5.634   3.716  0.2667 -0.2046  0.3309
    6MOL   C273 5383   3.374   5.634   3.853  0.1651 -0.3309 -0.0945
    6MOL   C274 5384   3.380   5.750   3.927 -0.6271 -0.1335  0.1922
    6MOL   C275 5385   3.402   5.753   4.068  0.4329 -0.4634  1.0654
    6MOL   C276 5386   3.391   5.640   4.141  0.2935 -0.7880 -0.3534
    6MOL   C277 5387   3.399   5.646   4.294  0.4497 -0.2014 -0.1200
    6MOL   C278 5388   3.371   5.514   4.072  0.1606 -0.3849  0.0281
    6MOL   C279 5389   3.368   5.513   3.924 -0.3442 -0.2505 -0.9288
    6MOL   C280 5390   3.569   5.689   3.581  0.9996 -0.4717  0.2713
    6MOL   C281 5391   3.644   5.797   3.529  0.4396  0.2115 -0.0804
    6MOL   C282 5392   3.709   6.171   3.686 -0.1444  0.2698 -0.5662
    6MOL   C283 5393   3.746   6.295   3.747  0.4370 -0.5718  0.3276
    6MOL   C284 5394   3.684   6.535   3.926 -0.3670 -0.4117 -0.1458
    6MOL   C285 5395   3.687   6.571   4.063 -1.0623  0.2009 -0.0716
    6MOL   H286 5396   3.899   6.714   4.293  1.2596 -2.1157 -0.2578
    6MOL   H287 5397   3.999   6.710   4.081 -1.0611  0.6461  0.9231
    6MOL   H288 5398   3.993   6.657   3.844 -1.8502 -1.7413 -1.8829
    6MOL   H289 5399   3.828   6.596   3.642 -0.7099 -1.3999 -1.3694
    6MOL   H290 5400   3.776   6.484   3.478  1.9011  0.4578  0.0161
    6MOL   H291 5401   3.743   6.262   3.357 -1.3391 -0.7184 -0.2198
    6MOL   H292 5402   3.772   5.988   3.445 -0.9478 -0.9509 -1.2273
    6MOL   H293 5403   3.435   6.062   3.572 -2.8963  0.1475 -1.9320
    6MOL   H294 5404   3.301   5.891   3.672 -2.3847 -3.2210 -0.5524
    6MOL   H295 5405   3.368   5.541   3.676 -0.4576 -0.3068  0.5652
    6MOL   H296 5406   3.389   5.851   3.890 -0.8109 -0.0213  0.4518
    6MOL   H297 5407   3.416   5.853   4.108 -0.3358  0.0312  0.1157
    6MOL   H298 5408   3.487   5.587   4.321  1.5058  2.4382  2.4020
    6MOL   H299 5409   3.303   5.608   4.331  0.2850  1.7067  1.4667
    6MOL   H300 5410   3.370   5.423   4.131 -0.2179 -0.4598 -0.0925
    6MOL   H301 5411   3.368   5.416   3.877  1.9548 -0.1317 -1.2318
    6MOL   H302 5412   3.608   5.589   3.592  0.2240 -0.6903  1.0779
    6MOL   H303 5413   3.741   5.777   3.487  0.4241  1.1613 -0.5956
    6MOL   H304 5414   3.688   6.089   3.752 -0.1054  1.6008  1.1474
    6MOL   H305 5415   3.736   6.311   3.853  0.1001 -0.7339  0.3192
    6MOL   H306 5416   3.593   6.489   3.891  0.9555 -2.4118 -1.0805
    6MOL   H307 5417   3.603   6.547   4.127 -1.7397 -0.2757 -1.1052
    6MOL   N308 5418   3.411   5.776   4.351 -0.4729 -0.6429  0.0454
    6MOL   C309 5419   3.410   5.812   4.482  0.2225 -0.5202  0.1810
    6MOL   C310 5420   3.427   5.711   4.582  0.1625  0.0727 -0.9927
    6MOL   C311 5421   3.411   5.750   4.715 -0.2690  0.7770  0.4102
    6MOL   C312 5422   3.380   5.884   4.751 -0.1990 -0.6993 -0.5896
    6MOL   N313 5423   3.360   5.905   4.890  0.3007 -0.4331  0.2206
    6MOL   C314 5424   3.289   6.006   4.950  0.2547 -0.3271 -0.3848
    6MOL   C315 5425   3.166   6.051   4.899 -0.2840  0.3156 -0.6018
    6MOL   C316 5426   3.088   6.140   4.974 -0.6469  0.6374  0.5976
    6MOL   C317 5427   3.117   6.165   5.109  0.6059 -0.2457  0.2690
    6MOL   N318 5428   3.013   6.233   5.182  0.1726  0.7852  0.6426
    6MOL   C319 5429   3.010   6.242   5.320 -0.0893 -0.0077 -0.0497
    6MOL   C320 5430   3.040   6.125   5.403 -0.1725  0.2476  0.1926
    6MOL   C321 5431   3.016   6.119   5.543  0.7044  0.6959 -0.0907
    6MOL   C322 5432   2.973   6.240   5.608 -0.5163 -0.2986 -0.0773
    6MOL   N323 5433   2.987   6.251   5.748 -0.5883 -0.1817  0.3255
    6MOL   C324 5434   2.908   6.320   5.842 -0.5504 -0.3133  0.2453
    6MOL   C325 5435   2.787   6.378   5.804 -0.4416 -0.3037  0.4224
    6MOL   C326 5436   2.715   6.456   5.895  0.5319 -0.3590 -0.1101
    6MOL   C327 5437   2.756   6.472   6.031 -0.9107  0.7781  0.5754
    6MOL   C328 5438   2.680   6.543   6.133  1.0882 -0.0995 -0.3016
    6MOL   C329 5439   2.882   6.417   6.068  1.2513  0.0818 -0.7028
    6MOL   C330 5440   2.952   6.334   5.973  0.1560 -1.2541 -0.1767
    6MOL   C331 5441   2.962   6.359   5.530  0.5807  0.0098  0.1295
    6MOL   C332 5442   2.966   6.356   5.388 -0.7819  0.3387 -0.1012
    6MOL   C333 5443   3.239   6.124   5.161 -0.3138 -0.2306 -0.6801
    6MOL   C334 5444   3.325   6.044   5.080  0.0872 -0.3993 -0.3393
    6MOL   C335 5445   3.371   5.979   4.651 -0.1609 -0.0532 -0.3948
    6MOL   C336 5446   3.399   5.951   4.516  0.0077  0.0359 -0.3158
    6MOL   H337 5447   3.372   5.852   4.298 -0.0100 -1.1097 -0.9742
    6MOL   H338 5448   3.446   5.606   4.565  0.1139 -0.8177  3.5759
    6MOL   H339 5449   3.407   5.674   4.792 -0.2078 -0.5224 -0.8602
    6MOL   H340 5450   3.387   5.840   4.962  0.2254 -1.7163 -0.9023
    6MOL   H341 5451   3.128   6.019   4.803 -1.7903 -1.3054  0.4994
    6MOL   H342 5452   2.991   6.156   4.931 -0.4296 -0.8073 -0.4961
    6MOL   H343 5453   2.951   6.290   5.127 -0.1199  0.0829  0.2482
    6MOL   H344 5454   3.069   6.030   5.361 -0.8971 -0.2753  0.8638
    6MOL   H345 5455   3.033   6.029   5.600  1.9711  0.7832 -0.3119
    6MOL   H346 5456   3.053   6.182   5.780 -3.1167 -1.8654  2.1115
    6MOL   H347 5457   2.774   6.389   5.697  2.1291  1.3692  0.2408
    6MOL   H348 5458   2.625   6.506   5.863 -0.3957 -1.5229  0.6172
    6MOL   H349 5459   2.739   6.547   6.225  0.4851 -3.7821  0.3236
    6MOL   H350 5460   2.589   6.490   6.162  0.0090  2.7009  1.6854
    6MOL   H351 5461   2.917   6.425   6.169  0.4895 -1.4522 -0.2885
    6MOL   H352 5462   3.047   6.289   5.998 -0.4319 -1.0283  2.6581
    6MOL   H353 5463   2.948   6.450   5.585 -2.9269  0.6199 -1.6665
    6MOL   H354 5464   2.953   6.455   5.346 -1.6539  0.6072  0.7733
    6MOL   H355 5465   3.267   6.150   5.262 -0.9184 -0.6751 -0.3886
    6MOL   H356 5466   3.420   6.012   5.121  0.6958  0.1046 -1.3403
    6MOL   H357 5467   3.354   6.083   4.674 -0.2708  0.1447 -1.3359
    6MOL   H358 5468   3.395   6.024   4.437  2.2915  0.9892  0.4218
    6MOL   N359 5469   2.632   6.676   6.091 -0.0510  0.0474 -0.1352
    6MOL   C360 5470   2.704   6.788   6.138  0.3656  0.2233  0.3266
    6MOL   C361 5471   2.846   6.778   6.175 -0.1260 -0.1074  0.0490
    6MOL   C362 5472   2.912   6.881   6.246  0.0304  0.2607 -0.1838
    6MOL   C363 5473   2.843   7.003   6.288 -0.8989  0.0467  0.5319
    6MOL   N364 5474   2.910   7.102   6.356  0.2413  0.0231 -0.1634
    6MOL   C365 5475   2.875   7.192   6.457 -0.8644  0.4060  0.3392
    6MOL   C366 5476   2.959   7.302   6.481 -0.0599  0.3261  0.3738
    6MOL   C367 5477   2.925   7.399   6.579  0.3543 -0.7527  0.3050
    6MOL   C368 5478   2.806   7.390   6.652  0.5540  0.3021  0.0652
    6MOL   N369 5479   2.773   7.481   6.752  0.6376  0.2982  0.1830
    6MOL   C370 5480   2.828   7.610   6.782 -0.1069 -1.0013 -0.3308
    6MOL   C371 5481   2.876   7.695   6.670 -0.1712  0.5488 -0.2451
    6MOL   C372 5482   2.930   7.820   6.697  0.1983  0.2046  0.4045
    6MOL   C373 5483   2.948   7.867   6.828 -0.5352  0.4261 -0.0626
    6MOL   N374 5484   2.993   0.020   6.846  0.0332 -0.1672 -0.4053
    6MOL   C375 5485   3.038   0.087   6.963  0.1946 -0.0145  0.0304
    6MOL   C376 5486   3.169   0.148   6.973  0.0273  0.0297 -0.1556
    6MOL   C377 5487   3.204   0.220   7.083 -0.4329  0.3249 -0.9951
    6MOL   C378 5488   3.113   0.237   7.192 -0.3020  0.0756 -0.2761
    6MOL   C379 5489   3.153   0.320   7.317 -0.2940 -0.5992  0.4616
    6MOL   C380 5490   2.984   0.177   7.181  0.2943  0.5084 -0.3421
    6MOL   C381 5491   2.948   0.102   7.066 -0.1969  0.6332 -0.3940
    6MOL   C382 5492   2.918   7.776   6.934 -0.4500  0.8271 -0.6498
    6MOL   C383 5493   2.853   7.653   6.911 -0.1808  0.3192 -0.0948
    6MOL   C384 5494   2.718   7.280   6.624 -0.1040 -0.6121  0.0916
    6MOL   C385 5495   2.756   7.180   6.527  0.4194 -0.6128 -0.2913
    6MOL   C386 5496   2.706   7.012   6.245  0.2067 -0.0425  0.6879
    6MOL   C387 5497   2.637   6.910   6.182  0.0126  0.2723  0.1057
    6MOL   H388 5498   2.531   6.680   6.102 -0.1548 -2.5210  0.2196
    6MOL   H389 5499   2.909   6.701   6.134  0.1014  0.6542 -1.0542
    6MOL   H390 5500   3.020   6.875   6.253  0.0491 -1.5380 -1.5859
    6MOL   H391 5501   3.009   7.088   6.339  0.2497  0.8211 -0.8098
    6MOL   H392 5502   3.051   7.312   6.426 -0.5148 -2.6143 -1.0047
    6MOL   H393 5503   2.994   7.481   6.587  1.7150 -1.9712  1.2985
    6MOL   H394 5504   2.682   7.474   6.794 -0.0627 -1.5966 -1.5451
    6MOL   H395 5505   2.865   7.668   6.567  0.5418  1.0534 -0.4555
    6MOL   H396 5506   2.957   7.882   6.613 -0.5414  0.9824  0.7319
    6MOL   H397 5507   3.025   0.067   6.762 -0.9527 -1.0496 -1.2942
    6MOL   H398 5508   3.237   0.153   6.889 -0.0954  1.0259 -0.1983
    6MOL   H399 5509   3.300   0.270   7.086 -1.5782  2.5022  2.0526
    6MOL   H400 5510   3.130   0.424   7.295 -1.1606 -0.9745 -0.4116
    6MOL   H401 5511   3.261   0.328   7.325 -0.4694  3.4760 -0.4763
    6MOL   H402 5512   2.906   0.194   7.253  0.0198  1.6742 -0.8969
    6MOL   H403 5513   2.857   0.044   7.060 -0.3678  0.9320 -0.6914
    6MOL   H404 5514   2.943   7.813   7.032 -0.5422  0.2034 -0.3822
    6MOL   H405 5515   2.831   7.586   6.993  0.3183  1.0809  0.6658
    6MOL   H406 5516   2.621   7.273   6.670  0.2406  1.5007  1.2153
    6MOL   H407 5517   2.680   7.107   6.504 -1.8393  2.0669 -1.6713
    6MOL   H408 5518   2.651   7.100   6.275  0.9012  0.5073  0.3602
    6MOL   H409 5519   2.532   6.925   6.162  0.0138 -1.8291 -1.6855
    6MOL   N410 5520   3.101   0.273   7.445 -0.4861 -0.5753  0.1818
    6MOL   C411 5521   3.146   0.162   7.509  0.8487 -0.6517 -0.0074
    6MOL   C412 5522   3.065   0.127   7.611  0.0682 -0.4647 -0.5819
    6MOL   C413 5523   3.092   0.006   7.683 -0.7155  0.0613  0.0454
    6MOL   C414 5524   3.206   7.910   7.642  1.0374  0.2947 -0.1650
    6MOL   N415 5525   3.220   7.790   7.708 -0.2256 -0.0564  0.0434
    6MOL   C416 5526   3.342   7.730   7.746  0.5991  0.6763  0.4494
    6MOL   C417 5527   3.337   7.599   7.798  0.2394  0.2860 -0.1713
    6MOL   C418 5528   3.452   7.531   7.843  0.1663 -0.3210  0.0157
    6MOL   C419 5529   3.574   7.602   7.828 -0.3254  0.8595  0.3603
    6MOL   N420 5530   3.695   7.538   7.856 -1.0822  0.5683  0.2795
    6MOL   C421 5531   3.715   7.411   7.916  0.6764 -0.4669  0.3001
    6MOL   C422 5532   3.643   7.370   0.050  0.5782 -0.4658 -0.3806
    6MOL   C423 5533   3.651   7.233   0.094 -0.3390  0.4391  0.2233
    6MOL   C424 5534   3.756   7.152   0.046 -0.6817  0.1561  1.0658
    6MOL   N425 5535   3.775   7.023   0.094  0.3090  0.1680 -0.1963
    6MOL   C426 5536   3.731   6.974   0.213  0.4636  0.2695 -0.1020
    6MOL   C427 5537   3.664   6.850   0.213 -0.6366  0.4889  0.5597
    6MOL   C428 5538   3.615   6.806   0.336 -0.3526 -0.1967 -0.1019
    6MOL   C429 5539   3.618   6.877   0.456 -0.8907 -0.1064  0.5696
    6MOL   C430 5540   3.551   6.822   0.587 -0.1469  0.2754  0.9887
    6MOL   C431 5541   3.680   7.009   0.450  0.9969  0.7133  0.1366
    6MOL   C432 5542   3.749   7.048   0.333 -0.2849 -0.1823 -0.5441
    6MOL   C433 5543   3.827   7.196   7.916 -0.3918  0.1551 -0.8821
    6MOL   C434 5544   3.806   7.318   7.862 -0.3504 -0.5807 -0.2741
    6MOL   C435 5545   3.581   7.734   7.781 -0.0091 -0.0841  0.3446
    6MOL   C436 5546   3.462   7.803   7.740  0.0057 -0.5353 -0.3110
    6MOL   C437 5547   3.288   7.952   7.540  0.5953  0.0789 -0.0961
    6MOL   C438 5548   3.257   0.086   7.469  0.6575 -0.2114 -0.1261
    6MOL   H439 5549   3.010   0.314   7.460 -1.1447 -2.0964  0.4931
    6MOL   H440 5550   2.979   0.190   7.625 -1.0758 -2.0006 -0.5205
    6MOL   H441 5551   3.017   7.964   7.757 -2.0273  1.4952 -0.8079
    6MOL   H442 5552   3.135   7.744   7.735 -2.0097  2.8992 -0.3546
    6MOL   H443 5553   3.240   7.551   7.796 -0.1771  0.9171  2.6703
    6MOL   H444 5554   3.434   7.427   7.868 -0.3749 -0.0755  0.6304
    6MOL   H445 5555   3.776   7.577   7.809 -1.3174 -0.6626 -1.1872
    6MOL   H446 5556   3.583   7.450   0.091 -1.3647 -1.8552 -0.4390
    6MOL   H447 5557   3.608   7.212   0.191 -0.6304  3.0248  0.6858
    6MOL   H448 5558   3.757   6.960   0.016 -1.2967 -0.5376  0.7130
    6MOL   H449 5559   3.660   6.801   0.117 -2.4491  0.0267  0.8468
    6MOL   H450 5560   3.586   6.702   0.344 -1.6243  0.1709  0.1337
    6MOL   H451 5561   3.547   6.714   0.576  1.9562  0.3288 -0.5114
    6MOL   H452 5562   3.450   6.861   0.598 -0.0433  0.6542  0.6118
    6MOL   H453 5563   3.690   7.065   0.542 -1.1242  1.1079  0.1519
    6MOL   H454 5564   3.802   7.142   0.334 -0.4927 -0.0637 -0.6826
    6MOL   H455 5565   3.905   7.133   7.875  0.3466  2.0926 -2.5501
    6MOL   H456 5566   3.871   7.340   7.778 -1.6014  2.7444 -0.4608
    6MOL   H457 5567   3.673   7.788   7.767 -0.3918  0.0927 -1.6116
    6MOL   H458 5568   3.473   7.909   7.721  1.5714 -0.8120 -1.0725
    6MOL   H459 5569   3.376   7.893   7.521  0.0277 -0.0671 -2.4374
    6MOL   H460 5570   3.322   0.117   7.389  2.0958  0.4280  1.2628
    6MOL   N461 5571   3.619   6.855   0.710 -0.2079  0.1047  0.3210
    6MOL   C462 5572   3.581   6.787   0.828  0.7371 -0.1945 -0.1530
    6MOL   C463 5573   3.445   6.804   0.875 -0.0845 -0.0167  0.3404
    6MOL   C464 5574   3.408   6.737   0.995 -0.0138 -0.0175 -0.1210
    6MOL   C465 5575   3.498   6.648   1.057  0.5603 -0.8482  0.3284
    6MOL   N466 5576   3.461   6.578   1.177 -0.3596  0.0989 -0.4891
    6MOL   C467 5577   3.469   6.440   1.204  0.2047 -0.5331 -0.4169
    6MOL   C468 5578   3.474   6.389   1.337  0.1082  0.1808 -0.5481
    6MOL   C469 5579   3.468   6.249   1.366 -0.0370 -0.2426 -0.3517
    6MOL   C470 5580   3.479   6.156   1.265  0.1076 -0.4995  0.1282
    6MOL   N471 5581   3.500   6.017   1.284  0.5633 -0.5123 -0.2016
    6MOL   C472 5582   3.588   5.955   1.374  0.5115  0.3161 -0.3566
    6MOL   C473 5583   3.589   5.816   1.362 -0.0765  0.4644 -0.4908
    6MOL   C474 5584   3.674   5.743   1.441 -0.5455 -0.3237  0.6221
    6MOL   C475 5585   3.757   5.805   1.532 -0.3229 -0.3671  0.2379
    6MOL   N476 5586   3.838   5.734   1.621 -0.0845  0.2050 -0.3565
    6MOL   C477 5587   3.815   5.600   1.664  0.5241  0.5088 -0.2294
    6MOL   C478 5588   3.686   5.547   1.692 -0.5113 -0.8414 -0.3993
    6MOL   C479 5589   3.683   5.406   1.720  0.2315  0.2866  0.5536
    6MOL   C480 5590   3.804   5.330   1.724 -0.2243  0.2137  0.1051
    6MOL   C481 5591   3.806   5.183   1.764  0.8557 -0.4289 -0.0687
    6MOL   C482 5592   3.928   5.387   1.691 -0.0584  0.1884 -0.6102
    6MOL   C483 5593   3.930   5.521   1.661  0.1208 -0.4331  0.2506
    6MOL   C484 5594   3.774   5.942   1.531  0.1713  0.0453  0.4335
    6MOL   C485 5595   3.689   6.019   1.450  0.2725  1.0051  0.2861
    6MOL   C486 5596   3.476   6.202   1.136 -0.4516  0.2860  0.1273
    6MOL   C487 5597   3.474   6.340   1.104 -0.7719  0.0367 -0.1253
    6MOL   C488 5598   3.625   6.629   1.006 -0.3620 -0.2942  0.2895
    6MOL   C489 5599   3.669   6.698   0.890  0.7398 -0.1469  0.1010
    6MOL   H490 5600   3.719   6.846   0.698 -0.3244 -0.8765 -0.0149
    6MOL   H491 5601   3.371   6.860   0.819 -1.5584 -2.9671 -0.7403
    6MOL   H492 5602   3.306   6.752   1.024  1.0991  3.4669  2.3144
    6MOL   H493 5603   3.436   6.638   1.254 -1.9840 -0.2041 -0.7659
    6MOL   H494 5604   3.477   6.456   1.422 -2.1724 -1.0835  0.5712
    6MOL   H495 5605   3.452   6.220   1.469  1.6945 -0.2914 -0.0747
    6MOL   H496 5606   3.475   5.955   1.209 -0.3173  0.3303 -0.6154
    6MOL   H497 5607   3.520   5.754   1.307 -1.7552  1.4375  0.4783
    6MOL   H498 5608   3.671   5.635   1.444  1.1679 -0.4933 -2.0888
    6MOL   H499 5609   3.928   5.769   1.650  1.3571 -1.0545 -3.1646
    6MOL   H500 5610   3.593   5.601   1.679  0.3894  0.4314 -1.7721
    6MOL   H501 5611   3.582   5.371   1.737  0.0319 -0.0933 -1.3757
    6MOL   H502 5612   3.846   5.172   1.865  0.6654  0.7604  0.1374
    6MOL   H503 5613   3.880   5.125   1.708  0.5379 -2.3183  1.4220
    6MOL   H504 5614   4.017   5.328   1.706 -0.4861 -0.1411  0.7892
    6MOL   H505 5615   4.024   5.566   1.633 -0.6279  1.3934  0.6215
    6MOL   H506 5616   3.848   5.984   1.597 -0.4373 -1.0081  1.8156
    6MOL   H507 5617   3.695   6.127   1.450  1.6967  0.9321 -0.4700
    6MOL   H508 5618   3.475   6.124   1.062  0.4184 -0.1071  0.5313
    6MOL   H509 5619   3.474   6.372   1.001 -1.6160 -2.1258 -0.8210
    6MOL   H510 5620   3.687   6.551   1.048  0.2914 -0.5691 -1.1236
    6MOL   H511 5621   3.772   6.679   0.866  0.8299 -3.2462  2.6429
    6MOL   N512 5622   3.678   5.116   1.752 -0.0658 -0.1078 -0.1355
    6MOL   C513 5623   3.620   5.092   1.625 -0.4410 -0.6602  0.4649
    6MOL   C514 5624   3.534   4.986   1.618  0.7203  0.2522 -0.4942
    6MOL   C515 5625   3.447   4.968   1.507 -0.0082  0.9372  0.4671
    6MOL   C516 5626   3.462   5.054   1.396 -0.4016  0.0458 -0.3333
    6MOL   N517 5627   3.363   5.051   1.294 -0.1607  0.2371 -0.3587
    6MOL   C518 5628   3.380   5.083   1.162 -0.3666  1.3570  0.4881
    6MOL   C519 5629   3.500   5.077   1.097  0.7031  0.3084 -0.1843
    6MOL   C520 5630   3.513   5.086   0.961  0.0539  0.1264 -0.1958
    6MOL   C521 5631   3.398   5.124   0.882  0.0070 -0.3149 -0.2811
    6MOL   N522 5632   3.419   5.158   0.750 -0.0658 -0.2840  0.2165
    6MOL   C523 5633   3.341   5.241   0.675 -0.4079 -0.2571 -0.8131
    6MOL   C524 5634   3.265   5.191   0.567 -0.1732  0.2120 -0.0377
    6MOL   C525 5635   3.196   5.277   0.479 -0.1063 -0.4692  0.5232
    6MOL   C526 5636   3.199   5.417   0.508 -0.6945  0.3531  0.8684
    6MOL   N527 5637   3.127   5.506   0.426  0.2323 -0.0685 -0.0859
    6MOL   C528 5638   3.079   5.640   0.452  0.1751  0.1658  0.2481
    6MOL   C529 5639   3.059   5.688   0.582 -0.0978 -0.2370  0.4727
    6MOL   C530 5640   3.001   5.811   0.607  0.6106 -0.0073  0.1554
    6MOL   C531 5641   2.960   5.891   0.499  0.7314 -0.0926 -0.2635
    6MOL   C532 5642   2.890   6.019   0.535  0.3912 -0.5743 -0.2638
    6MOL   C533 5643   2.974   5.841   0.367 -0.5064  0.1817  0.1728
    6MOL   C534 5644   3.027   5.713   0.340 -0.2009  0.0059  0.6457
    6MOL   C535 5645   3.279   5.465   0.614 -0.2696 -0.2924  0.2845
    6MOL   C536 5646   3.347   5.378   0.698  0.1170 -0.5057  0.2355
    6MOL   C537 5647   3.272   5.132   0.945  0.2505  0.3981  0.1734
    6MOL   C538 5648   3.259   5.104   1.087 -0.4878 -0.6212  0.4708
    6MOL   C539 5649   3.561   5.152   1.399  0.5163  0.2295  0.4293
    6MOL   C540 5650   3.641   5.172   1.509 -0.0784  0.1510 -0.3788
    6MOL   H541 5651   3.669   5.033   1.810 -0.1246  0.5164  0.7618
    6MOL   H542 5652   3.522   4.922   1.705 -1.3807  1.9618  0.5439
    6MOL   H543 5653   3.376   4.886   1.505 -0.8532  1.6967 -1.0750
    6MOL   H544 5654   3.285   4.988   1.308  0.1788  0.2647  1.8072
    6MOL   H545 5655   3.592   5.063   1.151 -0.1968 -0.7082  1.1201
    6MOL   H546 5656   3.613   5.079   0.920 -0.2256  0.9741 -1.0646
    6MOL   H547 5657   3.515   5.189   0.742 -0.4091  1.0370  1.0730
    6MOL   H548 5658   3.262   5.083   0.554 -1.1797  0.3360 -0.9376
    6MOL   H549 5659   3.137   5.235   0.398 -0.4659  0.9929  0.0241
    6MOL   H550 5660   3.104   5.473   0.333  0.2471  0.1240 -0.1600
    6MOL   H551 5661   3.100   5.648   0.674  1.8030  0.2483 -0.1282
    6MOL   H552 5662   2.999   5.859   0.704 -0.3651  1.2310 -0.4666
    6MOL   H553 5663   2.930   6.058   0.629 -0.4472 -0.1904 -0.0586
    6MOL   H554 5664   2.785   5.998   0.557  1.0747 -2.0609  1.6918
    6MOL   H555 5665   2.944   5.906   0.285 -0.9913 -0.2532 -0.0018
    6MOL   H556 5666   3.042   5.680   0.239  0.8708  2.0712  0.0939
    6MOL   H557 5667   3.293   5.570   0.635  0.4342 -0.2978 -0.1447
    6MOL   H558 5668   3.395   5.427   0.781 -0.4590 -0.9748  0.8512
    6MOL   H559 5669   3.185   5.154   0.884 -1.6584 -1.8660  2.0052
    6MOL   H560 5670   3.172   5.107   1.149 -0.7886 -0.7158  0.0550
    6MOL   H561 5671   3.580   5.224   1.322 -0.4314  0.5027  0.4409
    6MOL   H562 5672   3.705   5.259   1.509 -0.5482  0.5071  0.9764
    6MOL   N563 5673   2.902   6.114   0.419  0.4937 -0.1442 -0.1749
    6MOL   C564 5674   2.845   6.235   0.421  0.0302  0.9772 -0.2998
    6MOL   C565 5675   2.892   6.334   0.334  0.2169 -0.3999  0.4079
    6MOL   C566 5676   2.830   6.461   0.325 -0.0544  1.6018 -1.1015
    6MOL   C567 5677   2.718   6.482   0.413  0.0146 -1.0475  0.1618
    6MOL   N568 5678   2.638   6.592   0.410  0.6161  0.0160 -0.4791
    6MOL   C569 5679   2.573   6.661   0.305  0.4226  1.7842 -0.7499
    6MOL   C570 5680   2.468   6.750   0.338 -0.8670 -0.1794  0.6790
    6MOL   C571 5681   2.389   6.807   0.238  0.3786  0.4388 -0.3400
    6MOL   C572 5682   2.419   6.784   0.103 -0.7711  0.5929  0.8328
    6MOL   N573 5683   2.342   6.852   0.008  0.2052  0.4585 -0.3535
    6MOL   C574 5684   2.378   6.890   7.859 -0.3934  0.1825  0.4108
    6MOL   C575 5685   2.509   6.922   7.822  0.9836  0.1332  0.0409
    6MOL   C576 5686   2.542   6.955   7.690 -0.4633  0.1302  0.5682
    6MOL   C577 5687   2.443   6.955   7.593 -1.0977  0.8225  0.4093
    6MOL   N578 5688   2.466   6.997   7.460 -0.8239  0.5100  0.4341
    6MOL   C579 5689   2.516   7.120   7.408  0.3679  0.4274  0.0459
    6MOL   C580 5690   2.542   7.229   7.491  0.0333 -0.0388 -0.0517
    6MOL   C581 5691   2.584   7.352   7.433 -0.1612 -0.1335 -0.3408
    6MOL   C582 5692   2.575   7.366   7.292  0.2585  0.3679  0.0683
    6MOL   C583 5693   2.594   7.501   7.229  0.3564  0.6652  0.3207
    6MOL   C584 5694   2.547   7.252   7.205  0.0254 -0.3296  0.7614
    6MOL   C585 5695   2.512   7.133   7.269  0.4807  0.4530  0.0048
    6MOL   C586 5696   2.310   6.924   7.633 -0.4861  0.1470  0.3546
    6MOL   C587 5697   2.276   6.890   7.763  0.4419  0.2817 -0.7739
    6MOL   C588 5698   2.519   6.694   0.066  0.1644 -0.1917 -0.4855
    6MOL   C589 5699   2.592   6.630   0.168 -0.2442  0.2684 -0.2625
    6MOL   C590 5700   2.679   6.391   0.512  0.5725 -0.0749 -0.2105
    6MOL   C591 5701   2.737   6.259   0.511 -0.1646 -0.0369  0.3973
    6MOL   H592 5702   2.990   6.094   0.374  1.0961 -0.3231  1.0327
    6MOL   H593 5703   2.973   6.307   0.267  0.4881  1.0993  0.1004
    6MOL   H594 5704   2.865   6.535   0.255  0.9805  1.4097 -0.7977
    6MOL   H595 5705   2.630   6.646   0.495 -0.4817  0.3842 -0.8092
    6MOL   H596 5706   2.440   6.771   0.441 -0.9510  0.6517  0.4858
    6MOL   H597 5707   2.309   6.876   0.260 -0.2359 -0.2652 -0.3462
    6MOL   H598 5708   2.253   6.881   0.047  0.8524  0.2717  1.3011
    6MOL   H599 5709   2.595   6.928   7.887 -0.7952 -1.3063  2.6202
    6MOL   H600 5710   2.644   6.988   7.672 -0.9880  1.4439 -0.0874
    6MOL   H601 5711   2.406   6.950   7.394 -0.3294  1.1277 -0.4645
    6MOL   H602 5712   2.541   7.204   7.596 -0.6190  1.0899  0.2085
    6MOL   H603 5713   2.600   7.437   7.497 -0.7057  0.1699 -0.6045
    6MOL   H604 5714   2.617   7.488   7.123 -0.6358 -1.7143  0.3645
    6MOL   H605 5715   2.679   7.549   7.279  0.6783  0.3645  0.0678
    6MOL   H606 5716   2.537   7.261   7.098 -1.9091  0.8389  1.0230
    6MOL   H607 5717   2.477   7.052   7.206  1.5532 -0.3465  0.4432
    6MOL   H608 5718   2.230   6.911   7.562 -0.6174  1.7153  0.1930
    6MOL   H609 5719   2.178   6.851   7.787  0.5414 -1.2322 -2.7396
    6MOL   H610 5720   2.542   6.676   7.944 -2.1465 -0.3454 -0.9885
    6MOL   H611 5721   2.670   6.560   0.141 -0.0714  0.1514  0.5348
    6MOL   H612 5722   2.597   6.402   0.581 -1.1756 -1.6333 -2.0114
    6MOL   H613 5723   2.680   6.180   0.557 -0.6449 -0.8097 -1.5107
    6MOL   N614 5724   2.489   7.594   7.253  0.7773  0.1314  0.0991
    6MOL   C615 5725   2.481   7.713   7.184  0.6618 -0.2799  0.0649
    6MOL   C616 5726   2.360   7.784   7.199 -0.2420  0.3405  0.8653
    6MOL   C617 5727   2.346   7.911   7.142  0.0429  0.1589 -0.0739
    6MOL   C618 5728   2.449   7.965   7.064  0.7288  0.6190  1.0609
    6MOL   N619 5729   2.440   0.110   7.012 -0.5672 -0.1601 -0.3196
    6MOL   C620 5730   2.408   0.227   7.081 -0.1232  0.3008  0.2597
    6MOL   C621 5731   2.281   0.243   7.134  0.2204 -0.1332  0.2337
    6MOL   C622 5732   2.250   0.354   7.222 -0.5582 -0.4433  0.4106
    6MOL   C623 5733   2.356   0.438   7.260  0.2102  0.0751 -0.8089
    6MOL   N624 5734   2.331   0.536   7.359 -0.2161  0.1150  0.2964
    6MOL   C625 5735   2.322   0.503   7.495  0.1885 -0.6493  0.0742
    6MOL   C626 5736   2.308   0.609   7.587 -0.2517  0.4247  0.1520
    6MOL   C627 5737   2.325   0.588   7.726  0.5643 -0.3842  0.2784
    6MOL   C628 5738   2.337   0.459   7.775  0.3312 -0.4838 -0.5036
    6MOL   N629 5739   2.346   0.441   7.919  0.4370  0.0854 -0.4351
    6MOL   C630 5740   2.346   0.317   0.004 -0.2497 -0.5478 -0.0664
    6MOL   C631 5741   2.428   0.298   0.120 -0.2008  0.2788 -0.4444
    6MOL   C632 5742   2.420   0.180   0.193 -0.7295 -0.7822 -0.4883
    6MOL   C633 5743   2.340   0.072   0.159 -0.2120 -0.3402  0.4869
    6MOL   C634 5744   2.354   7.923   0.238 -0.2947 -0.3913 -0.2117
    6MOL   C635 5745   2.267   0.084   0.042 -0.6547  0.0214 -0.0239
    6MOL   C636 5746   2.263   0.206   7.948 -0.5290 -0.0689  0.0365
    6MOL   C637 5747   2.351   0.350   7.682 -0.1118  0.3502  0.3457
    6MOL   C638 5748   2.345   0.375   7.543  0.0618 -0.2021 -0.8626
    6MOL   C639 5749   2.487   0.426   7.204 -0.6783  0.4134  0.5113
    6MOL   C640 5750   2.510   0.318   7.112  0.0402  0.1305 -0.4639
    6MOL   C641 5751   2.573   7.896   7.053  0.2317  0.3810 -0.6652
    6MOL   C642 5752   2.591   7.769   7.112 -0.1530  0.2479  0.2684
    6MOL   H643 5753   2.403   7.543   7.263  1.5152 -1.2114 -0.2814
    6MOL   H644 5754   2.279   7.748   7.261 -0.7339 -0.2958 -0.1324
    6MOL   H645 5755   2.251   7.963   7.149 -1.1164 -1.4406 -2.8816
    6MOL   H646 5756   2.514   0.123   6.944 -1.6633  0.7820 -1.3573
    6MOL   H647 5757   2.208   0.172   7.098  2.1782 -2.0557 -0.0349
    6MOL   H648 5758   2.153   0.368   7.268 -1.9322  0.9094 -2.7339
    6MOL   H649 5759   2.387   0.619   7.349 -0.3314  0.1990  0.3476
    6MOL   H650 5760   2.289   0.705   7.541 -0.1791 -0.5127 -1.9183
    6MOL   H651 5761   2.322   0.671   7.796 -2.4003  1.7393 -2.2314
    6MOL   H652 5762   2.396   0.505   7.980 -1.9880  0.6926  0.9554
    6MOL   H653 5763   2.502   0.368   0.155 -0.2807  0.5560 -0.8174
    6MOL   H654 5764   2.478   0.171   0.284 -4.2572 -1.8150  1.7679
    6MOL   H655 5765   2.450   7.879   0.209 -0.0702 -0.1255  0.1203
    6MOL   H656 5766   2.281   7.855   0.195 -0.5399 -0.1450 -0.1860
    6MOL   H657 5767   2.199   0.006   0.011 -0.2966 -1.1816  2.1042
    6MOL   H658 5768   2.194   0.208   7.865  1.5329  1.2502 -1.7130
    6MOL   H659 5769   2.360   0.248   7.717 -1.4010  0.5177  1.1615
    6MOL   H660 5770   2.331   0.297   7.469 -2.7273  0.1894 -0.7975
    6MOL   H661 5771   2.566   0.495   7.228  1.4531 -1.0199 -1.9835
    6MOL   H662 5772   2.609   0.291   7.078  1.3228  0.0677  3.0430
    6MOL   H663 5773   2.656   7.938   6.998 -0.2249  0.0803 -1.6057
    6MOL   H664 5774   2.688   7.723   7.117  0.2501  1.0180 -0.2530
    6MOL   N665 5775   2.339   7.946   0.381 -0.0907  0.2115  0.6343
    6MOL   C666 5776   2.349   7.838   0.468 -0.1060 -0.5325 -0.0471
    6MOL   C667 5777   2.248   7.805   0.564 -0.1589 -0.4421 -0.4848
    6MOL   C668 5778   2.261   7.696   0.645 -0.0408 -0.2814 -0.5277
    6MOL   C669 5779   2.367   7.608   0.635 -0.2026  0.2221 -0.5139
    6MOL   N670 5780   2.382   7.498   0.722 -0.2305  0.7093  0.4845
    6MOL   C671 5781   2.313   7.376   0.703 -0.1366  0.6706  0.4413
    6MOL   C672 5782   2.364   7.255   0.756  0.5600  0.3526  0.0729
    6MOL   C673 5783   2.285   7.138   0.776  0.1545 -0.2529  0.3066
    6MOL   C674 5784   2.154   7.135   0.731 -0.6786 -0.0012 -0.2800
    6MOL   N675 5785   2.063   7.029   0.748  0.2067 -0.9326  0.0137
    6MOL   C676 5786   2.077   6.897   0.790 -0.7065 -0.2405 -0.5446
    6MOL   C677 5787   1.971   6.835   0.845 -0.2986  0.9336 -0.1093
    6MOL   C678 5788   1.991   6.702   0.899 -0.9049  0.5149 -0.0950
    6MOL   C679 5789   2.108   6.626   0.882  0.0241 -0.3231  0.2961
    6MOL   N680 5790   2.114   6.496   0.915  0.2230  0.5569  0.1301
    6MOL   C681 5791   2.191   6.400   0.856  0.3230  0.1308  0.2472
    6MOL   C682 5792   2.244   6.410   0.724  0.5469  0.0743  0.1964
    6MOL   C683 5793   2.335   6.309   0.683 -0.3258  0.2625 -0.8466
    6MOL   C684 5794   2.367   6.198   0.762 -0.5836  0.0867 -0.2033
    6MOL   C685 5795   2.446   6.077   0.717 -0.6965  0.1134 -0.1196
    6MOL   C686 5796   2.309   6.188   0.891  0.0627 -0.1613  0.9218
    6MOL   C687 5797   2.223   6.287   0.938  0.1288  0.5142  0.4368
    6MOL   C688 5798   2.214   6.699   0.815  0.3025 -0.1025 -0.1651
    6MOL   C689 5799   2.198   6.835   0.777 -0.9869  0.3988 -0.8999
    6MOL   C690 5800   2.104   7.250   0.667  0.3724  0.1889 -0.1285
    6MOL   C691 5801   2.180   7.367   0.653  0.1382  0.0642  0.3744
    6MOL   C692 5802   2.458   7.624   0.528  0.0719  0.1723 -0.8452
    6MOL   C693 5803   2.445   7.738   0.445 -0.1337  0.5753  0.9436
    6MOL   H694 5804   2.274   0.035   0.411 -0.5270  0.0501  0.0898
    6MOL   H695 5805   2.168   7.878   0.569  1.2034  1.0421 -0.2940
    6MOL   H696 5806   2.183   7.690   0.720 -0.0974  1.2116 -0.4536
    6MOL   H697 5807   2.474   7.489   0.760 -0.0371 -1.3236 -0.3935
    6MOL   H698 5808   2.467   7.246   0.788  1.0849  1.4359 -1.2752
    6MOL   H699 5809   2.337   7.058   0.827  0.1135 -0.8872 -0.6260
    6MOL   H700 5810   1.970   7.058   0.720  1.3497  1.2463 -1.7271
    6MOL   H701 5811   1.879   6.891   0.847 -0.7655  0.2344 -1.4521
    6MOL   H702 5812   1.903   6.660   0.946 -2.4391  2.9434 -0.7443
    6MOL   H703 5813   2.052   6.466   0.989  1.7143  2.2303  2.1408
    6MOL   H704 5814   2.216   6.486   0.652  2.1730  1.1163  0.6511
    6MOL   H705 5815   2.380   6.325   0.587  1.2054  0.8842 -0.0522
    6MOL   H706 5816   2.465   6.088   0.610  0.6229  1.7526  0.2493
    6MOL   H707 5817   2.379   5.994   0.735  1.2856 -0.9110  3.0148
    6MOL   H708 5818   2.345   6.105   0.949  1.3228 -1.2198 -1.2765
    6MOL   H709 5819   2.178   6.270   1.035 -2.8106 -0.3238 -1.0410
    6MOL   H710 5820   2.308   6.654   0.786  0.4364  0.4920 -0.6689
    6MOL   H711 5821   2.281   6.867   0.716  2.0750 -2.6717  1.4567
    6MOL   H712 5822   2.006   7.247   0.623  0.7378 -0.4163 -0.9007
    6MOL   H713 5823   2.140   7.449   0.595  2.1159 -0.8811 -2.4820
    6MOL   H714 5824   2.538   7.554   0.513  0.5112 -0.0438  2.2794
    6MOL   H715 5825   2.526   7.751   0.375 -0.8555  2.0065  0.3498
    6MOL   N716 5826   2.580   6.069   0.782 -0.0424  0.4141 -0.5466
    6MOL   C717 5827   2.636   5.938   0.802  0.2345  0.0894 -0.6437
    6MOL   C718 5828   2.722   5.915   0.914  0.1873  0.2205 -0.1183
    6MOL   C719 5829   2.766   5.785   0.942 -0.1784 -0.4947 -0.3681
    6MOL   C720 5830   2.739   5.681   0.854  0.0541  0.2916  0.5337
    6MOL   N721 5831   2.789   5.548   0.886  0.3880  0.3133  0.5163
    6MOL   C722 5832   2.884   5.517   0.986  0.1066  0.3115 -0.1328
    6MOL   C723 5833   3.011   5.474   0.935  0.4864  0.3218 -0.3223
    6MOL   C724 5834   3.109   5.449   1.033 -0.3137 -0.4560 -0.4922
    6MOL   C725 5835   3.082   5.460   1.168  0.2841  0.3977 -0.7496
    6MOL   N726 5836   3.190   5.436   1.253  0.0075 -0.2017 -0.8000
    6MOL   C727 5837   3.231   5.518   1.360 -0.1187 -0.3808 -0.3078
    6MOL   C728 5838   3.299   5.464   1.470  0.0418 -0.7335  0.3102
    6MOL   C729 5839   3.324   5.540   1.590  0.1880  0.8188  0.2068
    6MOL   C730 5840   3.302   5.678   1.597  0.3896  0.1733 -0.2312
    6MOL   N731 5841   3.331   5.764   1.700  0.1338  0.1665  0.0635
    6MOL   C732 5842   3.338   5.742   1.837  0.6469  0.1297  0.0128
    6MOL   C733 5843   3.266   5.835   1.919  0.2437  0.3445 -0.0272
    6MOL   C734 5844   3.277   5.834   2.054 -0.3069  0.7035 -0.2965
    6MOL   C735 5845   3.359   5.739   2.115 -0.4912  0.3218 -0.5395
    6MOL   C736 5846   3.378   5.754   2.261 -0.1694  0.0925 -0.6521
    6MOL   C737 5847   3.421   5.637   2.035  0.8247  0.3255 -0.1637
    6MOL   C738 5848   3.406   5.639   1.895 -0.0253  0.0809 -0.1558
    6MOL   C739 5849   3.248   5.732   1.481 -0.0846  0.1310 -0.0950
    6MOL   C740 5850   3.208   5.655   1.370 -0.7959  0.0596 -0.2231
    6MOL   C741 5851   2.960   5.510   1.212 -0.2215  0.6557  0.0421
    6MOL   C742 5852   2.849   5.528   1.120  0.3137  0.3727  0.2024
    6MOL   C743 5853   2.649   5.703   0.749  0.3468  0.2433 -0.0444
    6MOL   C744 5854   2.604   5.832   0.716  0.0229  0.1844 -0.8299
    6MOL   H745 5855   2.612   6.149   0.834  1.1195 -0.0807 -0.4872
    6MOL   H746 5856   2.740   5.995   0.984 -1.4255  0.3951  0.1171
    6MOL   H747 5857   2.830   5.769   1.028 -2.6959 -1.2408  1.3946
    6MOL   H748 5858   2.754   5.472   0.831  0.2741  0.4630  0.3821
    6MOL   H749 5859   3.035   5.467   0.830  0.7110 -0.1439 -0.2417
    6MOL   H750 5860   3.208   5.419   1.002 -0.3591 -0.3047 -0.7919
    6MOL   H751 5861   3.233   5.345   1.247  0.1639 -0.2844  1.1298
    6MOL   H752 5862   3.320   5.358   1.468 -3.6107 -1.4939 -0.9293
    6MOL   H753 5863   3.375   5.494   1.673 -0.5222  0.1139  0.2621
    6MOL   H754 5864   3.332   5.862   1.676 -0.4399  0.8015  2.4980
    6MOL   H755 5865   3.198   5.915   1.890  1.3694  1.0945 -0.6185
    6MOL   H756 5866   3.230   5.907   2.119  2.0753 -0.4888  2.8977
    6MOL   H757 5867   3.289   5.791   2.312  0.1371 -1.9679  1.4956
    6MOL   H758 5868   3.451   5.832   2.279 -1.8599  1.3701  0.7991
    6MOL   H759 5869   3.479   5.560   2.084  0.7258  0.4191  0.1043
    6MOL   H760 5870   3.464   5.563   1.844  0.9687  1.3642 -0.9724
    6MOL   H761 5871   3.239   5.838   1.463 -0.9718 -0.0458 -0.7587
    6MOL   H762 5872   3.166   5.698   1.280 -1.4361 -1.8572 -0.8655
    6MOL   H763 5873   2.937   5.531   1.315  0.3480  0.8304  0.1368
    6MOL   H764 5874   2.752   5.561   1.154  0.6261  0.4007  1.0862
    6MOL   H765 5875   2.616   5.618   0.691 -0.4333 -0.2936  1.1563
    6MOL   H766 5876   2.538   5.844   0.631 -0.6430  0.3513 -0.2928
    6MOL   N767 5877   3.420   5.634   2.332 -0.7876 -0.0474 -0.2360
    6MOL   C768 5878   3.402   5.626   2.470  0.9181 -0.8802  0.3785
    6MOL   C769 5879   3.418   5.501   2.533 -0.7354 -0.4922 -0.4934
    6MOL   C770 5880   3.381   5.482   2.670 -0.0344 -0.4102 -0.2695
    6MOL   C771 5881   3.336   5.593   2.745 -0.5435 -0.3492  0.4103
    6MOL   N772 5882   3.297   5.576   2.882 -0.8474  0.0462  0.0210
    6MOL   C773 5883   3.235   5.464   2.936  0.1331 -0.1599  0.5270
    6MOL   C774 5884   3.254   5.429   3.068  0.7293  0.5208 -0.3386
    6MOL   C775 5885   3.198   5.310   3.120 -0.6024  0.7765  0.2808
    6MOL   C776 5886   3.120   5.225   3.039  0.1363 -0.1347  0.0549
    6MOL   N777 5887   3.058   5.110   3.094 -0.4169  0.8908 -0.2349
    6MOL   C778 5888   3.096   5.029   3.203  0.2547 -0.7514 -0.1591
    6MOL   C779 5889   3.223   5.035   3.266  0.4217 -0.0461 -0.0842
    6MOL   C780 5890   3.244   4.975   3.389 -0.2950 -0.5350  0.5478
    6MOL   C781 5891   3.144   4.898   3.443  0.1286  0.3037  0.3374
    6MOL   N782 5892   3.163   4.837   3.571 -0.4252 -0.5888  0.5603
    6MOL   C783 5893   3.076   4.753   3.650  0.7317 -0.2230  0.4314
    6MOL   C784 5894   3.034   4.804   3.765 -0.0044  0.0870 -0.0329
    6MOL   C785 5895   2.951   4.728   3.849 -0.4107 -0.1815  0.0885
    6MOL   C786 5896   2.922   4.593   3.824  0.1994  0.0666 -0.0152
    6MOL   C787 5897   2.832   4.517   3.923 -0.0014 -0.2174  0.0835
    6MOL   C788 5898   2.963   4.534   3.701  0.3375  0.2126 -0.2354
    6MOL   C789 5899   3.038   4.620   3.613  0.5994 -0.2513  0.2100
    6MOL   C790 5900   3.018   4.877   3.376 -0.7037  0.0810 -0.2787
    6MOL   C791 5901   2.996   4.944   3.249 -0.8090 -0.4595  0.3828
    6MOL   C792 5902   3.099   5.259   2.906  0.0955 -0.1545  0.1909
    6MOL   C793 5903   3.156   5.378   2.855 -0.0572 -0.3741 -0.2591
    6MOL   C794 5904   3.331   5.713   2.684 -0.1117  0.4370 -0.4553
    6MOL   C795 5905   3.362   5.736   2.549 -0.1108  0.3326 -0.1160
    6MOL   H796 5906   3.466   5.560   2.280 -0.2640 -1.5611  2.2987
    6MOL   H797 5907   3.453   5.413   2.483  0.5356 -0.9705  1.1948
    6MOL   H798 5908   3.379   5.381   2.708  0.7195 -1.1001 -2.0281
    6MOL   H799 5909   3.342   5.641   2.945  0.3807  0.0674 -0.8344
    6MOL   H800 5910   3.312   5.501   3.124 -1.0487  0.5671  1.5247
    6MOL   H801 5911   3.215   5.293   3.226 -1.8337  2.5079  0.7817
    6MOL   H802 5912   2.986   5.065   3.039  0.4242  2.3548 -2.6204
    6MOL   H803 5913   3.304   5.095   3.227  2.6430 -2.5138  0.5341
    6MOL   H804 5914   3.342   4.991   3.433  0.0145 -0.3777 -0.1931
    6MOL   H805 5915   3.228   4.884   3.632  0.1432 -0.5300 -0.0884
    6MOL   H806 5916   3.048   4.911   3.778  2.4998 -0.1467 -0.6165
    6MOL   H807 5917   2.927   4.767   3.947  3.7436  2.4067  0.2256
    6MOL   H808 5918   2.810   4.415   3.891  0.5063 -0.5439  0.7555
    6MOL   H809 5919   2.740   4.574   3.932  1.1974  1.7961 -0.1704
    6MOL   H810 5920   2.930   4.436   3.673 -1.0736  0.2107  1.3127
    6MOL   H811 5921   3.079   4.589   3.518 -0.3214 -0.5298 -0.0929
    6MOL   H812 5922   2.941   4.815   3.418  1.6452 -2.2092  0.7852
    6MOL   H813 5923   2.898   4.923   3.208 -0.3353 -0.8105 -0.5877
    6MOL   H814 5924   3.040   5.201   2.837 -2.0744  0.3855  1.5592
    6MOL   H815 5925   3.131   5.402   2.752 -1.5230 -1.5822 -0.2103
    6MOL   H816 5926   3.289   5.799   2.735  1.4315 -0.2077  2.0098
    6MOL   H817 5927   3.364   5.836   2.508 -0.6581  0.7256  0.8016
    6MOL   N818 5928   2.899   4.506   4.048  0.0062  0.0313 -0.4624
    6MOL   C819 5929   2.849   4.441   4.157  0.5145  0.3465 -0.2115
    6MOL   C820 5930   2.940   4.389   4.253  0.2420  0.6775  0.0070
    6MOL   C821 5931   2.885   4.326   4.370  0.4106 -0.2415 -0.0175
    6MOL   C822 5932   2.745   4.331   4.394  0.0068 -0.3991  0.0372
    6MOL   N823 5933   2.696   4.290   4.517 -0.2248 -0.1261 -0.0784
    6MOL   C824 5934   2.725   4.160   4.559  0.4179 -0.7217  0.4110
    6MOL   C825 5935   2.785   4.060   4.481 -0.3493 -0.0133  0.0019
    6MOL   C826 5936   2.799   3.927   4.526 -0.5908 -0.0292 -0.9605
    6MOL   C827 5937   2.745   3.891   4.651 -0.6413  0.2439 -0.3700
    6MOL   N828 5938   2.763   3.764   4.705  0.1900 -0.9289  0.6523
    6MOL   C829 5939   2.798   3.649   4.627 -0.2607  0.4213  0.6554
    6MOL   C830 5940   2.889   3.556   4.678  0.4938  0.3529  0.4176
    6MOL   C831 5941   2.917   3.434   4.617  0.8285 -0.2754  0.3945
    6MOL   C832 5942   2.862   3.407   4.494 -0.8848 -0.3871 -0.1301
    6MOL   N833 5943   2.893   3.286   4.434 -0.0764  0.0370 -0.6189
    6MOL   C834 5944   2.822   3.208   4.341 -0.3809 -0.1762  0.2992
    6MOL   C835 5945   2.893   3.114   4.259 -0.3837 -0.3791  0.2194
    6MOL   C836 5946   2.831   3.020   4.175  0.0174  0.3824  0.0044
    6MOL   C837 5947   2.695   2.996   4.183 -0.2623 -0.5961 -0.5131
    6MOL   C838 5948   2.638   2.877   4.110  0.6184  0.2509 -0.4053
    6MOL   C839 5949   2.621   3.085   4.265  0.5495 -0.1985 -0.2571
    6MOL   C840 5950   2.677   3.193   4.333  0.4877 -0.1585  0.5900
    6MOL   C841 5951   2.771   3.499   4.437 -0.7345  1.1501  0.5758
    6MOL   C842 5952   2.738   3.622   4.505 -0.2790  0.9041  1.0308
    6MOL   C843 5953   2.679   3.995   4.727 -0.1810 -0.5116  0.3295
    6MOL   C844 5954   2.671   4.129   4.686 -0.0575 -1.0043  0.0492
    6MOL   C845 5955   2.655   4.385   4.298  0.0663  0.1045  0.3266
    6MOL   C846 5956   2.710   4.437   4.178  0.4292 -0.6929  0.1381
    6MOL   H847 5957   2.996   4.533   4.046 -0.4624  1.6967 -1.7799
    6MOL   H848 5958   3.046   4.404   4.242  0.2068 -0.1227 -1.5815
    6MOL   H849 5959   2.951   4.302   4.452  0.9997 -1.7112 -0.8925
    6MOL   H850 5960   2.618   4.335   4.563 -0.7849 -0.1843 -0.9522
    6MOL   H851 5961   2.831   4.079   4.385  0.1012  0.8398  0.3789
    6MOL   H852 5962   2.849   3.855   4.463 -1.2768  0.0125 -1.5650
    6MOL   H853 5963   2.741   3.758   4.803  0.0014 -0.2727  0.6515
    6MOL   H854 5964   2.932   3.575   4.775 -0.4596  3.3508  0.3030
    6MOL   H855 5965   2.997   3.376   4.661  1.2124  0.6434  0.9267
    6MOL   H856 5966   2.970   3.237   4.477  0.5149  1.1354 -0.4035
    6MOL   H857 5967   3.001   3.118   4.253 -0.3614  0.3448  1.0108
    6MOL   H858 5968   2.896   2.957   4.116  0.9785  1.2541  0.1023
    6MOL   H859 5969   2.646   2.788   4.172 -3.5934  0.7755  1.0844
    6MOL   H860 5970   2.702   2.844   4.028  0.0972  1.6030 -1.3845
    6MOL   H861 5971   2.518   3.056   4.277  0.6968 -1.0912 -1.1426
    6MOL   H862 5972   2.626   3.260   4.402  1.0649 -2.1877  3.0603
    6MOL   H863 5973   2.737   3.459   4.343  0.8020 -1.1613  0.9356
    6MOL   H864 5974   2.669   3.694   4.464  0.2683  1.7863  1.6554
    6MOL   H865 5975   2.645   3.971   4.827 -1.1327 -0.6155 -0.0100
    6MOL   H866 5976   2.620   4.201   4.748  0.5982 -0.5288  0.0442
    6MOL   H867 5977   2.548   4.376   4.304 -0.1326 -0.3350 -2.9093
    6MOL   H868 5978   2.642   4.480   4.106  3.5205  0.7620 -2.0223
    6MOL   N869 5979   2.508   2.897   4.048  0.2810 -0.6089  0.3135
    6MOL   C870 5980   2.402   2.833   4.117  0.2767  0.2068  0.1936
    6MOL   C871 5981   2.291   2.799   4.037 -0.0586  0.2702 -0.5003
    6MOL   C872 5982   2.176   2.757   4.103 -0.7706 -0.3183 -0.0304
    6MOL   C873 5983   2.168   2.727   4.240 -0.3733 -0.5675  0.1810
    6MOL   N874 5984   2.048   2.678   4.285  0.4561 -0.2330 -0.5928
    6MOL   C875 5985   1.989   2.699   4.411  0.3955  0.1247  0.2779
    6MOL   C876 5986   1.859   2.753   4.408  0.0953 -0.2136  0.3739
    6MOL   C877 5987   1.793   2.775   4.529  0.6431  0.1706  0.2732
    6MOL   C878 5988   1.848   2.743   4.653 -0.4037  0.2216 -0.6079
    6MOL   N879 5989   1.765   2.760   4.765 -0.7878 -0.1483  0.3094
    6MOL   C880 5990   1.794   2.799   4.894  0.1228 -1.0308 -0.5199
    6MOL   C881 5991   1.931   2.825   4.940 -0.6820 -0.3461 -0.0221
    6MOL   C882 5992   1.956   2.840   5.076 -0.6408 -0.0450  0.2657
    6MOL   C883 5993   1.845   2.846   5.163  0.2908 -0.1103 -0.6607
    6MOL   N884 5994   1.871   2.848   5.300  0.3735  0.0009  0.1316
    6MOL   C885 5995   1.972   2.920   5.368  0.4966  0.0230 -1.1647
    6MOL   C886 5996   2.021   2.873   5.487  0.2782 -0.1658 -0.0708
    6MOL   C887 5997   2.133   2.937   5.548  0.4130 -0.1128  0.2093
    6MOL   C888 5998   2.194   3.050   5.489  0.9897  0.0614  0.1039
    6MOL   C889 5999   2.317   3.106   5.560 -0.5915 -0.1726 -0.1521
    6MOL   C890 6000   2.140   3.106   5.371 -0.0390  0.7907  0.3561
    6MOL   C891 6001   2.032   3.034   5.312 -0.0971 -0.1420 -0.0913
    6MOL   C892 6002   1.709   2.835   5.120  0.3450 -0.1662  0.8825
    6MOL   C893 6003   1.689   2.798   4.987 -0.2961  0.0465 -0.7533
    6MOL   C894 6004   1.977   2.681   4.651 -0.6305 -0.3739 -0.1546
    6MOL   C895 6005   2.046   2.661   4.532  0.4840 -0.4733  0.4247
    6MOL   C896 6006   2.284   2.758   4.320  0.4929  0.1315  0.1566
    6MOL   C897 6007   2.394   2.818   4.258 -0.4183 -1.2901  0.4216
    6MOL   H898 6008   2.503   2.896   3.947 -2.5806  1.3966  0.3944
    6MOL   H899 6009   2.302   2.787   3.930  0.4758  0.1469 -0.4338
    6MOL   H900 6010   2.096   2.733   4.035 -2.9622  0.8520  2.0514
    6MOL   H901 6011   1.984   2.695   4.210 -3.9250 -0.2274  2.9574
    6MOL   H902 6012   1.825   2.785   4.310  2.6652  2.1418  0.1791
    6MOL   H903 6013   1.688   2.800   4.529  0.6154  0.0662  1.2018
    6MOL   H904 6014   1.665   2.750   4.758 -0.6390 -2.9031  1.4439
    6MOL   H905 6015   2.014   2.825   4.871 -0.7249  0.8388 -0.0887
    6MOL   H906 6016   2.059   2.835   5.109 -0.0029 -1.4079 -1.8121
    6MOL   H907 6017   1.807   2.790   5.354  0.1230  1.0216  0.9405
    6MOL   H908 6018   1.970   2.793   5.539 -1.7849  1.8379  1.0699
    6MOL   H909 6019   2.174   2.897   5.639  0.7424 -0.2976 -0.0192
    6MOL   H910 6020   2.381   3.026   5.596  0.5070  0.2574 -1.0909
    6MOL   H911 6021   2.297   3.157   5.654 -0.7409 -3.5113  1.6758
    6MOL   H912 6022   2.188   3.194   5.330  0.3667  0.6490  0.5205
    6MOL   H913 6023   1.997   3.073   5.217 -0.0834 -1.5135 -0.6678
    6MOL   H914 6024   1.629   2.828   5.193  0.3962  0.5803  1.0109
    6MOL   H915 6025   1.591   2.761   4.961  0.2849 -2.3206  0.3133
    6MOL   H916 6026   2.032   2.638   4.734 -0.7292 -1.2872 -0.5602
    6MOL   H917 6027   2.142   2.613   4.534  0.1592 -1.2258 -1.3118
    6MOL   H918 6028   2.281   2.751   4.427  0.7596 -2.8215  0.0351
    6MOL   H919 6029   2.477   2.840   4.324 -0.2305  0.1198 -0.2627
    6MOL   N920 6030   2.402   3.186   5.468  1.1597 -0.1739 -0.1630
    6MOL   C921 6031   2.520   3.243   5.511 -0.6511 -0.2005  0.1015
    6MOL   C922 6032   2.618   3.271   5.418 -0.6142 -0.6916  0.2765
    6MOL   C923 6033   2.749   3.308   5.453  0.6163 -0.3242 -0.3548
    6MOL   C924 6034   2.770   3.333   5.589  0.0778 -0.4679  0.3917
    6MOL   N925 6035   2.901   3.378   5.619 -0.0242  0.2300  0.1431
    6MOL   C926 6036   2.940   3.443   5.739 -0.1081 -0.1761  0.7078
    6MOL   C927 6037   2.944   3.368   5.856 -0.0371  1.3393 -0.7004
    6MOL   C928 6038   3.002   3.431   5.975  0.3817  0.0156 -0.2340
    6MOL   C929 6039   3.028   3.572   5.974 -0.1614  0.1894 -0.4680
    6MOL   N930 6040   3.068   3.639   6.092  0.0137 -0.0167  0.7969
    6MOL   C931 6041   3.126   3.577   6.205  0.3716  0.2380 -0.0894
    6MOL   C932 6042   3.083   3.631   6.325  0.3891  0.0075 -0.5701
    6MOL   C933 6043   3.130   3.572   6.443 -0.2090 -0.6636  0.3697
    6MOL   C934 6044   3.226   3.472   6.443  0.4718 -0.6481  0.1403
    6MOL   N935 6045   3.283   3.434   6.564 -0.0683 -0.0192  0.4912
    6MOL   C936 6046   3.411   3.449   6.617 -0.3597  0.3552  0.0067
    6MOL   C937 6047   3.519   3.514   6.550  0.1708 -0.2315 -0.2418
    6MOL   C938 6048   3.646   3.530   6.613  0.1393 -0.1297 -0.9989
    6MOL   C939 6049   3.665   3.488   6.743 -0.8000  0.3564  0.1312
    6MOL   C940 6050   3.792   3.514   6.814 -0.5104  0.3145  0.6569
    6MOL   C941 6051   3.562   3.409   6.805  0.5190  0.2301  0.0438
    6MOL   C942 6052   3.438   3.391   6.743  0.7166 -0.6612  0.1021
    6MOL   C943 6053   3.278   3.425   6.322  0.0636 -0.3627  0.1488
    6MOL   C944 6054   3.225   3.479   6.200 -0.1739 -0.0147 -0.1390
    6MOL   C945 6055   3.023   3.638   5.855  0.3542  0.0194  0.7373
    6MOL   C946 6056   2.979   3.577   5.738  0.7247  0.0268  0.3826
    6MOL   C947 6057   2.667   3.315   5.680  0.4133  0.5808  0.3115
    6MOL   C948 6058   2.540   3.273   5.643 -0.1229  0.4098 -0.5712
    6MOL   H949 6059   2.385   3.158   5.373 -0.3363  0.2828 -0.0438
    6MOL   H950 6060   2.601   3.258   5.312 -0.8948 -0.6582  0.3171
    6MOL   H951 6061   2.819   3.333   5.375  1.7685 -2.5362 -0.0811
    6MOL   H952 6062   2.952   3.408   5.537  1.9678  0.0322  1.2854
    6MOL   H953 6063   2.924   3.262   5.860 -1.0592  1.5898  1.6439
    6MOL   H954 6064   3.015   3.374   6.065  1.9486  1.6565  0.5992
    6MOL   H955 6065   3.044   3.736   6.106  1.0234  0.3431  0.0874
    6MOL   H956 6066   3.016   3.715   6.319  0.3931 -0.0437 -1.4856
    6MOL   H957 6067   3.082   3.617   6.528 -1.0616 -0.8824  0.0135
    6MOL   H958 6068   3.218   3.387   6.626 -1.0605  2.5540  1.4886
    6MOL   H959 6069   3.498   3.556   6.453 -1.5218 -2.0688 -0.7005
    6MOL   H960 6070   3.721   3.588   6.563 -2.6690  3.2445 -1.4946
    6MOL   H961 6071   3.824   3.614   6.787  1.5435 -0.0310  1.6569
    6MOL   H962 6072   3.868   3.447   6.771 -1.6096  0.3153 -1.3376
    6MOL   H963 6073   3.574   3.373   6.907  0.6168 -1.6737 -0.6172
    6MOL   H964 6074   3.362   3.330   6.791  2.4281 -1.4452  1.8808
    6MOL   H965 6075   3.350   3.346   6.312 -0.7509 -1.0389 -0.4340
    6MOL   H966 6076   3.272   3.449   6.107 -1.2660  0.0171 -0.6974
    6MOL   H967 6077   3.065   3.738   5.851 -0.3814  0.3035 -0.4696
    6MOL   H968 6078   2.978   3.635   5.647  2.8927  0.9237  0.8868
    6MOL   H969 6079   2.700   3.329   5.782 -1.2532  0.0040  0.9469
    6MOL   H970 6080   2.474   3.265   5.728  0.9152 -1.7360  0.0764
    6MOL   N971 6081   3.791   3.505   6.956 -0.1785  0.2612 -0.1202
    6MOL   C972 6082   3.921   3.517   7.006 -0.0895  0.5145  0.2788
    6MOL   C973 6083   3.978   3.407   7.072 -0.5690  0.0835  0.1920
    6MOL   C974 6084   4.101   3.419   7.140  0.4432 -0.4790  0.1150
    6MOL   C975 6085   4.182   3.535   7.123 -0.7391 -0.8827  0.4273
    6MOL   N976 6086   4.318   3.542   7.170 -0.0569  0.2429  0.0798
    6MOL   C977 6087   4.377   3.468   7.271  0.3273 -0.3780  0.6037
    6MOL   C978 6088   4.302   3.409   7.375  0.5229 -0.8792  0.5889
    6MOL   C979 6089   4.369   3.350   7.485 -0.3339  0.1102  0.1575
    6MOL   C980 6090   4.513   3.348   7.490 -0.3289  0.6849  0.7098
    6MOL   N981 6091   4.585   3.286   7.593  0.3137  0.4742 -0.0308
    6MOL   C982 6092   4.537   3.222   7.708 -0.4082 -0.1060  0.0293
    6MOL   C983 6093   4.592   3.098   7.742  0.5019  0.2816 -0.3020
    6MOL   C984 6094   4.544   3.028   7.853  0.1577 -0.0965  0.0119
    6MOL   C985 6095   4.442   3.084   7.936 -0.3191  0.3349 -0.4417
    6MOL   N986 6096   4.393   3.007   0.061 -0.2843  0.3872 -0.9139
    6MOL   C987 6097   4.293   3.047   0.147 -0.2990 -0.0288 -0.0931
    6MOL   C988 6098   4.322   3.050   0.283  0.0899  0.1492  0.3528
    6MOL   C989 6099   4.230   3.084   0.382 -0.0392 -0.3515 -0.1846
    6MOL   C990 6100   4.100   3.122   0.339  0.0821  0.0409  0.1074
    6MOL   C991 6101   3.991   3.163   0.437  0.0595 -0.1504  0.1410
    6MOL   C992 6102   4.064   3.108   0.205 -0.5314 -0.2898 -0.0340
    6MOL   C993 6103   4.162   3.072   0.111 -0.4594  0.3034 -0.1423
    6MOL   C994 6104   4.394   3.216   7.914 -0.3433  0.5082  0.0082
    6MOL   C995 6105   4.437   3.288   7.798 -0.1216 -0.4175 -0.4554
    6MOL   C996 6106   4.584   3.407   7.382  0.1949 -0.5348  0.6245
    6MOL   C997 6107   4.515   3.473   7.277 -0.3490 -0.2145 -0.1292
    6MOL   C998 6108   4.122   3.643   7.056 -0.5305  0.9632 -0.0658
    6MOL   C999 6109   3.991   3.642   7.002 -0.1823  0.4910  0.6215
    6MOL     H1 6110   3.719   3.562   6.999  2.5151  3.3699  0.4760
    6MOL     H2 6111   3.919   3.317   7.075 -1.0811  0.3975 -0.3225
    6MOL     H3 6112   4.147   3.329   7.180  1.1801 -0.3467 -0.4233
    6MOL     H4 6113   4.372   3.612   7.121  1.4290 -1.2620 -0.4652
    6MOL     H5 6114   4.195   3.394   7.373  0.2588  0.9126  0.9401
    6MOL     H6 6115   4.322   3.285   7.558 -1.8904  1.6821  0.6018
    6MOL     H7 6116   4.683   3.309   7.595  0.7095 -1.1419  0.1994
    6MOL     H8 6117   4.656   3.052   7.668  0.8303 -0.5560  0.4895
    6MOL     H9 6118   4.590   2.934   7.878  2.4297  1.1347  0.6195
    6MOL    H10 6119   4.457   2.944   0.106 -1.0762  0.6547  0.6409
    6MOL    H11 6120   4.416   3.034   0.334  0.2845 -0.9958 -0.3348
    6MOL    H12 6121   4.261   3.075   0.485 -1.4151 -0.4709  0.2335
    6MOL    H13 6122   3.893   3.175   0.392  0.1437  0.8027  0.1927
    6MOL    H14 6123   4.018   3.260   0.480  0.2435  0.3617 -1.1081
    6MOL    H15 6124   3.963   3.123   0.169 -0.8538 -2.1847  0.0391
    6MOL    H16 6125   4.125   3.057   0.010  1.8335 -2.4899 -0.6218
    6MOL    H17 6126   4.328   3.262   0.004 -1.3979 -0.0522 -0.5970
    6MOL    H18 6127   4.408   3.392   7.790  0.3193 -0.0740  2.0546
    6MOL    H19 6128   4.691   3.412   7.380  0.1189  0.8010 -2.2081
    6MOL    H20 6129   4.587   3.523   7.214 -0.0689  1.3067  1.3600
    6MOL    H21 6130   4.180   3.733   7.040  0.0485  0.4941 -0.6491
    6MOL    H22 6131   3.953   3.731   6.955 -0.3547  0.5008  0.7812
    6MOL    H23 6132   3.980   3.088   0.515 -0.5390 -0.7876 -0.5439
    7MOL     N1 6133   6.351   2.780   3.013  0.1586  0.2298 -0.6840
    7MOL     C2 6134   6.416   2.711   2.916 -0.0309 -0.3805 -0.4229
    7MOL     C3 6135   6.531   2.634   2.946  0.3250  0.0099 -0.5102
    7MOL     C4 6136   6.597   2.562   2.841 -0.3326  0.3532  0.0285
    7MOL     C5 6137   6.559   2.575   2.709 -0.2686 -0.8328  0.3727
    7MOL     N6 6138   6.618   2.507   2.605 -0.1224  0.1301  0.4425
    7MOL     C7 6139   6.720   2.414   2.617  0.4596 -0.1181 -0.6208
    7MOL     C8 6140   6.715   2.304   2.699  0.2449  0.1665  0.1148
    7MOL     C9 6141   6.818   2.209   2.696  0.4419  0.5195  0.0816
    7MOL    C10 6142   6.921   2.220   2.602  0.1869 -0.6455 -0.0340
    7MOL    N11 6143   7.029   2.134   2.596 -0.0298 -0.1330 -0.1534
    7MOL    C12 6144   7.043   1.999   2.634 -0.3904  0.4446  0.5864
    7MOL    C13 6145   6.939   1.915   2.669  0.2957  0.6800 -0.4399
    7MOL    C14 6146   6.958   1.785   2.709 -0.8645  0.0170  0.0135
    7MOL    C15 6147   7.082   1.721   2.706 -0.1160  0.1127 -0.1815
    7MOL    N16 6148   7.098   1.582   2.748  0.4475  0.0497  0.1184
    7MOL    C17 6149   7.004   1.503   2.809  0.2006  0.1378 -0.2302
    7MOL    C18 6150   6.940   1.536   2.930  0.0931  1.0727 -0.3629
    7MOL    C19 6151   6.840   1.454   2.984 -0.2502 -0.0791  0.1845
    7MOL    C20 6152   6.797   1.339   2.921 -0.2387 -0.1375 -0.0498
    7MOL    C21 6153   6.684   1.262   2.985 -0.0131  0.8873  0.0637
    7MOL    C22 6154   6.848   1.317   2.792  0.0890 -0.7235  0.3646
    7MOL    C23 6155   6.963   1.389   2.740  0.2201  0.0066 -0.7971
    7MOL    C24 6156   7.192   1.799   2.664  0.3128  0.5077  0.5588
    7MOL    C25 6157   7.175   1.937   2.637  0.4634  1.3429  0.4535
    7MOL    C26 6158   6.914   2.323   2.506 -0.1841  0.1660 -0.1761
    7MOL    C27 6159   6.824   2.430   2.528 -0.1378  0.1305 -0.3988
    7MOL    C28 6160   6.455   2.661   2.677 -0.1418 -0.1716  0.4704
    7MOL    C29 6161   6.385   2.725   2.779 -0.6331 -0.0499  0.6421
    7MOL    H30 6162   6.398   2.768   3.102 -2.5493 -1.6467  0.5592
    7MOL    H31 6163   6.544   2.613   3.051  0.8627  1.1697 -0.3277
    7MOL    H32 6164   6.673   2.491   2.869  0.2779 -0.6630 -3.9555
    7MOL    H33 6165   6.594   2.543   2.514  2.3379 -1.2067 -0.7713
    7MOL    H34 6166   6.628   2.297   2.762 -0.2790  1.7992 -0.4102
    7MOL    H35 6167   6.813   2.137   2.777  1.2832 -0.6850 -0.9157
    7MOL    H36 6168   7.107   2.184   2.556 -0.2716  1.4422  1.2758
    7MOL    H37 6169   6.836   1.946   2.661 -0.0729  0.0075  1.2965
    7MOL    H38 6170   6.877   1.720   2.739 -0.5352 -0.7771 -0.7752
    7MOL    H39 6171   7.193   1.547   2.742 -0.2484 -1.6114 -1.8870
    7MOL    H40 6172   6.957   1.622   2.993 -1.3318  0.3668  1.0314
    7MOL    H41 6173   6.815   1.475   3.087 -0.4574 -2.5622  0.6583
    7MOL    H42 6174   6.592   1.303   2.944 -1.8033  0.1238  3.1696
    7MOL    H43 6175   6.686   1.271   3.094  1.3162 -1.8926  0.3179
    7MOL    H44 6176   6.803   1.239   2.733  0.9190 -2.5811  2.1029
    7MOL    H45 6177   7.000   1.370   2.641  0.5557 -0.3373 -0.6064
    7MOL    H46 6178   7.287   1.748   2.654  0.3374  0.4259  1.1709
    7MOL    H47 6179   7.263   1.989   2.603  1.1683  0.3922  0.8198
    7MOL    H48 6180   6.984   2.328   2.424 -2.0378  1.6146 -1.7161
    7MOL    H49 6181   6.816   2.512   2.458  0.9996  2.3559  2.0149
    7MOL    H50 6182   6.414   2.674   2.578 -0.4856  1.8897  0.8715
    7MOL    H51 6183   6.301   2.788   2.755  0.0047 -0.2939 -2.4488
    7MOL    H52 6184   6.334   2.876   2.987  2.5832  1.6183  2.4214
    7MOL    N53 6185   6.680   1.120   2.943  0.7759 -0.1011  0.7014
    7MOL    C54 6186   6.610   1.032   3.021  0.1489 -0.3084 -0.3660
    7MOL    C55 6187   6.648   0.901   3.042 -0.4227 -0.2178  0.2012
    7MOL    C56 6188   6.572   0.812   3.120  0.2513 -0.5398 -0.4977
    7MOL    C57 6189   6.453   0.861   3.183  0.6217  0.1013 -0.1850
    7MOL    N58 6190   6.386   0.792   3.280  1.0057  0.4888  0.0049
    7MOL    C59 6191   6.398   0.657   3.310 -0.1544 -0.0589 -0.4297
    7MOL    C60 6192   6.407   0.561   3.208 -0.2730 -0.1377 -0.4642
    7MOL    C61 6193   6.402   0.423   3.233 -0.1163 -0.3071 -0.0406
    7MOL    C62 6194   6.403   0.379   3.361 -0.0447  0.7328  0.8146
    7MOL    N63 6195   6.413   0.241   3.392 -0.5587 -0.1353 -0.0273
    7MOL    C64 6196   6.485   0.140   3.334 -0.0482 -0.7150 -0.5377
    7MOL    C65 6197   6.598   0.174   3.253  0.3619 -0.2987 -0.1081
    7MOL    C66 6198   6.652   0.076   3.172  0.4118 -0.1445 -0.0785
    7MOL    C67 6199   6.613   7.922   3.175  0.9800  0.3911  0.8239
    7MOL    N68 6200   6.671   7.823   3.098  0.6973 -0.0323 -0.3743
    7MOL    C69 6201   6.763   7.837   2.991  0.1780 -0.1756  0.6553
    7MOL    C70 6202   6.861   7.736   2.983 -0.2076  0.2680 -0.4142
    7MOL    C71 6203   6.975   7.750   2.894 -0.2453 -0.6601  0.6447
    7MOL    C72 6204   6.982   7.875   2.821  0.7638  0.1679  0.0057
    7MOL    C73 6205   7.107   7.912   2.750  0.2629 -0.1542  0.2248
    7MOL    C74 6206   6.873   7.963   2.810  0.0533  0.0586 -0.0097
    7MOL    C75 6207   6.769   7.946   2.903  0.0155 -0.5952 -0.0077
    7MOL    C76 6208   6.514   7.892   3.269 -0.1620  0.6709 -1.1158
    7MOL    C77 6209   6.448   0.007   3.347  0.2303 -0.3481 -0.6283
    7MOL    C78 6210   6.384   0.471   3.463 -0.5759  0.1239  0.0005
    7MOL    C79 6211   6.384   0.607   3.438  0.4419  0.4411 -1.1605
    7MOL    C80 6212   6.408   0.990   3.165 -0.0265  0.3991  0.0654
    7MOL    C81 6213   6.492   1.076   3.088  0.1361 -0.2133  0.5099
    7MOL    H82 6214   6.755   1.092   2.882  0.8900  0.2359  0.6870
    7MOL    H83 6215   6.734   0.859   2.993  0.5048  0.7023  1.0077
    7MOL    H84 6216   6.611   0.712   3.120 -0.6034 -0.8824 -0.0691
    7MOL    H85 6217   6.361   0.850   3.359 -2.6535 -0.9477  0.0261
    7MOL    H86 6218   6.412   0.584   3.102  3.5622 -0.2410 -0.3942
    7MOL    H87 6219   6.393   0.347   3.157  1.7270 -1.4761  0.8716
    7MOL    H88 6220   6.385   0.215   3.485  0.6438  2.3812  1.0883
    7MOL    H89 6221   6.641   0.272   3.235  2.1614 -0.6911  1.8947
    7MOL    H90 6222   6.742   0.095   3.114 -0.2701 -0.4854 -1.2692
    7MOL    H91 6223   6.646   7.728   3.120 -1.1681  0.7676  1.1366
    7MOL    H92 6224   6.852   7.652   3.051  1.6433  1.2032  1.0201
    7MOL    H93 6225   7.054   7.679   2.876 -1.0995 -0.6872 -3.3604
    7MOL    H94 6226   7.108   7.873   2.648 -1.0674 -0.9914  0.5245
    7MOL    H95 6227   7.188   7.856   2.798  0.7209 -0.9791 -1.4712
    7MOL    H96 6228   6.888   0.060   2.738  1.8997  0.9050  1.2566
    7MOL    H97 6229   6.683   0.030   2.903 -0.5292 -1.2867  0.7962
    7MOL    H98 6230   6.473   7.794   3.285 -0.3018  0.8886 -0.0714
    7MOL    H99 6231   6.360   7.961   3.403  1.2074  0.0826  1.1709
    7MOL   H100 6232   6.378   0.425   3.561 -2.1620 -0.1368 -0.2022
    7MOL   H101 6233   6.382   0.677   3.520 -1.2771 -0.9894  0.0520
    7MOL   H102 6234   6.321   1.033   3.212 -0.0151  0.7618 -0.2418
    7MOL   H103 6235   6.464   1.180   3.084  2.1401  0.3267 -0.2286
    7MOL   N104 6236   7.154   0.070   2.757 -0.8487  0.0309  0.3849
    7MOL   C105 6237   7.228   0.106   2.638  0.2649  0.7337  0.0056
    7MOL   C106 6238   7.166   0.103   2.512 -0.8519 -0.3075  0.5705
    7MOL   C107 6239   7.233   0.153   2.400  0.6739 -0.3070 -0.0650
    7MOL   C108 6240   7.360   0.213   2.401  0.2183 -0.1215  0.5268
    7MOL   N109 6241   7.421   0.260   2.287  0.1778  0.3728 -0.0113
    7MOL   C110 6242   7.539   0.325   2.262 -0.2370 -1.1494 -0.4161
    7MOL   C111 6243   7.630   0.285   2.163 -0.4897  0.5041 -0.2669
    7MOL   C112 6244   7.749   0.350   2.152 -0.2589  0.7893 -0.0266
    7MOL   C113 6245   7.774   0.463   2.224 -0.7692 -0.0631 -0.0319
    7MOL   N114 6246   7.900   0.525   2.205  0.1185 -0.0108  0.1485
    7MOL   C115 6247   7.932   0.658   2.206  0.7293  0.3306  0.0418
    7MOL   C116 6248   7.848   0.752   2.144 -0.3854  0.3682  0.3478
    7MOL   C117 6249   7.874   0.886   2.165 -0.2725  0.1958  0.0384
    7MOL   C118 6250   0.005   0.927   2.242  0.2123 -0.5497 -0.6142
    7MOL   N119 6251   0.039   1.058   2.281 -0.2094 -0.4008 -0.0556
    7MOL   C120 6252   0.051   1.170   2.193  0.1873 -0.4565  0.0591
    7MOL   C121 6253   0.019   1.160   2.055 -0.0626 -0.1345 -0.2258
    7MOL   C122 6254   0.024   1.277   1.977 -0.7575  0.2564  0.1468
    7MOL   C123 6255   0.090   1.394   2.022  0.6738  0.3593  0.5216
    7MOL   C124 6256   0.118   1.508   1.926  0.2675  0.3245  0.5036
    7MOL   C125 6257   0.128   1.401   2.159 -1.0623 -0.2855 -0.0251
    7MOL   C126 6258   0.110   1.292   2.250  0.0196  0.1587  1.1471
    7MOL   C127 6259   0.093   0.830   2.295  0.2285 -0.2539 -0.3522
    7MOL   C128 6260   0.068   0.697   2.280  0.6049  0.0038 -0.7499
    7MOL   C129 6261   7.685   0.512   2.318 -0.3434  0.2455 -0.0578
    7MOL   C130 6262   7.562   0.443   2.338  0.1010 -0.2369  0.5913
    7MOL   C131 6263   7.423   0.211   2.529  0.2237 -0.3657 -0.6108
    7MOL   C132 6264   7.361   0.157   2.649 -0.2614 -0.2679  0.2561
    7MOL   H133 6265   7.195   0.092   2.846 -2.9108  0.3938  1.2859
    7MOL   H134 6266   7.065   0.067   2.500 -0.6459 -1.6640  2.6474
    7MOL   H135 6267   7.187   0.146   2.303  0.3214 -1.4849  0.1808
    7MOL   H136 6268   7.380   0.213   2.208  2.4343 -0.4188 -0.7342
    7MOL   H137 6269   7.611   0.205   2.094  2.7561 -0.6673  0.0905
    7MOL   H138 6270   7.829   0.309   2.091  0.2313 -2.0224  2.3601
    7MOL   H139 6271   7.979   0.462   2.213  0.2200 -0.1124 -1.5475
    7MOL   H140 6272   7.767   0.717   2.083  1.0200 -0.3335 -1.1657
    7MOL   H141 6273   7.809   0.962   2.125  1.1302  0.6718 -1.3630
    7MOL   H142 6274   0.062   1.083   2.376  0.2352 -0.0379 -0.2539
    7MOL   H143 6275   7.945   1.080   2.010 -1.0477  2.3053 -3.5383
    7MOL   H144 6276   7.971   1.274   1.875  0.7598 -1.5216 -0.3618
    7MOL   H145 6277   0.196   1.577   1.959 -0.5611  0.8965  1.2821
    7MOL   H146 6278   0.029   1.571   1.932 -0.5277 -0.6342 -1.1965
    7MOL   H147 6279   0.170   1.486   2.211 -1.8292 -1.5861  2.8552
    7MOL   H148 6280   0.147   1.301   2.351  1.0034  1.0716  0.7173
    7MOL   H149 6281   0.172   0.867   2.359 -1.0652 -0.8009  1.6096
    7MOL   H150 6282   0.125   0.624   2.335 -1.8863 -1.0950  0.4314
    7MOL   H151 6283   7.720   0.593   2.380 -1.7860  0.8407 -0.0197
    7MOL   H152 6284   7.491   0.481   2.410 -0.4143 -2.1896  1.1281
    7MOL   H153 6285   7.521   0.252   2.545  0.0121 -0.2553  0.4728
    7MOL   H154 6286   7.405   0.166   2.747  1.8264 -1.6942 -0.5035
    7MOL   N155 6287   0.121   1.470   1.789  0.2354  0.2259  0.1164
    7MOL   C156 6288   0.215   1.389   1.730 -0.0605 -1.1527  0.0667
    7MOL   C157 6289   0.335   1.354   1.800 -0.4733  0.0644  0.1343
    7MOL   C158 6290   0.425   1.271   1.736 -0.4432 -0.5718  0.0266
    7MOL   C159 6291   0.400   1.215   1.608 -0.4595 -0.2420 -0.3250
    7MOL   N160 6292   0.485   1.119   1.555  0.1765  0.4122 -0.4043
    7MOL   C161 6293   0.626   1.100   1.578 -0.7489  0.7206 -0.2913
    7MOL   C162 6294   0.711   1.207   1.570 -0.3533  0.1467 -0.6562
    7MOL   C163 6295   0.849   1.191   1.589  0.1909 -1.2695  0.3334
    7MOL   C164 6296   0.904   1.067   1.617  0.2538  0.5201  0.1780
    7MOL   N165 6297   1.041   1.058   1.621  0.2780  0.1876  0.1387
    7MOL   C166 6298   1.119   0.971   1.706  0.0387 -1.1136 -0.4079
    7MOL   C167 6299   1.251   0.948   1.667  0.2143 -0.2333  0.8743
    7MOL   C168 6300   1.341   0.874   1.748 -0.0715 -0.1032 -0.2570
    7MOL   C169 6301   1.294   0.821   1.866  0.7433 -0.3249 -0.4389
    7MOL   N170 6302   1.389   0.754   1.943  0.0942 -0.2156  0.5276
    7MOL   C171 6303   1.368   0.659   2.043  0.2513  0.2975 -0.1559
    7MOL   C172 6304   1.255   0.575   2.055 -0.1104 -0.6037 -0.2749
    7MOL   C173 6305   1.235   0.480   2.158  0.1300  0.1053  0.2047
    7MOL   C174 6306   1.333   0.466   2.249 -0.8706  0.1510  0.3304
    7MOL   C175 6307   1.293   0.391   2.379 -0.4586 -0.0305  0.7675
    7MOL   C176 6308   1.456   0.529   2.234 -0.1412 -0.3042 -1.0612
    7MOL   C177 6309   1.472   0.627   2.131  0.0830  0.7617 -0.3764
    7MOL   C178 6310   1.160   0.839   1.901  0.3842  0.3989 -0.6842
    7MOL   C179 6311   1.070   0.914   1.828  0.0630  0.0478 -0.2163
    7MOL   C180 6312   0.820   0.956   1.632  0.2606 -0.6434 -0.0308
    7MOL   C181 6313   0.682   0.974   1.613 -0.4871  0.5361  0.6481
    7MOL   C182 6314   0.285   1.247   1.540 -0.5899  0.3578 -0.4477
    7MOL   C183 6315   0.196   1.342   1.599  0.2020  0.1016  0.8452
    7MOL   H184 6316   0.034   1.490   1.741  0.2882  0.7648  0.2509
    7MOL   H185 6317   0.354   1.389   1.901  1.1119 -1.2480  0.3072
    7MOL   H186 6318   0.518   1.237   1.780  1.8104  1.7504 -2.6703
    7MOL   H187 6319   0.430   1.036   1.540 -0.9438  0.6988  1.8585
    7MOL   H188 6320   0.672   1.300   1.532  0.8646  1.3118  0.8372
    7MOL   H189 6321   0.919   1.270   1.565 -0.0742 -0.5847  1.7464
    7MOL   H190 6322   1.095   1.114   1.558  0.7914 -0.1382  0.2862
    7MOL   H191 6323   1.280   0.990   1.572 -1.7304  0.7913  0.7159
    7MOL   H192 6324   1.445   0.866   1.721  0.1599  2.7730 -0.3722
    7MOL   H193 6325   1.484   0.774   1.914  0.1048 -0.3412  0.4794
    7MOL   H194 6326   1.170   0.596   1.990  0.1402  0.8939 -0.1471
    7MOL   H195 6327   1.140   0.428   2.153 -0.6775  1.7022 -1.8582
    7MOL   H196 6328   1.272   0.287   2.356  1.1345 -0.8662  2.9036
    7MOL   H197 6329   1.191   0.420   2.405 -0.8781  0.1656 -1.0173
    7MOL   H198 6330   1.537   0.507   2.302 -0.9902 -0.1855  0.0003
    7MOL   H199 6331   1.558   0.692   2.142  0.4675  0.0619  0.9245
    7MOL   H200 6332   1.124   0.792   1.992 -2.0933 -0.6489 -2.1833
    7MOL   H201 6333   0.967   0.932   1.853 -0.2394 -0.2237 -1.2374
    7MOL   H202 6334   0.865   0.859   1.649  0.1363 -0.4510  1.4178
    7MOL   H203 6335   0.624   0.884   1.631  0.1271  0.3894  1.9087
    7MOL   H204 6336   0.257   1.207   1.444 -1.1248 -1.1147  0.3045
    7MOL   H205 6337   0.116   1.383   1.540  1.1973  0.4687 -0.2796
    7MOL   N206 6338   1.387   0.390   2.487 -0.3164 -0.3885 -0.6953
    7MOL   C207 6339   1.366   0.342   2.619  0.4357  0.7449 -0.1418
    7MOL   C208 6340   1.472   0.334   2.704 -0.0166  1.0108 -0.1996
    7MOL   C209 6341   1.468   0.286   2.837 -0.4630  0.3773  0.0205
    7MOL   C210 6342   1.339   0.251   2.893 -0.5493  0.4345  0.4722
    7MOL   N211 6343   1.319   0.209   3.027 -0.3403  0.1761  0.1699
    7MOL   C212 6344   1.212   0.128   3.067 -0.7828 -0.2737  0.1995
    7MOL   C213 6345   1.167   0.017   2.989  0.0577 -0.0837 -0.1994
    7MOL   C214 6346   1.058   7.928   3.040  0.5333  0.3413 -0.5420
    7MOL   C215 6347   0.989   7.962   3.159 -0.1379  0.1179  0.4163
    7MOL   N216 6348   0.882   7.884   3.207 -0.5968 -1.0677 -0.1976
    7MOL   C217 6349   0.792   7.795   3.141  0.3096  0.9359  0.4491
    7MOL   C218 6350   0.767   7.673   3.208 -0.0049  0.4017  0.3859
    7MOL   C219 6351   0.669   7.584   3.154 -0.3629  0.6023 -0.0549
    7MOL   C220 6352   0.604   7.618   3.026 -0.5014 -0.0330  0.1257
    7MOL   N221 6353   0.504   7.529   2.972 -0.7732  0.2155  0.3337
    7MOL   C222 6354   0.417   7.560   2.862  1.0231  0.3698  0.5868
    7MOL   C223 6355   0.463   7.574   2.730  0.2110 -0.3412  0.0061
    7MOL   C224 6356   0.377   7.597   2.621  0.6963 -0.0828  0.5401
    7MOL   C225 6357   0.240   7.623   2.649 -0.6297  0.0198  0.6228
    7MOL   C226 6358   0.135   7.656   2.540  0.2645  0.7015 -0.1360
    7MOL   C227 6359   0.189   7.609   2.781  0.8900  0.3597 -0.0255
    7MOL   C228 6360   0.282   7.577   2.884 -0.0367 -0.2602 -0.6830
    7MOL   C229 6361   0.639   7.736   2.961  0.0789 -0.0188  1.2418
    7MOL   C230 6362   0.731   7.828   3.022  0.1057  0.1044 -0.3976
    7MOL   C231 6363   1.040   0.090   3.235  0.4592 -0.0360 -0.1121
    7MOL   C232 6364   1.148   0.165   3.186 -0.0597  0.2405 -0.1009
    7MOL   C233 6365   1.226   0.271   2.809  0.2740  0.6324  0.1009
    7MOL   C234 6366   1.242   0.306   2.673  0.3396  0.6896  0.1612
    7MOL   H235 6367   1.473   0.438   2.463 -0.5798  0.2399 -0.4003
    7MOL   H236 6368   1.569   0.367   2.668 -0.2763 -0.6590 -2.5500
    7MOL   H237 6369   1.560   0.289   2.895 -2.0246  0.5786  2.5563
    7MOL   H238 6370   1.380   0.235   3.103 -0.0750  2.2722 -0.7356
    7MOL   H239 6371   1.203   7.981   2.889 -2.1814  0.1325 -1.0907
    7MOL   H240 6372   1.021   7.841   2.987 -1.5672 -0.0522  1.4797
    7MOL   H241 6373   0.885   7.865   3.306  1.1517 -0.1792 -0.0601
    7MOL   H242 6374   0.817   7.657   3.303 -0.4706  0.8867  0.7189
    7MOL   H243 6375   0.641   7.497   3.212 -0.2341  0.9735  0.5701
    7MOL   H244 6376   0.470   7.453   3.028 -0.9758 -0.0724 -0.1714
    7MOL   H245 6377   0.570   7.566   2.718  0.2865  0.6739 -0.0427
    7MOL   H246 6378   0.418   7.607   2.522 -2.9224  1.5878 -0.8803
    7MOL   H247 6379   0.040   7.696   2.577  0.1617  1.5524 -1.2737
    7MOL   H248 6380   0.101   7.560   2.502 -2.3632  0.4637  2.6517
    7MOL   H249 6381   0.085   7.629   2.801  0.6661  1.5138 -2.2549
    7MOL   H250 6382   0.257   7.585   2.989 -1.2132  0.9273 -1.0417
    7MOL   H251 6383   0.596   7.770   2.868  2.4524 -1.5721 -0.4890
    7MOL   H252 6384   0.748   7.922   2.971 -0.2620 -1.0816 -2.7986
    7MOL   H253 6385   1.004   0.119   3.332 -0.4542 -0.5110 -0.3033
    7MOL   H254 6386   1.181   0.254   3.238 -0.0944 -0.7256  1.5928
    7MOL   H255 6387   1.127   0.253   2.847 -0.5108  0.4057 -1.9673
    7MOL   H256 6388   1.157   0.328   2.610 -1.3495 -2.4588  1.2565
    7MOL   N257 6389   0.182   7.735   2.428  0.0140  0.6136  0.1331
    7MOL   C258 6390   0.232   7.679   2.313  0.1790  1.0037  0.4416
    7MOL   C259 6391   0.295   7.552   2.307 -0.0639  0.1556  0.0754
    7MOL   C260 6392   0.310   7.485   2.183  0.1262 -0.0277 -0.1052
    7MOL   C261 6393   0.290   7.559   2.062 -0.0145 -0.1562  0.0253
    7MOL   N262 6394   0.316   7.501   1.935 -0.1107 -0.5592  0.4344
    7MOL   C263 6395   0.340   7.572   1.818  0.6199 -0.4888  0.3211
    7MOL   C264 6396   0.267   7.542   1.699 -0.0278 -0.0810 -0.1550
    7MOL   C265 6397   0.274   7.617   1.585 -0.0942  0.9573  0.9321
    7MOL   C266 6398   0.346   7.734   1.586  0.4572  0.1295 -0.2678
    7MOL   N267 6399   0.349   7.812   1.468  0.3793 -0.3333  0.0306
    7MOL   C268 6400   0.451   7.895   1.428 -0.8106  0.0328  0.6463
    7MOL   C269 6401   0.413   7.982   1.325 -0.5346  0.1889  0.0445
    7MOL   C270 6402   0.501   0.090   1.270  1.0244 -0.3848  1.0454
    7MOL   C271 6403   0.631   0.098   1.325 -0.1011  0.5626  0.6543
    7MOL   N272 6404   0.716   0.194   1.276 -0.1859 -0.0327 -0.7281
    7MOL   C273 6405   0.842   0.177   1.230  0.0613  0.0842  0.2217
    7MOL   C274 6406   0.907   0.045   1.225  0.1171 -0.6861 -0.1989
    7MOL   C275 6407   1.040   0.046   1.195 -0.7788  0.0300 -0.2199
    7MOL   C276 6408   1.114   0.162   1.161 -0.1096 -0.3061  0.8121
    7MOL   C277 6409   1.262   0.163   1.142  0.1795  0.6632 -0.0196
    7MOL   C278 6410   1.052   0.287   1.155 -0.1504  0.1116  0.2226
    7MOL   C279 6411   0.916   0.295   1.195 -0.8348  0.2648  0.5058
    7MOL   C280 6412   0.676   0.010   1.424  0.4437 -0.2283 -0.4045
    7MOL   C281 6413   0.585   7.893   1.472 -0.1474  0.0984  0.4745
    7MOL   C282 6414   0.419   7.771   1.701 -0.1006  0.2754 -0.3166
    7MOL   C283 6415   0.424   7.686   1.816  0.6482 -0.2344 -1.0239
    7MOL   C284 6416   0.248   7.698   2.076 -0.4073  0.0713  0.7485
    7MOL   C285 6417   0.213   7.751   2.197  0.4467 -0.3082  0.6450
    7MOL   H286 6418   0.126   7.819   2.419 -1.4537 -0.1455  1.8286
    7MOL   H287 6419   0.302   7.490   2.395  1.7766 -1.0137 -0.8616
    7MOL   H288 6420   0.341   7.382   2.185 -0.3858 -0.1970 -0.8506
    7MOL   H289 6421   0.301   7.401   1.936  0.4452 -0.6645 -0.8180
    7MOL   H290 6422   0.212   7.449   1.703  1.2793 -0.8518 -0.0956
    7MOL   H291 6423   0.218   7.601   1.494  1.2654  4.4009 -0.5894
    7MOL   H292 6424   0.278   7.808   1.398  0.7823 -0.0409 -0.3973
    7MOL   H293 6425   0.317   7.965   1.278 -0.3402 -2.8081  0.6059
    7MOL   H294 6426   0.473   0.152   1.186  0.9802 -0.7296  0.8034
    7MOL   H295 6427   0.684   0.289   1.269 -0.1474  0.4235  3.8780
    7MOL   H296 6428   0.852   7.935   1.234 -2.2587  0.7933  1.0194
    7MOL   H297 6429   1.094   7.935   1.196 -0.1174  0.3966 -1.5173
    7MOL   H298 6430   1.288   0.218   1.051 -0.8107 -1.6064 -1.7109
    7MOL   H299 6431   1.306   0.066   1.121 -1.4008 -0.2924  1.0031
    7MOL   H300 6432   1.114   0.376   1.151 -0.5101  0.3797  0.5649
    7MOL   H301 6433   0.867   0.391   1.203 -0.4968  0.5170 -0.3954
    7MOL   H302 6434   0.774   0.017   1.468 -0.2627  4.4798  0.7065
    7MOL   H303 6435   0.623   7.821   1.544  1.2686  0.9434  0.5951
    7MOL   H304 6436   0.471   7.864   1.711  0.2686 -0.0126  0.5419
    7MOL   H305 6437   0.471   7.713   1.909 -1.0582  0.2120 -0.2656
    7MOL   H306 6438   0.236   7.765   1.992 -0.1437  0.7980  1.2897
    7MOL   H307 6439   0.183   7.854   2.196 -2.7866 -1.1930  0.0161
    7MOL   N308 6440   1.313   0.210   1.264  0.5242 -0.3406 -0.2446
    7MOL   C309 6441   1.450   0.227   1.283 -0.4577  0.4387 -0.2779
    7MOL   C310 6442   1.500   0.327   1.375  0.5648  0.3667 -0.0430
    7MOL   C311 6443   1.634   0.356   1.390 -0.7032 -0.2188 -0.5134
    7MOL   C312 6444   1.731   0.276   1.314  0.7314 -0.9154 -0.4260
    7MOL   N313 6445   1.863   0.306   1.323  0.1674 -0.0451 -0.4946
    7MOL   C314 6446   1.936   0.345   1.433 -0.0702 -0.3027  0.0066
    7MOL   C315 6447   2.037   0.436   1.411  0.1236  0.1487  0.6363
    7MOL   C316 6448   2.114   0.489   1.515  0.3296  0.1899 -0.2962
    7MOL   C317 6449   2.107   0.433   1.645  0.3677 -0.2462 -0.1308
    7MOL   N318 6450   2.201   0.463   1.745  0.0539 -0.1359  0.5926
    7MOL   C319 6451   2.254   0.383   1.849  0.0874  0.7665  0.6735
    7MOL   C320 6452   2.354   0.441   1.928  0.1011  0.5236  0.4987
    7MOL   C321 6453   2.422   0.364   2.023 -0.0529 -0.0825  0.6019
    7MOL   C322 6454   2.394   0.227   2.028 -0.8085  0.5143 -0.2416
    7MOL   N323 6455   2.476   0.143   2.113  1.0279 -0.0702 -0.0105
    7MOL   C324 6456   2.448   0.010   2.146 -0.6625 -0.4209  0.0324
    7MOL   C325 6457   2.542   7.892   2.127  0.3871  0.1377  0.2567
    7MOL   C326 6458   2.506   7.755   2.157  0.1181 -0.5907 -0.7262
    7MOL   C327 6459   2.371   7.728   2.195 -0.5595 -0.2675 -0.6673
    7MOL   C328 6460   2.336   7.583   2.228 -0.3578 -0.3755 -0.7170
    7MOL   C329 6461   2.280   7.830   2.209  0.5550  0.1260 -0.4278
    7MOL   C330 6462   2.317   7.963   2.188  1.0405  0.2108 -0.1342
    7MOL   C331 6463   2.303   0.164   1.944  0.2713  0.1819 -0.4617
    7MOL   C332 6464   2.235   0.242   1.854 -0.2207 -0.1015  0.2360
    7MOL   C333 6465   2.005   0.333   1.661 -0.0914  0.4692 -0.0836
    7MOL   C334 6466   1.908   0.299   1.560  0.5664  0.2743 -0.2396
    7MOL   C335 6467   1.685   0.171   1.230 -0.6140  0.4476 -0.4656
    7MOL   C336 6468   1.541   0.146   1.213  0.3028  0.3284 -0.0667
    7MOL   H337 6469   1.247   0.230   1.337  1.5377  2.2834 -0.0023
    7MOL   H338 6470   1.426   0.386   1.428 -0.7910 -3.0314  2.0411
    7MOL   H339 6471   1.667   0.436   1.455 -0.5230 -0.9609  0.3156
    7MOL   H340 6472   1.913   0.294   1.236  0.0552  1.0872 -0.7168
    7MOL   H341 6473   2.045   0.472   1.309  1.1659 -0.3857  0.5215
    7MOL   H342 6474   2.183   0.570   1.495  0.6173 -0.0680 -0.3568
    7MOL   H343 6475   2.231   0.559   1.741 -1.7704  0.5174  2.0290
    7MOL   H344 6476   2.379   0.545   1.916 -3.0550  1.4523  1.4523
    7MOL   H345 6477   2.492   0.400   2.097 -2.4812 -0.2956  3.0423
    7MOL   H346 6478   2.569   0.177   2.136  1.1099 -0.0913 -0.3074
    7MOL   H347 6479   2.640   7.921   2.092 -0.2653  0.7625 -1.1225
    7MOL   H348 6480   2.569   7.672   2.131 -1.4391 -1.2110 -2.6317
    7MOL   H349 6481   2.290   7.566   2.325  0.4008 -0.9138 -0.4426
    7MOL   H350 6482   2.431   7.532   2.244  0.1906  0.0935 -2.3928
    7MOL   H351 6483   2.180   7.806   2.240  0.0037  0.1595 -2.1439
    7MOL   H352 6484   2.248   0.063   2.199  1.7005  0.4688  2.3694
    7MOL   H353 6485   2.288   0.057   1.935 -0.9744  0.3468 -0.4295
    7MOL   H354 6486   2.167   0.180   1.798 -0.8439 -0.6945  1.6199
    7MOL   H355 6487   1.983   0.282   1.754  0.2952  1.5671  0.6160
    7MOL   H356 6488   1.828   0.228   1.574  0.6698  0.1468 -0.2884
    7MOL   H357 6489   1.749   0.110   1.168 -0.9207 -1.1270  0.7306
    7MOL   H358 6490   1.513   0.059   1.155 -0.0473  0.0197  0.5632
    7MOL   N359 6491   2.268   7.504   2.123 -0.1584 -0.3948  0.2828
    7MOL   C360 6492   2.146   7.550   2.073  1.5335 -0.5720  0.4483
    7MOL   C361 6493   2.038   7.577   2.165  0.5841  0.2951 -0.3629
    7MOL   C362 6494   1.911   7.623   2.121  0.2090 -0.7964  0.1125
    7MOL   C363 6495   1.900   7.650   1.979 -0.5221 -0.7070 -0.4036
    7MOL   N364 6496   1.784   7.703   1.923 -0.2965  0.0628 -0.2236
    7MOL   C365 6497   1.649   7.673   1.937  0.3132  0.0289 -0.5800
    7MOL   C366 6498   1.556   7.733   1.849  0.2142 -0.3690 -0.1765
    7MOL   C367 6499   1.418   7.709   1.857 -0.4790  0.3145 -0.2894
    7MOL   C368 6500   1.368   7.614   1.954 -0.4405  0.2211  0.1360
    7MOL   N369 6501   1.230   7.588   1.967  0.1188  0.0182 -1.0462
    7MOL   C370 6502   1.128   7.594   1.865  0.2610  0.2418  0.9504
    7MOL   C371 6503   1.156   7.588   1.727 -0.6063 -0.7524  0.3671
    7MOL   C372 6504   1.053   7.578   1.635 -0.0950  0.4339  0.3667
    7MOL   C373 6505   0.915   7.579   1.667  0.2819  0.8621  0.4015
    7MOL   N374 6506   0.811   7.583   1.572  0.4476  0.0774 -0.1918
    7MOL   C375 6507   0.821   7.570   1.435 -0.4997  0.0721 -0.1795
    7MOL   C376 6508   0.909   7.659   1.363  0.6613 -0.6760 -0.8863
    7MOL   C377 6509   0.910   7.653   1.221 -0.3427  0.1003 -0.5368
    7MOL   C378 6510   0.835   7.554   1.156  0.0441 -0.1646 -0.1293
    7MOL   C379 6511   0.838   7.535   1.010 -0.2011  0.9934 -0.2646
    7MOL   C380 6512   0.741   7.478   1.226  0.0405 -0.4630  0.3139
    7MOL   C381 6513   0.733   7.492   1.368 -0.3287  0.2456  0.4607
    7MOL   C382 6514   0.886   7.579   1.801 -0.0373 -1.1434 -0.4452
    7MOL   C383 6515   0.989   7.573   1.900  0.0523 -1.0260  0.3471
    7MOL   C384 6516   1.463   7.554   2.038  0.1364 -0.6471  0.4349
    7MOL   C385 6517   1.594   7.580   2.028  0.0990 -0.1779 -0.1464
    7MOL   C386 6518   2.011   7.627   1.895  0.2501 -0.0504 -0.3157
    7MOL   C387 6519   2.131   7.569   1.940 -0.1270  0.6169  0.2134
    7MOL   H388 6520   2.325   7.461   2.052 -0.9803 -1.9975  0.5787
    7MOL   H389 6521   2.051   7.543   2.266  0.9581  0.7649 -0.2482
    7MOL   H390 6522   1.824   7.634   2.184 -0.6600 -2.2148 -0.8233
    7MOL   H391 6523   1.808   7.722   1.827 -1.0495  0.4781 -0.3349
    7MOL   H392 6524   1.587   7.806   1.777  2.0915  0.8358  1.7635
    7MOL   H393 6525   1.360   7.769   1.788 -0.8668 -0.8314 -0.9814
    7MOL   H394 6526   1.198   7.548   2.053 -0.9254  0.3875 -1.2514
    7MOL   H395 6527   1.254   7.593   1.683  0.6372  0.9405  3.1675
    7MOL   H396 6528   1.086   7.575   1.533 -2.6099 -2.3952 -0.4190
    7MOL   H397 6529   0.722   7.545   1.600  1.5658 -1.2682  1.6826
    7MOL   H398 6530   0.967   7.736   1.412  0.7191 -1.9965  1.2058
    7MOL   H399 6531   0.969   7.716   1.157  1.6078 -0.3836  0.7274
    7MOL   H400 6532   0.854   7.430   0.987 -3.9008  0.5724 -1.2263
    7MOL   H401 6533   0.925   7.586   0.967  2.3542 -3.4689 -0.6306
    7MOL   H402 6534   0.653   7.425   1.193 -2.4347  1.6705  3.1919
    7MOL   H403 6535   0.664   7.438   1.431  0.1464  0.0283  0.7989
    7MOL   H404 6536   0.786   7.591   1.841  1.3130  1.7339  2.2881
    7MOL   H405 6537   0.961   7.562   2.003 -0.0035 -1.0052  0.3340
    7MOL   H406 6538   1.433   7.482   2.112 -0.9161  0.9787  1.6296
    7MOL   H407 6539   1.663   7.530   2.095 -0.3178  0.2352  0.6023
    7MOL   H408 6540   2.008   7.653   1.790  0.0646 -0.1253 -0.3283
    7MOL   H409 6541   2.218   7.557   1.878 -0.0462  0.5379  0.3425
    7MOL   N410 6542   0.721   7.577   0.932 -0.4257 -0.3191 -0.4323
    7MOL   C411 6543   0.725   7.706   0.874 -0.6052  0.1905 -0.1247
    7MOL   C412 6544   0.678   7.721   0.746  0.0702  0.9110  0.0320
    7MOL   C413 6545   0.662   7.852   0.692 -0.3945  0.0217  0.7092
    7MOL   C414 6546   0.685   7.971   0.766  0.1498 -0.0628  0.2447
    7MOL   N415 6547   0.682   0.115   0.708  0.7667 -0.0048 -0.0057
    7MOL   C416 6548   0.617   0.154   0.591  0.6779 -0.7781 -0.7616
    7MOL   C417 6549   0.513   0.086   0.525 -0.8417 -0.1538 -0.4520
    7MOL   C418 6550   0.453   0.144   0.413 -1.1833  0.2617 -0.7480
    7MOL   C419 6551   0.484   0.279   0.369  1.0691 -0.0603 -0.5628
    7MOL   N420 6552   0.412   0.339   0.266 -0.2474 -0.6961  0.1713
    7MOL   C421 6553   0.295   0.294   0.210  0.2503 -0.8310 -0.2211
    7MOL   C422 6554   0.305   0.270   0.073  0.0788 -0.0158  0.4646
    7MOL   C423 6555   0.196   0.219   0.002  0.1218  1.0631  0.4115
    7MOL   C424 6556   0.077   0.205   0.065  0.4450 -0.6743 -0.0612
    7MOL   N425 6557   7.956   0.171   7.963  0.2807 -0.3655  0.2039
    7MOL   C426 6558   7.829   0.137   0.022 -0.2287 -0.3367 -0.1466
    7MOL   C427 6559   7.712   0.191   7.938  0.2572 -0.0713 -0.0852
    7MOL   C428 6560   7.579   0.165   0.011 -0.1863  0.4463 -0.5707
    7MOL   C429 6561   7.566   0.077   0.119 -0.2340  0.4163  0.0855
    7MOL   C430 6562   7.425   0.074   0.185  0.1692 -0.1263  0.3100
    7MOL   C431 6563   7.683   0.018   0.174 -0.3883  0.1745  0.5068
    7MOL   C432 6564   7.811   0.043   0.124  0.4874 -0.9353  0.1715
    7MOL   C433 6565   0.065   0.217   0.208 -0.1988  0.3203  0.0237
    7MOL   C434 6566   0.176   0.266   0.283  0.3998  0.2458 -0.5096
    7MOL   C435 6567   0.585   0.341   0.437 -0.1889  0.7327 -0.6396
    7MOL   C436 6568   0.652   0.280   0.545  0.2855 -0.6391 -0.1248
    7MOL   C437 6569   0.734   7.948   0.893  0.1024 -0.7731 -0.0100
    7MOL   C438 6570   0.755   7.820   0.948 -0.0185 -0.2627  0.1546
    7MOL   H439 6571   0.663   7.508   0.886 -2.7189  2.4784 -1.8175
    7MOL   H440 6572   0.652   7.635   0.686  0.5711  0.8672 -0.1237
    7MOL   H441 6573   0.644   7.861   0.585 -0.8367 -2.9282  0.4887
    7MOL   H442 6574   0.723   0.196   0.752  0.6246  0.0521  0.0235
    7MOL   H443 6575   0.476   7.974   0.564  0.4727 -0.4181  0.1963
    7MOL   H444 6576   0.365   0.090   0.380 -0.8720  0.4472 -1.9262
    7MOL   H445 6577   0.432   0.436   0.249  1.4763 -1.3256 -1.5633
    7MOL   H446 6578   0.394   0.284   0.014  0.6444  2.0265  1.7429
    7MOL   H447 6579   0.214   0.207   7.878  1.1896 -3.7243  0.9830
    7MOL   H448 6580   7.980   0.195   7.868 -2.5560 -0.2106 -0.5198
    7MOL   H449 6581   7.729   0.254   7.852  0.6598 -2.2892 -1.6768
    7MOL   H450 6582   7.501   0.221   7.944  0.3736  1.6090 -0.1447
    7MOL   H451 6583   7.383   7.973   0.128 -1.4930  1.0731 -0.2393
    7MOL   H452 6584   7.370   0.162   0.153  0.7672 -0.1745 -0.8688
    7MOL   H453 6585   7.676   7.929   0.255  0.8700 -0.9321 -0.3517
    7MOL   H454 6586   7.894   0.003   0.181  1.5253  1.1902  0.2208
    7MOL   H455 6587   7.952   0.202   0.257 -0.3003 -2.2493 -0.9006
    7MOL   H456 6588   0.176   0.281   0.390 -0.2499  0.9195 -0.5933
    7MOL   H457 6589   0.616   0.439   0.406  0.2864  0.1095 -2.1893
    7MOL   H458 6590   0.742   0.325   0.584  1.0268 -2.1106 -0.1194
    7MOL   H459 6591   0.759   0.042   0.965 -0.3550 -0.2911 -0.3569
    7MOL   H460 6592   0.777   7.824   1.053 -2.4883  0.4276  0.6795
    7MOL   N461 6593   7.410   0.053   0.329 -0.7984 -0.0733  0.5327
    7MOL   C462 6594   7.424   7.915   0.395  0.8335  0.0295  0.1334
    7MOL   C463 6595   7.483   7.804   0.326  0.1819 -0.7771 -0.7448
    7MOL   C464 6596   7.500   7.681   0.397  0.0856  0.1874  0.3805
    7MOL   C465 6597   7.468   7.668   0.534  0.0070 -0.7311 -0.2967
    7MOL   N466 6598   7.522   7.564   0.608 -0.0259  0.2539  0.1720
    7MOL   C467 6599   7.571   7.434   0.572  0.0191 -0.0350  0.5277
    7MOL   C468 6600   7.634   7.364   0.677  0.0783  0.2844  0.5386
    7MOL   C469 6601   7.661   7.231   0.656  0.2793 -0.0572  0.8637
    7MOL   C470 6602   7.634   7.164   0.537 -0.0284 -0.5446  0.1908
    7MOL   N471 6603   7.676   7.032   0.515  0.2454 -0.2990 -0.6084
    7MOL   C472 6604   7.670   6.926   0.607  0.3117  0.7435 -0.0627
    7MOL   C473 6605   7.577   6.930   0.712 -0.7697  0.0245 -1.0295
    7MOL   C474 6606   7.558   6.815   0.789  0.0685 -0.0825 -0.4742
    7MOL   C475 6607   7.635   6.699   0.769 -0.0526 -0.3036 -0.0600
    7MOL   N476 6608   7.623   6.576   0.837  0.1734  0.5319 -0.4679
    7MOL   C477 6609   7.511   6.514   0.892  0.1389  0.2797 -0.3017
    7MOL   C478 6610   7.382   6.559   0.864 -0.4772 -0.5897  0.4486
    7MOL   C479 6611   7.270   6.503   0.920  1.0810  0.6241 -0.1859
    7MOL   C480 6612   7.285   6.397   1.014  0.6006  0.0366  0.0017
    7MOL   C481 6613   7.158   6.340   1.066 -0.6458  0.3023  0.1046
    7MOL   C482 6614   7.409   6.341   1.038  0.1120  0.1089 -0.0221
    7MOL   C483 6615   7.520   6.399   0.969  0.9590  0.0988 -0.3128
    7MOL   C484 6616   7.729   6.698   0.662 -0.1021  1.0364 -0.5686
    7MOL   C485 6617   7.751   6.814   0.584  0.4078  0.0345  0.2510
    7MOL   C486 6618   7.573   7.236   0.430 -0.0845 -0.7200 -0.6159
    7MOL   C487 6619   7.540   7.373   0.449  0.3916  0.1264 -0.0357
    7MOL   C488 6620   7.396   7.774   0.600  0.2993 -0.2836 -0.0986
    7MOL   C489 6621   7.379   7.898   0.530 -0.3131  0.1193 -0.0790
    7MOL   H490 6622   7.394   0.136   0.385  3.6747  0.9187  0.5601
    7MOL   H491 6623   7.508   7.801   0.221  1.3583  1.5204 -0.5584
    7MOL   H492 6624   7.562   7.616   0.338  0.2796  2.7709 -2.4008
    7MOL   H493 6625   7.526   7.574   0.709 -2.5634  0.0669  0.3079
    7MOL   H494 6626   7.662   7.408   0.771  0.9122  0.2759  0.3005
    7MOL   H495 6627   7.714   7.179   0.735 -0.3759 -0.4080  1.0717
    7MOL   H496 6628   7.716   7.026   0.423  1.1287  1.3999 -0.3562
    7MOL   H497 6629   7.501   7.005   0.729 -1.6161 -1.2937  1.2530
    7MOL   H498 6630   7.479   6.834   0.860 -0.0272  1.9815 -1.0948
    7MOL   H499 6631   7.684   6.511   0.789 -1.1002  0.0504 -1.4390
    7MOL   H500 6632   7.371   6.637   0.791  3.1774  0.5259  0.9630
    7MOL   H501 6633   7.171   6.535   0.892  0.4274 -0.3501  0.9475
    7MOL   H502 6634   7.123   6.276   0.985 -1.0469 -0.8635  1.1929
    7MOL   H503 6635   7.098   6.430   1.082 -0.5937  0.4544 -0.5513
    7MOL   H504 6636   7.417   6.258   1.107  1.3904 -0.0072 -0.3009
    7MOL   H505 6637   7.621   6.365   0.986  1.2931  0.6752 -1.1087
    7MOL   H506 6638   7.775   6.603   0.641 -0.0908 -0.1272  4.1237
    7MOL   H507 6639   7.822   6.822   0.503  0.1273 -0.1010 -0.0082
    7MOL   H508 6640   7.541   7.180   0.343  2.1420  0.7120 -2.4109
    7MOL   H509 6641   7.486   7.418   0.368  0.6285  0.4397 -0.0203
    7MOL   H510 6642   7.363   7.776   0.703 -1.8926  1.6994 -0.8070
    7MOL   H511 6643   7.330   7.979   0.580  2.0306  1.0544  0.8005
    7MOL   N512 6644   7.152   6.293   1.202  0.0969 -0.2988 -0.3781
    7MOL   C513 6645   7.074   6.186   1.236  0.6203  0.2515 -0.5078
    7MOL   C514 6646   6.958   6.154   1.159  1.0796  0.5945 -0.3997
    7MOL   C515 6647   6.873   6.046   1.195 -0.3098 -0.4461  0.1189
    7MOL   C516 6648   6.910   5.960   1.298  0.3215  0.1634  0.4594
    7MOL   N517 6649   6.827   5.857   1.325  0.0539  0.0261 -0.2232
    7MOL   C518 6650   6.689   5.849   1.297  0.0956  0.1719  0.1406
    7MOL   C519 6651   6.638   5.731   1.247  0.1022 -0.6129 -0.2940
    7MOL   C520 6652   6.501   5.714   1.225  0.0065 -0.6953  0.2154
    7MOL   C521 6653   6.412   5.819   1.265 -0.2045 -0.7319  0.6199
    7MOL   N522 6654   6.272   5.797   1.250 -0.1253  0.2850  0.0785
    7MOL   C523 6655   6.175   5.807   1.349  0.4495 -0.1344  0.2336
    7MOL   C524 6656   6.042   5.770   1.318 -0.9358  0.3553  0.2236
    7MOL   C525 6657   5.948   5.768   1.418  0.3909 -0.3919 -0.0340
    7MOL   C526 6658   5.985   5.802   1.546  0.0003  0.3546 -0.3438
    7MOL   N527 6659   5.885   5.801   1.648 -0.4881 -0.5157  0.6020
    7MOL   C528 6660   5.907   5.820   1.784  0.0578  0.6686  0.7037
    7MOL   C529 6661   5.834   5.919   1.853 -1.0003  0.1962  0.3093
    7MOL   C530 6662   5.857   5.932   1.992  0.7097  0.7389 -0.6107
    7MOL   C531 6663   5.966   5.869   2.055  0.2368  0.2100 -0.5717
    7MOL   C532 6664   5.995   5.902   2.205 -0.0827 -0.1819  0.3641
    7MOL   C533 6665   6.044   5.782   1.982 -0.2161 -0.3673  0.4613
    7MOL   C534 6666   6.009   5.746   1.849  0.3872  0.0843 -0.4255
    7MOL   C535 6667   6.117   5.838   1.579 -0.3241  0.8078 -0.4531
    7MOL   C536 6668   6.208   5.844   1.477  0.5580 -0.3751  0.4056
    7MOL   C537 6669   6.467   5.935   1.314  0.3977  0.1379  0.1415
    7MOL   C538 6670   6.602   5.959   1.325  0.3128  0.1431  0.5388
    7MOL   C539 6671   7.029   5.979   1.371 -0.1462  0.4049  0.1475
    7MOL   C540 6672   7.109   6.095   1.345  0.0029  0.3922  0.1621
    7MOL   H541 6673   7.193   6.349   1.275 -1.1669 -2.2103  1.8649
    7MOL   H542 6674   6.916   6.213   1.080  0.3574 -0.0862 -0.5252
    7MOL   H543 6675   6.784   6.025   1.138 -0.1700  0.3047 -0.3880
    7MOL   H544 6676   6.864   5.766   1.346  0.5387 -0.2613 -2.2740
    7MOL   H545 6677   6.702   5.646   1.226  1.8196  0.8326 -0.9797
    7MOL   H546 6678   6.463   5.623   1.181  0.8208 -0.4592 -1.0064
    7MOL   H547 6679   6.253   5.731   1.176  0.4840  0.3532 -0.1437
    7MOL   H548 6680   6.018   5.732   1.219  3.3815 -0.0137 -0.7893
    7MOL   H549 6681   5.846   5.744   1.390  0.6650 -0.6406 -0.8362
    7MOL   H550 6682   5.788   5.788   1.622 -1.1139  0.6353  2.2615
    7MOL   H551 6683   5.749   5.967   1.805  1.1715  0.5624 -3.3468
    7MOL   H552 6684   5.796   5.997   2.053 -0.0353 -1.5639  1.1545
    7MOL   H553 6685   6.103   5.897   2.215  0.0580 -2.1702 -1.6656
    7MOL   H554 6686   5.964   5.812   2.259 -2.7511  0.5363  0.1145
    7MOL   H555 6687   6.131   5.739   2.029  1.6003  1.3153 -1.2627
    7MOL   H556 6688   6.069   5.673   1.797  2.3079  0.0643  1.7532
    7MOL   H557 6689   6.149   5.862   1.679  0.1000  2.0569 -0.8704
    7MOL   H558 6690   6.307   5.881   1.500  1.8473 -1.1288 -3.5889
    7MOL   H559 6691   6.402   6.017   1.342 -0.3719 -0.6098  0.5481
    7MOL   H560 6692   6.637   6.051   1.371 -0.0651  0.8558 -0.5881
    7MOL   H561 6693   7.046   5.917   1.457  0.2104  2.3354  1.4936
    7MOL   H562 6694   7.190   6.115   1.413 -0.3050 -0.0405  0.6563
    7MOL   N563 6695   5.953   6.027   2.260 -1.3332 -0.0545 -0.5236
    7MOL   C564 6696   5.980   6.154   2.206 -0.1034  0.7796 -0.2260
    7MOL   C565 6697   6.078   6.171   2.103 -0.1393  0.4754 -0.9627
    7MOL   C566 6698   6.110   6.296   2.048  0.4683 -0.8106  0.1693
    7MOL   C567 6699   6.040   6.411   2.100 -0.8885  0.2386 -0.3539
    7MOL   N568 6700   6.064   6.540   2.055 -0.0436  0.3081 -0.2157
    7MOL   C569 6701   6.111   6.571   1.928  0.1609  0.7509  0.0472
    7MOL   C570 6702   6.085   6.497   1.812 -0.4439  0.0084  0.6458
    7MOL   C571 6703   6.139   6.526   1.688 -0.6855  0.5499  0.0007
    7MOL   C572 6704   6.227   6.630   1.683 -0.2016 -0.3871  0.5048
    7MOL   N573 6705   6.309   6.636   1.567  0.0941 -0.1299 -0.7757
    7MOL   C574 6706   6.420   6.719   1.557 -0.1655 -0.2842 -0.2595
    7MOL   C575 6707   6.547   6.663   1.558  0.6630  0.2167 -0.2154
    7MOL   C576 6708   6.665   6.740   1.538  0.6739  0.0102 -0.3885
    7MOL   C577 6709   6.645   6.874   1.513 -0.7295 -0.0183  0.3959
    7MOL   N578 6710   6.754   6.959   1.483 -0.1451  0.5667 -0.5358
    7MOL   C579 6711   6.772   7.056   1.380 -0.0192 -0.0044  0.8202
    7MOL   C580 6712   6.684   7.063   1.268 -0.8157  0.3833 -0.2697
    7MOL   C581 6713   6.702   7.155   1.164 -0.1126  0.6337 -0.2680
    7MOL   C582 6714   6.812   7.242   1.164  1.2093 -0.4897 -0.9424
    7MOL   C583 6715   6.834   7.332   1.045 -0.4526 -0.2534 -0.2467
    7MOL   C584 6716   6.905   7.233   1.270  0.1437  0.6513  0.5134
    7MOL   C585 6717   6.881   7.145   1.374  0.1222  0.0094  0.6567
    7MOL   C586 6718   6.519   6.938   1.530  0.5024  0.3315 -0.5898
    7MOL   C587 6719   6.403   6.855   1.548  0.2074  0.4502 -0.1888
    7MOL   C588 6720   6.250   6.713   1.794 -0.0392  0.3164 -0.3319
    7MOL   C589 6721   6.188   6.685   1.916 -0.1451  0.1149  0.4243
    7MOL   C590 6722   5.959   6.395   2.221  0.1474 -0.0547 -0.1729
    7MOL   C591 6723   5.922   6.266   2.261 -0.8353  0.0061  0.3722
    7MOL   H592 6724   5.897   6.014   2.343  0.4281 -1.5778  0.4681
    7MOL   H593 6725   6.139   6.088   2.070  0.8001  0.1540  1.4461
    7MOL   H594 6726   6.179   6.299   1.965  0.2114  1.6704  0.0168
    7MOL   H595 6727   6.058   6.614   2.123 -1.8189 -0.2312  0.2278
    7MOL   H596 6728   6.009   6.421   1.804 -0.0739 -0.0705 -2.9009
    7MOL   H597 6729   6.114   6.468   1.600  0.2912  0.6537 -0.3451
    7MOL   H598 6730   6.284   6.584   1.484  0.8359 -1.9259  0.0753
    7MOL   H599 6731   6.560   6.557   1.573  0.2198 -0.0225 -1.4340
    7MOL   H600 6732   6.760   6.689   1.529  0.2886 -0.7911  0.0697
    7MOL   H601 6733   6.839   6.930   1.530 -0.2596 -0.0307 -0.6899
    7MOL   H602 6734   6.603   6.993   1.249 -0.1616 -0.0936 -1.3138
    7MOL   H603 6735   6.636   7.143   1.080 -0.7704  0.8310  0.2176
    7MOL   H604 6736   6.747   7.339   0.980 -0.4003 -0.0208 -0.2937
    7MOL   H605 6737   6.911   7.300   0.975  2.3546  0.0472  2.6010
    7MOL   H606 6738   6.991   7.297   1.272 -0.1188  0.9735  2.1470
    7MOL   H607 6739   6.959   7.151   1.448  0.2582 -0.2230  0.5323
    7MOL   H608 6740   6.516   7.046   1.528  0.9583  0.3690  0.6421
    7MOL   H609 6741   6.303   6.894   1.557  0.2296  0.7691 -1.1737
    7MOL   H610 6742   6.329   6.786   1.795  1.2876 -1.0700  2.9376
    7MOL   H611 6743   6.202   6.759   1.993  0.4826  0.6984 -0.2398
    7MOL   H612 6744   5.932   6.482   2.278  2.1466  0.0713  0.6348
    7MOL   H613 6745   5.846   6.250   2.336  0.4332 -2.1644  1.2680
    7MOL   N614 6746   6.883   7.453   1.094  0.1087  0.4187 -0.3704
    7MOL   C615 6747   6.780   7.544   1.129 -0.5224 -0.6690 -0.3620
    7MOL   C616 6748   6.649   7.506   1.162 -0.2350  0.4516  0.4491
    7MOL   C617 6749   6.552   7.610   1.186 -0.4488 -0.2921  0.4197
    7MOL   C618 6750   6.589   7.743   1.202 -0.2668  0.2925  0.0961
    7MOL   N619 6751   6.500   7.844   1.240 -0.1712  0.2251  0.0128
    7MOL   C620 6752   6.444   7.930   1.140 -0.7972  0.3370 -0.1991
    7MOL   C621 6753   6.323   0.012   1.170 -0.0564 -0.1087  0.0881
    7MOL   C622 6754   6.269   0.106   1.076  0.3298 -0.6738  0.4342
    7MOL   C623 6755   6.339   0.133   0.951 -0.3349  0.4520  0.0232
    7MOL   N624 6756   6.292   0.225   0.856 -0.1730 -0.4493  0.2550
    7MOL   C625 6757   6.159   0.266   0.834 -0.2612  0.3456  0.1625
    7MOL   C626 6758   6.051   0.175   0.831  0.4525 -0.1089 -0.6012
    7MOL   C627 6759   5.918   0.209   0.796 -0.6056  0.5907 -1.0212
    7MOL   C628 6760   5.889   0.346   0.772 -0.3785  0.6174  0.0778
    7MOL   N629 6761   5.758   0.381   0.749 -0.0589 -1.2341 -0.1745
    7MOL   C630 6762   5.644   0.291   0.746  0.1515 -0.3817  0.0972
    7MOL   C631 6763   5.550   0.302   0.849 -0.7000 -0.3149 -0.2076
    7MOL   C632 6764   5.443   0.212   0.840 -0.4125 -0.2717 -0.6998
    7MOL   C633 6765   5.422   0.120   0.736  0.0461 -0.0776  0.0792
    7MOL   C634 6766   5.301   0.025   0.728 -0.2757  0.3570  0.1484
    7MOL   C635 6767   5.525   0.112   0.640  0.5292 -0.0079 -0.3539
    7MOL   C636 6768   5.632   0.199   0.644  0.1399  0.4587  0.3357
    7MOL   C637 6769   5.996   0.443   0.784 -0.1372 -0.5893  0.1070
    7MOL   C638 6770   6.127   0.400   0.809  0.3825  0.2974 -0.1637
    7MOL   C639 6771   6.466   0.068   0.929  0.2988  0.0935  0.0059
    7MOL   C640 6772   6.518   7.961   1.028 -0.4175  0.6007  0.7140
    7MOL   C641 6773   6.724   7.778   1.182  0.0311  0.3426 -0.3657
    7MOL   C642 6774   6.813   7.679   1.139 -0.2222  0.2377  0.7224
    7MOL   H643 6775   6.973   7.485   1.063  0.9333  0.3085  1.8228
    7MOL   H644 6776   6.605   7.407   1.155 -1.4201  0.9476  0.7192
    7MOL   H645 6777   6.446   7.591   1.189 -0.5936  0.3229 -0.8057
    7MOL   H646 6778   6.439   7.829   1.319  1.8625 -2.0660  1.1671
    7MOL   H647 6779   6.267   7.974   1.260  1.7965  0.3225  1.3707
    7MOL   H648 6780   6.173   0.153   1.091  0.5314  0.4399 -1.5815
    7MOL   H649 6781   6.366   0.287   0.828 -1.3734  0.6564 -0.5551
    7MOL   H650 6782   6.068   0.068   0.829  0.4483 -0.1184 -0.2109
    7MOL   H651 6783   5.842   0.132   0.789  1.9088 -1.9983 -0.8615
    7MOL   H652 6784   5.729   0.472   0.784 -0.3995 -1.3239 -0.2257
    7MOL   H653 6785   5.567   0.373   0.928  0.2628  0.0623 -0.7488
    7MOL   H654 6786   5.374   0.212   0.923  0.9023  1.9348  0.4267
    7MOL   H655 6787   5.287   7.970   0.627 -1.4251 -0.8974  0.7660
    7MOL   H656 6788   5.214   0.086   0.754 -0.3195 -0.4459  1.9529
    7MOL   H657 6789   5.519   0.033   0.567  1.4191 -1.3146  0.9746
    7MOL   H658 6790   5.694   0.188   0.557 -0.0092  0.4347  0.2330
    7MOL   H659 6791   5.977   0.547   0.763 -0.3102 -1.1084 -2.5242
    7MOL   H660 6792   6.210   0.470   0.803  0.2725  0.3940 -0.6204
    7MOL   H661 6793   6.504   0.094   0.832 -0.0228  3.5687  0.7558
    7MOL   H662 6794   6.608   7.908   1.000 -1.4091  0.1839 -1.8755
    7MOL   H663 6795   6.756   7.882   1.177 -0.6809  0.5222 -1.1764
    7MOL   H664 6796   6.914   7.704   1.110  0.0100  0.3837  1.6548
    7MOL   N665 6797   5.309   7.891   0.830  0.7936  0.0676  0.4932
    7MOL   C666 6798   5.418   7.803   0.813 -0.9716 -0.5610  0.1855
    7MOL   C667 6799   5.490   7.760   0.930  0.7399  0.0919  0.9900
    7MOL   C668 6800   5.598   7.662   0.925 -0.2850 -0.9587 -0.3756
    7MOL   C669 6801   5.634   7.611   0.804 -0.1992 -0.3457  0.2604
    7MOL   N670 6802   5.738   7.525   0.797  0.1921 -0.8331  0.1407
    7MOL   C671 6803   5.774   7.447   0.687  0.2481  0.1952  0.6950
    7MOL   C672 6804   5.879   7.493   0.604  0.3330  0.3764  0.5749
    7MOL   C673 6805   5.917   7.421   0.488 -0.3023  0.0474 -0.6027
    7MOL   C674 6806   5.844   7.307   0.449 -0.2111  0.5085  0.2820
    7MOL   N675 6807   5.877   7.239   0.329  0.1961  0.0812  0.2871
    7MOL   C676 6808   5.798   7.142   0.267 -0.1406  0.5666 -0.2723
    7MOL   C677 6809   5.858   7.026   0.214  0.3025  0.5470  0.0526
    7MOL   C678 6810   5.783   6.930   0.142 -0.1925  0.4324  0.1869
    7MOL   C679 6811   5.647   6.960   0.109 -0.2758 -0.0678  0.9597
    7MOL   N680 6812   5.583   6.877   0.016 -0.0575  0.1624  0.4963
    7MOL   C681 6813   5.445   6.842   0.008  0.1163 -0.3643  1.0903
    7MOL   C682 6814   5.355   6.878   0.113 -0.5597 -0.0709 -0.2216
    7MOL   C683 6815   5.218   6.851   0.095 -0.3136 -0.0996 -0.1826
    7MOL   C684 6816   5.168   6.793   7.962 -0.4895  0.2291 -0.8512
    7MOL   C685 6817   5.021   6.763   7.949  0.4451  0.0702  0.1994
    7MOL   C686 6818   5.255   6.748   7.865  0.2977 -0.2448 -0.9096
    7MOL   C687 6819   5.397   6.773   7.879 -1.1667  0.1010  0.3727
    7MOL   C688 6820   5.593   7.076   0.162  1.3807 -0.5762 -0.6851
    7MOL   C689 6821   5.665   7.163   0.252  0.1750 -0.5423  0.5781
    7MOL   C690 6822   5.746   7.258   0.535  0.5008 -0.0811 -0.3599
    7MOL   C691 6823   5.713   7.321   0.661 -0.4358 -0.2874  0.0378
    7MOL   C692 6824   5.564   7.656   0.689 -0.9750 -0.2172 -0.2013
    7MOL   C693 6825   5.457   7.747   0.691  0.2876  0.3263 -0.2541
    7MOL   H694 6826   5.292   7.924   0.924 -1.8983 -0.1823  0.1564
    7MOL   H695 6827   5.447   7.797   1.022  1.8618  0.5800  1.3164
    7MOL   H696 6828   5.648   7.631   1.015 -1.2553 -0.0850  0.4763
    7MOL   H697 6829   5.803   7.516   0.874 -0.8199 -1.5505  0.9344
    7MOL   H698 6830   5.930   7.585   0.630  1.3550  0.6714 -2.3773
    7MOL   H699 6831   5.995   7.464   0.426  1.3089 -0.6402  0.9155
    7MOL   H700 6832   5.963   7.270   0.287  0.1870  0.9130  0.8837
    7MOL   H701 6833   5.958   7.002   0.247  0.3594 -0.1269 -0.5920
    7MOL   H702 6834   5.827   6.836   0.113 -0.7877  0.4225 -0.6882
    7MOL   H703 6835   5.649   6.831   7.937  0.7580 -0.5376  1.8712
    7MOL   H704 6836   5.390   6.918   0.208 -1.2916  2.3936 -0.9545
    7MOL   H705 6837   5.150   6.877   0.175 -0.4708 -0.5555 -0.1703
    7MOL   H706 6838   4.988   6.807   7.855  0.9789  0.4893  0.2062
    7MOL   H707 6839   4.972   6.810   0.052  1.1680  0.2784  0.5050
    7MOL   H708 6840   5.223   6.688   7.780  1.1850  2.1912 -3.0253
    7MOL   H709 6841   5.473   6.735   7.812 -0.0659  2.1183  0.4461
    7MOL   H710 6842   5.492   7.097   0.128  1.3247 -0.6411 -0.5560
    7MOL   H711 6843   5.630   7.261   0.278 -0.4989 -0.5357 -0.3357
    7MOL   H712 6844   5.686   7.171   0.513 -0.0855 -0.0601  1.0613
    7MOL   H713 6845   5.637   7.276   0.724  0.3095  0.8448  1.8026
    7MOL   H714 6846   5.594   7.612   0.595  1.4415 -0.0137  0.4493
    7MOL   H715 6847   5.408   7.775   0.598 -2.6387  1.6919  1.6208
    7MOL   N716 6848   4.990   6.621   7.955  0.2967  0.3743 -0.3056
    7MOL   C717 6849   4.877   6.562   0.026 -0.2331 -0.0818  0.1788
    7MOL   C718 6850   4.856   6.426   7.980 -0.3071  0.1284 -0.1096
    7MOL   C719 6851   4.747   6.356   0.061 -0.7823 -0.0109 -0.0070
    7MOL   C720 6852   4.663   6.430   0.150 -0.1152 -0.6763 -0.2481
    7MOL   N721 6853   4.566   6.362   0.230 -0.0133  0.3907 -0.2353
    7MOL   C722 6854   4.443   6.321   0.174  0.3580 -0.1253  0.7585
    7MOL   C723 6855   4.415   6.341   0.040 -0.3598  0.2675 -0.3102
    7MOL   C724 6856   4.300   6.284   7.961 -0.0450  0.2028 -0.5017
    7MOL   C725 6857   4.206   6.214   0.055 -0.5303  0.9839  0.8205
    7MOL   N726 6858   4.085   6.170   0.001  0.4132 -0.2157  0.2365
    7MOL   C727 6859   4.045   6.164   7.853  0.8356 -0.8354 -0.0110
    7MOL   C728 6860   4.106   6.082   7.761 -0.0593  0.7460 -0.0633
    7MOL   C729 6861   4.074   6.093   7.624 -0.2803  0.2346  0.1942
    7MOL   C730 6862   3.970   6.172   7.582 -0.2634  0.4674 -0.4374
    7MOL   N731 6863   3.937   6.174   7.441 -0.7127 -0.2129  0.0214
    7MOL   C732 6864   3.878   6.278   7.366 -0.3021  0.7328  0.0738
    7MOL   C733 6865   3.922   6.411   7.368 -0.2498  0.0750 -0.1292
    7MOL   C734 6866   3.862   6.515   7.290  0.4429  0.2929  0.1301
    7MOL   C735 6867   3.752   6.489   7.213 -0.5576  0.3365 -0.0548
    7MOL   C736 6868   3.682   6.603   7.137  0.5323 -0.2561  0.6264
    7MOL   C737 6869   3.695   6.357   7.210 -0.8448  0.6956  0.2475
    7MOL   C738 6870   3.758   6.252   7.287  0.2591 -0.0693  0.4268
    7MOL   C739 6871   3.897   6.244   7.676 -0.3590  0.3720  0.1924
    7MOL   C740 6872   3.936   6.245   7.811 -0.4396  0.2365 -0.9951
    7MOL   C741 6873   4.234   6.190   0.191 -0.3036  0.2048 -0.6721
    7MOL   C742 6874   4.352   6.242   0.250 -0.3961 -0.2504 -0.1446
    7MOL   C743 6875   4.685   6.569   0.168  0.7214  0.0831  0.8760
    7MOL   C744 6876   4.782   6.638   0.095  0.6768 -0.3564  0.2172
    7MOL   H745 6877   5.074   6.564   7.954 -0.0785 -0.2401  1.4891
    7MOL   H746 6878   4.918   6.364   7.917 -1.0398 -0.2313 -0.4746
    7MOL   H747 6879   4.724   6.252   0.044 -0.3513  0.4607 -3.8688
    7MOL   H748 6880   4.572   6.366   0.331  1.0837  2.5300 -0.3547
    7MOL   H749 6881   4.480   6.403   7.962  0.8220 -0.7684 -0.1076
    7MOL   H750 6882   4.281   6.305   7.856 -0.0485  0.2247 -0.4965
    7MOL   H751 6883   4.007   6.169   0.066  0.7390  0.5709  0.6556
    7MOL   H752 6884   4.176   6.011   7.804 -3.6510 -0.5511  4.0323
    7MOL   H753 6885   4.128   6.030   7.555  1.3256 -0.1551  1.7780
    7MOL   H754 6886   4.007   6.118   7.394 -0.2208  1.1613 -0.9061
    7MOL   H755 6887   4.008   6.433   7.430 -0.3619  0.2013 -0.0173
    7MOL   H756 6888   3.907   6.613   7.287  0.6271  0.2540  1.3247
    7MOL   H757 6889   3.653   6.566   7.039 -0.9217  1.1910  0.4777
    7MOL   H758 6890   3.746   6.688   7.115 -0.9781  0.4778 -1.0702
    7MOL   H759 6891   3.612   6.353   7.140 -0.1948  0.7200 -0.5280
    7MOL   H760 6892   3.724   6.150   7.274  0.1932  0.3089 -2.7365
    7MOL   H761 6893   3.824   6.317   7.643  0.3726 -0.1248 -2.6594
    7MOL   H762 6894   3.888   6.313   7.879 -1.4612 -1.7172  0.2854
    7MOL   H763 6895   4.163   6.143   0.257 -1.2014  1.4553 -0.7496
    7MOL   H764 6896   4.372   6.239   0.356  0.4912 -0.7342 -0.3271
    7MOL   H765 6897   4.624   6.638   0.224  0.2841  1.1287 -0.8283
    7MOL   H766 6898   4.782   6.746   0.100 -1.3083 -0.2766 -0.7800
    7MOL   N767 6899   3.554   6.644   7.196  0.3554 -0.0973 -0.2225
    7MOL   C768 6900   3.479   6.744   7.133 -0.9396 -0.1764 -0.2428
    7MOL   C769 6901   3.359   6.790   7.195 -0.2379  0.8182  0.5186
    7MOL   C770 6902   3.279   6.878   7.132  0.0564  0.2374 -0.1731
    7MOL   C771 6903   3.331   6.940   7.015  0.1467 -0.1479 -0.3358
    7MOL   N772 6904   3.244   7.033   6.963  0.2013  0.0915 -0.1771
    7MOL   C773 6905   3.191   7.138   7.023  0.0778  0.5940  0.2154
    7MOL   C774 6906   3.089   7.207   6.958 -0.0712 -0.2116  0.0989
    7MOL   C775 6907   3.051   7.333   7.003  0.2060 -0.1584 -0.0345
    7MOL   C776 6908   3.109   7.385   7.122 -0.1860  0.2538  0.1086
    7MOL   N777 6909   3.071   7.517   7.161  0.4500  0.0160  0.2414
    7MOL   C778 6910   3.015   7.558   7.284 -0.1297 -0.0751 -0.9929
    7MOL   C779 6911   3.011   7.695   7.314  0.4477  0.0169 -0.3466
    7MOL   C780 6912   2.974   7.734   7.444  0.5779 -0.2517 -0.2410
    7MOL   C781 6913   2.927   7.651   7.545  0.2402 -0.5273 -0.0473
    7MOL   N782 6914   2.900   7.713   7.665 -0.3434  0.1537  0.5862
    7MOL   C783 6915   2.864   7.657   7.791  0.3784 -0.4634 -0.3785
    7MOL   C784 6916   2.781   7.730   7.883  1.0831 -0.1148  0.8416
    7MOL   C785 6917   2.748   7.672   0.018 -0.5336  0.3867 -0.3776
    7MOL   C786 6918   2.796   7.545   0.061 -0.3781  0.7090 -0.0868
    7MOL   C787 6919   2.762   7.488   0.200 -0.2649  0.3167  0.3596
    7MOL   C788 6920   2.877   7.473   7.955  0.6223  0.8007 -0.1481
    7MOL   C789 6921   2.911   7.528   7.828  0.6297 -0.3399  0.4699
    7MOL   C790 6922   2.931   7.512   7.512 -0.3208  0.4847 -0.4552
    7MOL   C791 6923   2.975   7.464   7.386  0.4371 -0.8272  0.4507
    7MOL   C792 6924   3.207   7.312   7.193 -0.2223 -0.1327  0.4853
    7MOL   C793 6925   3.256   7.188   7.139 -0.4786 -0.0482  0.9478
    7MOL   C794 6926   3.456   6.912   6.955  0.2705  0.5377 -0.4156
    7MOL   C795 6927   3.530   6.803   7.015  0.0566  0.3493  0.5677
    7MOL   H796 6928   3.515   6.589   7.272  3.3449 -1.2785  0.5421
    7MOL   H797 6929   3.327   6.742   7.286  1.0309 -1.5937 -0.2663
    7MOL   H798 6930   3.184   6.906   7.176  0.8178  1.6513  0.6159
    7MOL   H799 6931   3.211   7.026   6.868  0.9889 -1.1345 -0.3765
    7MOL   H800 6932   3.035   7.161   6.877  0.1723 -1.5763  0.7006
    7MOL   H801 6933   2.982   7.390   6.943 -0.2844  0.4020  1.0310
    7MOL   H802 6934   3.108   7.581   7.092  1.5574 -0.2402  0.5930
    7MOL   H803 6935   3.045   7.767   7.241  1.2090 -0.6299 -0.6352
    7MOL   H804 6936   2.992   7.836   7.474  0.9541 -0.2970 -0.3156
    7MOL   H805 6937   2.865   7.805   7.643 -1.2106 -0.3780 -0.2763
    7MOL   H806 6938   2.738   7.826   7.859  1.9912  0.9168  3.1603
    7MOL   H807 6939   2.684   7.730   0.084 -0.0368  1.8556 -1.1618
    7MOL   H808 6940   2.779   7.380   0.199  0.6475  0.4636 -0.6905
    7MOL   H809 6941   2.655   7.501   0.221  0.2209  2.3414  1.8201
    7MOL   H810 6942   2.907   7.374   0.006 -0.2117  1.0181  1.2827
    7MOL   H811 6943   2.973   7.468   7.763 -1.5437 -0.4038 -1.6035
    7MOL   H812 6944   2.879   7.442   7.575  0.2642 -0.3524 -0.8934
    7MOL   H813 6945   2.985   7.357   7.374 -0.1960 -0.8382 -0.0034
    7MOL   H814 6946   3.265   7.346   7.277  0.9695 -1.4579  0.2138
    7MOL   H815 6947   3.338   7.135   7.186  0.1990 -0.8344 -1.0935
    7MOL   H816 6948   3.484   6.969   6.868  0.9535  0.1579 -0.4488
    7MOL   H817 6949   3.614   6.765   6.959  1.8632  1.9443  2.1263
    7MOL   N818 6950   2.830   7.564   0.307  0.0045 -0.2131  0.4007
    7MOL   C819 6951   2.825   7.524   0.442 -0.6826  0.5678 -0.0713
    7MOL   C820 6952   2.750   7.409   0.480 -0.0188  0.1515 -0.0881
    7MOL   C821 6953   2.714   7.391   0.616 -0.5233 -0.0802  0.2158
    7MOL   C822 6954   2.757   7.483   0.711  0.3061  0.0016  0.0333
    7MOL   N823 6955   2.717   7.483   0.848 -0.1867  0.9350 -0.1393
    7MOL   C824 6956   2.663   7.379   0.916 -0.0151  0.9077 -0.2097
    7MOL   C825 6957   2.704   7.246   0.887 -0.1788  0.1202 -0.4297
    7MOL   C826 6958   2.646   7.137   0.952  0.5143 -0.1911  0.6843
    7MOL   C827 6959   2.557   7.169   1.063  0.7424  0.4376 -0.0365
    7MOL   N828 6960   2.484   7.066   1.129  0.0799  0.2610 -0.3515
    7MOL   C829 6961   2.499   6.928   1.122 -0.0647  0.5000 -0.5843
    7MOL   C830 6962   2.626   6.861   1.118  0.1556 -0.2953  0.2825
    7MOL   C831 6963   2.644   6.720   1.109  0.2577  0.2565  0.2391
    7MOL   C832 6964   2.527   6.643   1.091  0.7252  0.2355 -0.0738
    7MOL   N833 6965   2.530   6.507   1.070 -1.2348 -0.4129 -0.6009
    7MOL   C834 6966   2.644   6.428   1.040  0.1751  0.3191 -0.7430
    7MOL   C835 6967   2.658   6.377   0.905  0.5156  0.4864 -0.9482
    7MOL   C836 6968   2.774   6.311   0.869  0.7457  0.2085 -1.1314
    7MOL   C837 6969   2.868   6.280   0.968 -0.2756 -0.1500  0.0541
    7MOL   C838 6970   3.006   6.232   0.918  0.3998 -0.8180 -0.4207
    7MOL   C839 6971   2.852   6.315   1.101  0.1000 -0.4785  0.1781
    7MOL   C840 6972   2.741   6.393   1.142  0.3301 -0.0737  0.3849
    7MOL   C841 6973   2.401   6.705   1.099 -0.2153  0.1838  0.3478
    7MOL   C842 6974   2.387   6.844   1.110  0.0660 -0.4249  0.1615
    7MOL   C843 6975   2.525   7.303   1.098  0.6015 -0.0042 -0.1283
    7MOL   C844 6976   2.575   7.406   1.019  0.3401  0.3563  0.1017
    7MOL   C845 6977   2.841   7.587   0.675  0.1692 -0.3928  0.5325
    7MOL   C846 6978   2.863   7.613   0.542  0.2778 -0.4748  0.1678
    7MOL   H847 6979   2.892   7.641   0.285 -0.5365  0.6441  1.8512
    7MOL   H848 6980   2.719   7.337   0.405  0.7667  1.5441 -1.8022
    7MOL   H849 6981   2.664   7.297   0.633  1.6403 -1.1296  0.9907
    7MOL   H850 6982   2.727   7.567   0.903  2.7930  0.6496 -0.1419
    7MOL   H851 6983   2.778   7.225   0.810  0.5322  0.9821  0.0039
    7MOL   H852 6984   2.660   7.035   0.919 -1.4713 -0.8620  1.8510
    7MOL   H853 6985   2.400   7.098   1.176  0.6432  1.4026 -0.1169
    7MOL   H854 6986   2.714   6.920   1.138 -1.3781  2.1114  0.1446
    7MOL   H855 6987   2.744   6.682   1.118  0.2049  0.2030  0.6105
    7MOL   H856 6988   2.440   6.461   1.075 -0.9719 -0.6979  2.0145
    7MOL   H857 6989   2.585   6.396   0.828 -0.2514 -1.5628 -0.7451
    7MOL   H858 6990   2.782   6.293   0.763 -0.8764  0.2555 -1.2671
    7MOL   H859 6991   3.082   6.293   0.967 -1.4649 -0.2025  1.8118
    7MOL   H860 6992   3.024   6.240   0.811 -1.1363  1.7991 -0.5137
    7MOL   H861 6993   2.931   6.289   1.169 -1.6938 -1.3467  1.9922
    7MOL   H862 6994   2.730   6.419   1.246 -2.2892  2.2384 -0.4174
    7MOL   H863 6995   2.315   6.640   1.094  0.8358 -1.1741 -0.2958
    7MOL   H864 6996   2.290   6.891   1.103  0.7509  0.6821 -2.7879
    7MOL   H865 6997   2.464   7.322   1.184  2.7862  0.3661  1.3779
    7MOL   H866 6998   2.561   7.507   1.054 -0.1280 -0.1339  1.3560
    7MOL   H867 6999   2.882   7.651   0.752 -2.1565 -0.0928  1.5680
    7MOL   H868 7000   2.925   7.697   0.517  2.6046 -1.6726  1.7674
    7MOL   N869 7001   3.032   6.095   0.958 -0.2349 -0.1737  0.5345
    7MOL   C870 7002   3.156   6.029   0.938 -0.4364  0.0425  0.1361
    7MOL   C871 7003   3.195   5.925   1.023  0.5196  0.2063 -0.3796
    7MOL   C872 7004   3.322   5.867   1.016 -0.3066  0.6302  0.0575
    7MOL   C873 7005   3.417   5.910   0.926 -0.0282  0.0361  0.3350
    7MOL   N874 7006   3.550   5.866   0.938 -0.1742 -0.0183 -0.0995
    7MOL   C875 7007   3.612   5.745   0.981  0.3367 -0.0164 -0.7246
    7MOL   C876 7008   3.740   5.759   1.025  0.0104  0.0395  0.3916
    7MOL   C877 7009   3.813   5.642   1.066  0.0401  0.1346  0.2467
    7MOL   C878 7010   3.759   5.514   1.061  0.4464  0.8647  0.0927
    7MOL   N879 7011   3.836   5.409   1.103 -0.6112  0.3418  0.6144
    7MOL   C880 7012   3.871   5.297   1.030  0.6314  0.1203 -0.4030
    7MOL   C881 7013   3.931   5.196   1.106  0.5442  0.5411 -0.0311
    7MOL   C882 7014   3.949   5.068   1.045 -0.2754  0.5410  0.4028
    7MOL   C883 7015   3.906   5.052   0.911 -1.1265  0.6751  0.6005
    7MOL   N884 7016   3.928   4.928   0.852 -0.5883  0.0616 -0.3301
    7MOL   C885 7017   4.026   4.886   0.763  1.0630 -0.3395 -0.0091
    7MOL   C886 7018   4.063   4.973   0.658 -0.7638 -0.7092 -0.4044
    7MOL   C887 7019   4.153   4.925   0.562 -0.0407  0.2507 -0.1269
    7MOL   C888 7020   4.210   4.798   0.576 -0.4150  0.1066  0.1067
    7MOL   C889 7021   4.286   4.741   0.464  0.5925 -0.0839 -0.6450
    7MOL   C890 7022   4.169   4.715   0.680  0.5153 -0.0080  0.6262
    7MOL   C891 7023   4.073   4.754   0.773 -0.5896  0.7718  0.9729
    7MOL   C892 7024   3.858   5.157   0.834 -0.1675  0.0392  0.5579
    7MOL   C893 7025   3.844   5.282   0.895 -0.4159  0.3458  0.7044
    7MOL   C894 7026   3.624   5.496   1.016  0.5382  0.7040  0.0489
    7MOL   C895 7027   3.550   5.616   0.982 -0.5262  0.2412 -0.1083
    7MOL   C896 7028   3.388   6.020   0.841  0.2896  0.5987  0.7057
    7MOL   C897 7029   3.255   6.077   0.851  0.2018  0.1708 -0.0007
    7MOL   H898 7030   2.980   6.056   1.034  0.1692 -0.7628  0.5070
    7MOL   H899 7031   3.124   5.881   1.091  0.0364 -0.8969 -1.5656
    7MOL   H900 7032   3.339   5.783   1.081 -2.1378  0.5628  0.4982
    7MOL   H901 7033   3.618   5.933   0.905  0.5049 -0.1971  0.9205
    7MOL   H902 7034   3.791   5.855   1.030  1.3443 -0.6823  0.8439
    7MOL   H903 7035   3.918   5.658   1.088  0.3256 -0.0100 -0.9773
    7MOL   H904 7036   3.896   5.425   1.183 -0.1771  0.6628  0.2213
    7MOL   H905 7037   3.946   5.208   1.212 -0.3530  0.9743  0.0501
    7MOL   H906 7038   3.999   4.990   1.101  1.8477  0.4934 -1.4454
    7MOL   H907 7039   3.898   4.850   0.908  0.2316 -0.3191 -0.4228
    7MOL   H908 7040   4.027   5.074   0.643  1.8632  0.1144 -1.3933
    7MOL   H909 7041   4.173   4.998   0.485  2.7292 -0.5992 -0.2437
    7MOL   H910 7042   4.212   4.709   0.391  0.9076 -1.0559 -0.5569
    7MOL   H911 7043   4.329   4.647   0.501  0.3679  0.5723  1.3235
    7MOL   H912 7044   4.209   4.615   0.674  0.5505 -0.0311  1.2095
    7MOL   H913 7045   4.044   4.692   0.856  1.1626 -0.5376  0.6418
    7MOL   H914 7046   3.844   5.149   0.727 -0.9918  1.0650  0.5775
    7MOL   H915 7047   3.820   5.368   0.834 -1.9708  1.3140  2.6205
    7MOL   H916 7048   3.567   5.405   1.013  0.3484  0.8516 -1.6803
    7MOL   H917 7049   3.447   5.611   0.951 -0.7529 -1.1538  0.7953
    7MOL   H918 7050   3.467   6.064   0.783 -1.2587  1.3494 -0.8747
    7MOL   H919 7051   3.236   6.163   0.789 -0.2952 -0.2742 -0.4709
    7MOL   N920 7052   4.386   4.830   0.406 -0.4654  0.3684  0.5776
    7MOL   C921 7053   4.498   4.888   0.467 -1.2036 -0.6797  1.0011
    7MOL   C922 7054   4.571   4.996   0.402 -0.1810 -0.1881 -0.4688
    7MOL   C923 7055   4.698   5.035   0.446 -0.1943 -0.6148  0.0394
    7MOL   C924 7056   4.745   4.987   0.569  0.3961 -0.4990 -0.2300
    7MOL   N925 7057   4.874   5.022   0.619 -0.1456  0.0167 -0.4588
    7MOL   C926 7058   4.952   5.138   0.597  0.0023  0.8396 -0.1729
    7MOL   C927 7059   4.893   5.260   0.551  1.0564  0.9579 -0.4491
    7MOL   C928 7060   4.972   5.370   0.535  0.3551  0.3166 -0.2922
    7MOL   C929 7061   5.115   5.371   0.546 -0.1235 -0.6682  1.0843
    7MOL   N930 7062   5.191   5.484   0.523  0.2516 -0.2103 -0.8266
    7MOL   C931 7063   5.161   5.593   0.442  0.1341 -0.1495 -0.0775
    7MOL   C932 7064   5.114   5.567   0.312 -0.0528 -0.3781 -0.4550
    7MOL   C933 7065   5.087   5.677   0.227 -0.4439 -0.5051  0.4938
    7MOL   C934 7066   5.103   5.813   0.274  0.1330 -0.4674 -0.1616
    7MOL   N935 7067   5.063   5.918   0.192  0.0404 -0.0067 -0.4696
    7MOL   C936 7068   5.110   6.048   0.221 -0.1864 -0.0859 -0.2589
    7MOL   C937 7069   5.246   6.080   0.222 -0.0811  0.5542 -0.0903
    7MOL   C938 7070   5.286   6.213   0.231  0.4214 -0.5180  0.8828
    7MOL   C939 7071   5.188   6.318   0.236  1.0025 -0.7077 -0.6701
    7MOL   C940 7072   5.232   6.466   0.246 -0.3577 -0.2666  0.2048
    7MOL   C941 7073   5.051   6.287   0.247  0.5398  0.9656 -0.1198
    7MOL   C942 7074   5.016   6.151   0.233  0.4982 -0.0427 -0.7897
    7MOL   C943 7075   5.158   5.833   0.400  0.4421  0.2935 -0.5568
    7MOL   C944 7076   5.191   5.724   0.482  0.0239  0.3832 -0.1366
    7MOL   C945 7077   5.171   5.243   0.565 -0.6296  0.1451  0.0105
    7MOL   C946 7078   5.091   5.130   0.594 -0.0862 -0.6938 -0.8427
    7MOL   C947 7079   4.667   4.904   0.649 -0.8676  0.2257  0.2669
    7MOL   C948 7080   4.551   4.842   0.589  0.0833  0.3350 -0.2170
    7MOL   H949 7081   4.365   4.860   0.312  0.5016 -0.9502 -0.0758
    7MOL   H950 7082   4.541   5.030   0.304 -1.1819  0.2414 -0.0255
    7MOL   H951 7083   4.759   5.091   0.377  0.7989 -0.0697  1.3350
    7MOL   H952 7084   4.915   4.945   0.670 -1.5594  0.5085  1.4657
    7MOL   H953 7085   4.786   5.269   0.548  1.0011  0.2036 -0.6666
    7MOL   H954 7086   4.920   5.465   0.531  1.0627  0.7663  0.7320
    7MOL   H955 7087   5.252   5.510   0.599 -2.8985  0.6893  1.5377
    7MOL   H956 7088   5.089   5.466   0.285 -0.9302 -0.3597  0.2870
    7MOL   H957 7089   5.036   5.655   0.135  0.0154  2.1446 -0.4455
    7MOL   H958 7090   4.966   5.912   0.167 -0.3668 -2.3135  1.5189
    7MOL   H959 7091   5.319   6.001   0.210 -1.3200 -0.6163  0.0646
    7MOL   H960 7092   5.391   6.240   0.228  0.3850 -0.3350  1.2460
    7MOL   H961 7093   5.203   6.488   0.349 -0.0575 -0.1987  0.2776
    7MOL   H962 7094   5.179   6.518   0.167  1.6867 -1.0474 -1.7377
    7MOL   H963 7095   4.980   6.365   0.268  1.7211  2.1129 -0.2868
    7MOL   H964 7096   4.914   6.115   0.243  0.6236 -0.2631 -0.3157
    7MOL   H965 7097   5.178   5.934   0.432  1.9029 -0.2406  0.2427
    7MOL   H966 7098   5.232   5.745   0.580  1.2262 -0.7220 -0.3803
    7MOL   H967 7099   5.276   5.219   0.560 -0.5210 -0.5074  3.9141
    7MOL   H968 7100   5.136   5.034   0.616  1.2532  0.0257 -0.4462
    7MOL   H969 7101   4.706   4.878   0.747  0.1345 -2.0960 -0.7149
    7MOL   H970 7102   4.488   4.772   0.642 -0.1239  0.1829 -0.6586
    7MOL   N971 7103   5.374   6.488   0.232 -0.1726 -0.3921  0.2564
    7MOL   C972 7104   5.446   6.491   0.115  0.1583 -0.2093 -0.0346
    7MOL   C973 7105   5.392   6.438   7.982 -0.8345 -0.6182 -0.0764
    7MOL   C974 7106   5.483   6.428   7.873 -0.0022 -0.5043  0.3648
    7MOL   C975 7107   5.621   6.469   7.884 -0.3722  0.4626 -0.3288
    7MOL   N976 7108   5.698   6.453   7.767 -0.1543 -0.5281 -0.1241
    7MOL   C977 7109   5.826   6.510   7.752  0.1261 -0.0441 -0.4216
    7MOL   C978 7110   5.927   6.439   7.687 -0.2320  0.7259 -0.4054
    7MOL   C979 7111   6.045   6.496   7.649  0.0959 -0.2093  0.0928
    7MOL   C980 7112   6.068   6.629   7.674 -0.7337  0.3713  0.5257
    7MOL   N981 7113   6.191   6.683   7.640  0.1320 -0.1793 -0.1102
    7MOL   C982 7114   6.287   6.618   7.553  0.6474 -0.3152 -0.5526
    7MOL   C983 7115   6.367   6.509   7.591 -0.7409 -0.9707 -0.5716
    7MOL   C984 7116   6.462   6.456   7.496  0.1647  0.2440 -0.6693
    7MOL   C985 7117   6.477   6.514   7.374  0.3090  0.4665 -0.6609
    7MOL   N986 7118   6.577   6.480   7.278  0.5476  0.5748  0.8696
    7MOL   C987 7119   6.612   6.347   7.241 -1.0357  0.3076  0.1853
    7MOL   C988 7120   6.744   6.323   7.189  0.5850 -0.1137 -0.1799
    7MOL   C989 7121   6.776   6.193   7.149 -0.6194  0.0162 -0.4835
    7MOL   C990 7122   6.692   6.080   7.167  0.5837 -0.0207 -0.5043
    7MOL   C991 7123   6.736   5.943   7.125  0.0397 -0.3329  0.0640
    7MOL   C992 7124   6.571   6.102   7.235 -0.1411  0.9605  0.0922
    7MOL   C993 7125   6.525   6.232   7.259  0.1492  0.5755  0.0299
    7MOL   C994 7126   6.395   6.628   7.334 -0.0366 -0.0342  0.0761
    7MOL   C995 7127   6.303   6.678   7.428  0.2618 -0.3627 -0.1890
    7MOL   C996 7128   5.979   6.707   7.750 -0.4532  0.0208  0.4465
    7MOL   C997 7129   5.857   6.645   7.786 -1.3005  0.4742 -0.1376
    7MOL   C998 7130   5.666   6.527   0.016  0.5673  0.2345  0.4003
    7MOL   C999 7131   5.577   6.539   0.125 -0.3585 -0.4285 -0.0829
    7MOL     H1 7132   5.416   6.542   0.307 -0.3072  2.7825 -1.8759
    7MOL     H2 7133   5.292   6.396   7.973 -0.3411 -1.5200 -1.5782
    7MOL     H3 7134   5.435   6.386   7.786  1.5912 -0.9817 -0.3041
    7MOL     H4 7135   5.688   6.370   7.712  2.1036 -2.4489  2.2310
    7MOL     H5 7136   5.914   6.335   7.661  5.7585 -0.8587  2.1228
    7MOL     H6 7137   6.111   6.434   7.589 -2.7152 -1.7909 -1.4700
    7MOL     H7 7138   6.190   6.782   7.624  0.5524  0.1546  1.8318
    7MOL     H8 7139   6.363   6.470   7.692 -1.3996 -1.5033 -0.8005
    7MOL     H9 7140   6.527   6.373   7.521  1.9292  1.4383 -1.1869
    7MOL    H10 7141   6.635   6.561   7.262  3.0347 -0.7205  2.9167
    7MOL    H11 7142   6.812   6.407   7.182 -1.5727  1.7208 -0.0022
    7MOL    H12 7143   6.879   6.177   7.121 -0.0788 -2.9318  2.7769
    7MOL    H13 7144   6.650   5.897   7.076  0.3349  0.9120 -1.6934
    7MOL    H14 7145   6.767   5.873   7.202 -2.3878 -1.6849 -0.1252
    7MOL    H15 7146   6.492   6.030   7.248 -0.7676  1.8679  1.3765
    7MOL    H16 7147   6.429   6.254   7.303 -0.3179 -0.1965 -0.5925
    7MOL    H17 7148   6.402   6.666   7.234  0.0507 -2.4061 -0.8524
    7MOL    H18 7149   6.239   6.760   7.398 -0.9133 -2.5333 -3.9968
    7MOL    H19 7150   6.014   6.806   7.777  0.2868 -0.0572 -0.2243
    7MOL    H20 7151   5.792   6.715   7.837  0.1683  2.5607 -1.0424
    7MOL    H21 7152   5.770   6.551   0.029 -0.0328  2.1586  1.6656
    7MOL    H22 7153   5.618   6.573   0.219  0.0881  1.1793 -0.8445
    7MOL    H23 7154   6.821   5.929   7.058  0.7524 -0.1371  0.9298
    8MOL     N1 7155   2.795   7.580   3.461 -1.0215  0.2580 -0.0232
    8MOL     C2 7156   2.764   7.688   3.377  0.2171  0.0393  0.5303
    8MOL     C3 7157   2.654   7.675   3.284  0.0652  0.5343 -0.3632
    8MOL     C4 7158   2.610   7.787   3.210  0.0924  0.2352  0.0457
    8MOL     C5 7159   2.667   7.913   3.230 -0.1170 -0.0218  0.1873
    8MOL     N6 7160   2.613   0.036   3.161  0.0280 -0.7490  0.0984
    8MOL     C7 7161   2.672   0.146   3.108 -0.3799 -0.4439 -0.0778
    8MOL     C8 7162   2.809   0.180   3.116  0.2230 -0.0497  0.0193
    8MOL     C9 7163   2.862   0.297   3.050  0.5795  0.3409 -0.3820
    8MOL    C10 7164   2.777   0.376   2.966  0.0954  0.3695 -0.8453
    8MOL    N11 7165   2.829   0.477   2.882 -0.6978  0.6406 -0.1801
    8MOL    C12 7166   2.768   0.593   2.833 -0.3134  0.2853  1.4654
    8MOL    C13 7167   2.647   0.639   2.890 -0.7472  0.4029  0.1262
    8MOL    C14 7168   2.594   0.760   2.844 -0.3488  0.1880 -0.4888
    8MOL    C15 7169   2.645   0.827   2.735  0.0543 -0.1918  0.4007
    8MOL    N16 7170   2.570   0.930   2.676  0.0871 -0.2013 -0.5754
    8MOL    C17 7171   2.601   1.027   2.582 -0.3850  0.1925  0.3618
    8MOL    C18 7172   2.719   1.098   2.594 -0.0820 -0.1194 -0.0942
    8MOL    C19 7173   2.755   1.185   2.493 -0.0002  0.0556  0.7042
    8MOL    C20 7174   2.669   1.225   2.389 -0.5704  0.1712  0.3731
    8MOL    C21 7175   2.718   1.325   2.284 -0.4387 -0.4562 -0.1006
    8MOL    C22 7176   2.553   1.151   2.375 -0.2041 -0.3834 -0.7339
    8MOL    C23 7177   2.521   1.044   2.466  0.6662  0.5470 -0.3699
    8MOL    C24 7178   2.765   0.779   2.682  0.6296 -0.2115  0.0105
    8MOL    C25 7179   2.827   0.666   2.729 -0.6076  0.4551 -0.3119
    8MOL    C26 7180   2.640   0.344   2.960  1.0669  0.4849  0.2183
    8MOL    C27 7181   2.594   0.229   3.023 -0.1625  0.5616 -0.3048
    8MOL    C28 7182   2.779   7.928   3.319  0.1449  0.3789 -0.2092
    8MOL    C29 7183   2.826   7.814   3.388  0.4382  0.6427  0.0540
    8MOL    H30 7184   2.876   7.585   3.521 -2.3157  1.9235  1.6789
    8MOL    H31 7185   2.602   7.581   3.278  0.5387  0.2411  0.0916
    8MOL    H32 7186   2.528   7.788   3.140  0.1240  0.3444  0.0102
    8MOL    H33 7187   2.512   0.039   3.160  0.0378 -0.2479  0.1821
    8MOL    H34 7188   2.878   0.123   3.176  0.8338 -0.0087 -0.6285
    8MOL    H35 7189   2.964   0.325   3.073  1.6263 -2.3969 -1.4809
    8MOL    H36 7190   2.923   0.459   2.850 -1.8936  0.3252 -3.7952
    8MOL    H37 7191   2.614   0.601   2.986  0.1075  1.1039  0.6989
    8MOL    H38 7192   2.510   0.803   2.895 -0.3721 -0.1085 -0.2784
    8MOL    H39 7193   2.474   0.929   2.706  0.0634  1.3472 -0.5260
    8MOL    H40 7194   2.792   1.072   2.670 -1.7157  0.4778  1.7143
    8MOL    H41 7195   2.851   1.233   2.491  0.1318 -0.1285  2.1287
    8MOL    H42 7196   2.695   1.283   2.187 -2.2938  2.1432 -0.8669
    8MOL    H43 7197   2.826   1.336   2.284 -0.5125  0.6842 -2.5220
    8MOL    H44 7198   2.494   1.152   2.285  0.2768 -1.2492 -1.0589
    8MOL    H45 7199   2.428   0.991   2.449  0.6673  0.2850  0.4058
    8MOL    H46 7200   2.805   0.828   2.594  0.9536  0.7703  0.6998
    8MOL    H47 7201   2.926   0.639   2.697  1.1202  1.4594  3.8699
    8MOL    H48 7202   2.569   0.399   2.901 -0.9721 -1.8544  0.4476
    8MOL    H49 7203   2.491   0.202   3.004  0.1193 -1.2343  0.6046
    8MOL    H50 7204   2.825   0.040   3.344 -0.4946  0.7539 -0.4242
    8MOL    H51 7205   2.899   7.822   3.468 -0.1757 -0.7204  0.7607
    8MOL    H52 7206   2.788   7.484   3.430  0.3550  0.1016  0.1262
    8MOL    N53 7207   2.646   1.447   2.282  0.2330 -1.0306  0.2265
    8MOL    C54 7208   2.675   1.547   2.189 -0.7457 -0.6006 -0.2277
    8MOL    C55 7209   2.787   1.543   2.101  0.9170  0.2842 -0.1009
    8MOL    C56 7210   2.792   1.638   1.989 -0.3720  0.1523  0.5733
    8MOL    C57 7211   2.690   1.732   1.975  0.7131 -0.0216 -0.0701
    8MOL    N58 7212   2.700   1.830   1.875 -0.1834 -0.0774  0.3954
    8MOL    C59 7213   2.654   1.963   1.865  0.5824  0.1758 -0.0568
    8MOL    C60 7214   2.624   2.039   1.978  0.5518 -0.0553 -0.3873
    8MOL    C61 7215   2.578   2.175   1.968 -0.2763 -0.0631  0.0434
    8MOL    C62 7216   2.565   2.231   1.834  0.1067  0.3671 -0.1139
    8MOL    N63 7217   2.534   2.371   1.815  0.6571 -0.1974  0.4113
    8MOL    C64 7218   2.561   2.451   1.706  0.0875  0.9676  0.3838
    8MOL    C65 7219   2.687   2.458   1.641  0.0539 -0.1264  0.3159
    8MOL    C66 7220   2.711   2.536   1.523  0.2265 -0.5774  0.6023
    8MOL    C67 7221   2.603   2.605   1.472  0.1558 -0.1161 -0.1363
    8MOL    N68 7222   2.620   2.682   1.358  0.2674 -0.3890  0.1596
    8MOL    C69 7223   2.613   2.818   1.346  0.4492  0.1203 -0.6060
    8MOL    C70 7224   2.571   2.883   1.228 -0.3569 -0.4332  0.7985
    8MOL    C71 7225   2.565   3.025   1.213  0.0354  0.1597  0.0553
    8MOL    C72 7226   2.605   3.106   1.322  0.1908 -0.1526 -0.3065
    8MOL    C73 7227   2.617   3.253   1.309 -0.7922  0.0467  0.1863
    8MOL    C74 7228   2.641   3.042   1.449  0.2969 -0.8366  0.3068
    8MOL    C75 7229   2.647   2.898   1.457  0.0908  0.7856  0.1795
    8MOL    C76 7230   2.477   2.595   1.530  0.7032  0.4185 -0.3848
    8MOL    C77 7231   2.459   2.521   1.650 -0.4252  0.7070  0.2593
    8MOL    C78 7232   2.583   2.151   1.722  0.0939  0.1211 -0.2526
    8MOL    C79 7233   2.633   2.021   1.740  0.3906  0.1624 -0.3339
    8MOL    C80 7234   2.592   1.741   2.068  0.0814 -0.5178 -0.2544
    8MOL    C81 7235   2.580   1.646   2.175 -0.3477 -0.0505 -0.1247
    8MOL    H82 7236   2.551   1.448   2.318  0.7525 -0.0746  1.6083
    8MOL    H83 7237   2.856   1.460   2.101  0.0376 -0.5000  2.0391
    8MOL    H84 7238   2.880   1.643   1.926  0.0301 -0.8222  1.0400
    8MOL    H85 7239   2.777   1.808   1.814  2.2011  1.5845  2.6811
    8MOL    H86 7240   2.641   1.995   2.075 -1.2407 -0.9918 -0.4689
    8MOL    H87 7241   2.550   2.234   2.053  0.0845 -0.8331  0.7058
    8MOL    H88 7242   2.478   2.414   1.887  2.2803  0.4774  1.3037
    8MOL    H89 7243   2.770   2.404   1.683  0.6601 -0.7342 -1.6171
    8MOL    H90 7244   2.809   2.545   1.477 -0.3314  0.6789 -0.3643
    8MOL    H91 7245   2.667   2.634   1.283  2.2516 -1.9022  2.3070
    8MOL    H92 7246   2.544   2.827   1.139  3.8963 -2.4947  0.6661
    8MOL    H93 7247   2.537   3.074   1.120 -1.4117  0.7770  0.8063
    8MOL    H94 7248   2.609   3.290   1.207 -0.9392 -1.8855 -0.5178
    8MOL    H95 7249   2.721   3.267   1.339 -0.2840 -1.9215 -0.5713
    8MOL    H96 7250   2.671   3.093   1.539  1.2129  0.4244 -0.6981
    8MOL    H97 7251   2.659   2.856   1.556 -1.2518  3.3370  1.4672
    8MOL    H98 7252   2.399   2.656   1.488  0.2955 -0.3461 -0.7492
    8MOL    H99 7253   2.366   2.503   1.701  0.0276  1.2526  1.2853
    8MOL   H100 7254   2.577   2.196   1.624  0.5184 -1.3032 -0.9395
    8MOL   H101 7255   2.655   1.960   1.654 -1.1614  0.1648 -0.7507
    8MOL   H102 7256   2.514   1.813   2.052  0.5722  0.2438  0.7474
    8MOL   H103 7257   2.490   1.645   2.236 -1.4402 -0.1486 -1.7174
    8MOL   N104 7258   2.526   3.323   1.397 -0.2547  0.1258 -1.0997
    8MOL   C105 7259   2.561   3.445   1.456  0.2687 -0.8003 -0.5297
    8MOL   C106 7260   2.495   3.495   1.568 -0.2310  0.4281  0.6126
    8MOL   C107 7261   2.520   3.621   1.621  0.0674  0.1247  0.3872
    8MOL   C108 7262   2.617   3.704   1.556 -0.1052 -0.2358 -0.4658
    8MOL   N109 7263   2.657   3.832   1.602  0.3096 -0.1128 -0.2935
    8MOL   C110 7264   2.594   3.918   1.699 -0.3917 -0.2150 -0.4469
    8MOL   C111 7265   2.456   3.910   1.726  0.2186 -0.8019 -0.3418
    8MOL   C112 7266   2.406   3.993   1.826  0.6747  0.5854  0.6483
    8MOL   C113 7267   2.481   4.082   1.902 -0.1569  0.3666  0.1358
    8MOL   N114 7268   2.423   4.159   2.002 -0.3085 -0.6821  0.1627
    8MOL   C115 7269   2.482   4.261   2.081  0.3542 -0.0231 -0.7775
    8MOL   C116 7270   2.435   4.394   2.078 -0.2992  0.0312  0.4497
    8MOL   C117 7271   2.480   4.476   2.184 -0.2441 -0.5700  0.3265
    8MOL   C118 7272   2.580   4.435   2.280  0.9967  0.5343  0.0424
    8MOL   N119 7273   2.619   4.519   2.385 -0.3429  0.2322  0.6471
    8MOL   C120 7274   2.546   4.612   2.456  0.3092 -0.4850  0.1567
    8MOL   C121 7275   2.404   4.604   2.474  0.1965  0.0030 -0.1612
    8MOL   C122 7276   2.341   4.703   2.549 -0.5540 -0.5002 -0.5431
    8MOL   C123 7277   2.413   4.809   2.602  0.8486 -0.4932  0.2608
    8MOL   C124 7278   2.340   4.929   2.668  0.7345  0.0069 -0.4717
    8MOL   C125 7279   2.552   4.810   2.594  0.2020  0.0496 -0.5860
    8MOL   C126 7280   2.618   4.712   2.522  0.2801  0.0227 -0.0617
    8MOL   C127 7281   2.641   4.309   2.266 -0.1381 -0.1857  0.8256
    8MOL   C128 7282   2.584   4.221   2.168  0.6918  0.1201 -0.3334
    8MOL   C129 7283   2.619   4.086   1.877  0.2525 -0.6007 -1.1497
    8MOL   C130 7284   2.678   4.007   1.775  0.1550  0.2564 -0.8956
    8MOL   C131 7285   2.690   3.649   1.445  0.2744  0.0354 -0.3911
    8MOL   C132 7286   2.657   3.523   1.389  0.4888  0.3982  0.1157
    8MOL   H133 7287   2.476   3.257   1.456  1.1950 -1.5882 -1.7421
    8MOL   H134 7288   2.428   3.429   1.621  1.1280 -1.9247 -0.4865
    8MOL   H135 7289   2.472   3.651   1.713  1.4902  1.0438  0.8583
    8MOL   H136 7290   2.718   3.885   1.541  1.2594  0.1174  0.8322
    8MOL   H137 7291   2.382   3.855   1.668 -0.1757 -0.8550  0.2084
    8MOL   H138 7292   2.301   3.980   1.846  0.7716 -0.3533  0.5356
    8MOL   H139 7293   2.324   4.145   2.014 -0.6287  0.9303 -0.5582
    8MOL   H140 7294   2.362   4.433   2.008 -1.1641 -1.4426  0.5215
    8MOL   H141 7295   2.445   4.578   2.186  0.0153 -0.4310 -1.5596
    8MOL   H142 7296   2.714   4.553   2.376 -0.6148  0.6681 -0.6760
    8MOL   H143 7297   2.350   4.520   2.434  0.2771 -0.4944  0.7623
    8MOL   H144 7298   2.234   4.712   2.563 -0.3430  0.1981  0.7124
    8MOL   H145 7299   2.253   4.957   2.609  0.3756  0.0066  0.0454
    8MOL   H146 7300   2.398   5.021   2.678 -0.6937  0.8991 -0.2840
    8MOL   H147 7301   2.608   4.894   2.632  1.3309 -1.5530  1.3335
    8MOL   H148 7302   2.726   4.705   2.519  0.2211 -1.3994  0.4277
    8MOL   H149 7303   2.716   4.284   2.339  0.0976  2.6260  1.5836
    8MOL   H150 7304   2.611   4.117   2.179  2.0088  0.4834  0.0387
    8MOL   H151 7305   2.675   4.153   1.941  2.7292 -1.8304 -1.9387
    8MOL   H152 7306   2.781   4.010   1.744  1.0566 -0.0429  1.9793
    8MOL   H153 7307   2.755   3.720   1.397  0.4022 -0.8019 -1.4834
    8MOL   H154 7308   2.712   3.487   1.303  0.4469 -1.6358  0.9338
    8MOL   N155 7309   2.300   4.882   2.800  0.1878 -0.2775 -0.3988
    8MOL   C156 7310   2.246   4.964   2.900 -0.6755  0.1491 -0.8981
    8MOL   C157 7311   2.198   5.092   2.875 -0.8333  0.0465  0.6083
    8MOL   C158 7312   2.127   5.167   2.976  0.4127 -0.2497  0.3831
    8MOL   C159 7313   2.123   5.111   3.110  0.0942 -0.6203  0.2852
    8MOL   N160 7314   2.060   5.189   3.211  0.4427 -0.5160  0.4939
    8MOL   C161 7315   1.937   5.247   3.209  1.2984 -0.9185  0.2161
    8MOL   C162 7316   1.831   5.192   3.132  0.6072 -0.2068  0.4041
    8MOL   C163 7317   1.704   5.248   3.134  0.0772  0.7773  0.3166
    8MOL   C164 7318   1.672   5.357   3.217  0.1785 -0.2202  0.0701
    8MOL   N165 7319   1.559   5.435   3.212 -0.0353  0.1906  0.6141
    8MOL   C166 7320   1.467   5.449   3.113  0.0374 -0.4054 -0.7001
    8MOL   C167 7321   1.445   5.576   3.049  0.0007  0.0548 -0.2309
    8MOL   C168 7322   1.342   5.591   2.957  0.5344 -0.2382 -0.4698
    8MOL   C169 7323   1.273   5.483   2.902  1.0831 -0.6105 -0.1230
    8MOL   N170 7324   1.184   5.496   2.789  0.3814 -0.2775  0.0830
    8MOL   C171 7325   1.162   5.620   2.720 -0.5183  0.6622 -0.1638
    8MOL   C172 7326   1.256   5.661   2.623 -0.3768 -0.3635  0.6702
    8MOL   C173 7327   1.244   5.786   2.561 -0.6855  0.0797  0.2390
    8MOL   C174 7328   1.136   5.866   2.593  0.9496 -0.2249 -0.4906
    8MOL   C175 7329   1.110   5.997   2.525 -0.0068  0.6062 -0.1175
    8MOL   C176 7330   1.038   5.830   2.693 -0.5525 -0.3136 -0.0059
    8MOL   C177 7331   1.054   5.704   2.749 -0.1218  0.4996  0.0648
    8MOL   C178 7332   1.299   5.359   2.966  0.2321  0.4816 -0.0823
    8MOL   C179 7333   1.394   5.335   3.070  0.2537 -0.1189 -0.0486
    8MOL   C180 7334   1.775   5.406   3.301 -0.0124 -0.0295  0.1232
    8MOL   C181 7335   1.911   5.354   3.298 -0.8158 -0.1383 -0.3464
    8MOL   C182 7336   2.182   4.985   3.136  0.1677 -0.2260  0.4537
    8MOL   C183 7337   2.247   4.914   3.035 -0.6469 -0.2890  0.4702
    8MOL   H184 7338   2.298   4.781   2.810  0.2311 -0.1008  1.6383
    8MOL   H185 7339   2.189   5.117   2.770  3.2435 -2.1109 -0.3905
    8MOL   H186 7340   2.086   5.266   2.962  0.4496 -0.2051  0.5860
    8MOL   H187 7341   2.125   5.240   3.268  3.3245 -2.7417 -0.6642
    8MOL   H188 7342   1.853   5.109   3.066  0.4278  0.1058 -0.0494
    8MOL   H189 7343   1.619   5.216   3.076 -0.4939 -0.3817  1.7498
    8MOL   H190 7344   1.563   5.516   3.273  2.2993  0.3125  0.3180
    8MOL   H191 7345   1.500   5.664   3.080  0.6303 -0.0670 -0.9793
    8MOL   H192 7346   1.329   5.690   2.915  0.9387  0.2526  0.5305
    8MOL   H193 7347   1.187   5.425   2.717 -0.4053  2.6611 -2.9282
    8MOL   H194 7348   1.340   5.606   2.583  0.3141  0.5475  0.8371
    8MOL   H195 7349   1.335   5.803   2.504  0.1399 -1.1985  1.1472
    8MOL   H196 7350   1.035   5.989   2.447 -1.9942  0.3390  1.7565
    8MOL   H197 7351   1.208   6.028   2.489  0.8889 -2.3217 -0.3500
    8MOL   H198 7352   0.955   5.896   2.716 -0.6939 -0.1832 -0.8747
    8MOL   H199 7353   0.976   5.666   2.813 -0.3876 -0.2908 -0.7206
    8MOL   H200 7354   1.242   5.269   2.950  1.4816 -0.6197  1.5317
    8MOL   H201 7355   1.404   5.238   3.118  0.4048  0.3661  0.9181
    8MOL   H202 7356   1.764   5.499   3.354 -0.6138 -1.9166  3.4198
    8MOL   H203 7357   1.992   5.398   3.356 -0.5888  2.7532 -2.7188
    8MOL   H204 7358   2.192   4.941   3.235  0.6835 -0.0133  0.4956
    8MOL   H205 7359   2.311   4.830   3.057  1.7312  1.9013  2.1067
    8MOL   N206 7360   1.065   6.111   2.606  0.1489  0.1456 -0.2016
    8MOL   C207 7361   1.141   6.152   2.722 -0.3440 -0.4238 -0.1538
    8MOL   C208 7362   1.260   6.094   2.769  0.2613  1.0002 -0.8501
    8MOL   C209 7363   1.336   6.142   2.879 -0.6035 -0.3274  0.1138
    8MOL   C210 7364   1.286   6.256   2.948 -0.0992  0.3131 -0.2107
    8MOL   N211 7365   1.339   6.296   3.068  0.3832  0.2379 -0.7276
    8MOL   C212 7366   1.445   6.244   3.147 -0.3529  0.6563 -0.0627
    8MOL   C213 7367   1.523   6.340   3.216 -0.2597  0.1983 -0.3602
    8MOL   C214 7368   1.621   6.295   3.308 -0.2366  0.4869 -0.0252
    8MOL   C215 7369   1.651   6.155   3.316 -0.2373 -0.4493  0.2680
    8MOL   N216 7370   1.754   6.124   3.404 -0.1655 -0.1425 -0.3047
    8MOL   C217 7371   1.756   6.160   3.539  0.5212  1.0085  0.0246
    8MOL   C218 7372   1.882   6.179   3.596  0.5124  0.7691 -0.0686
    8MOL   C219 7373   1.890   6.199   3.732  0.0542 -0.3792 -0.2806
    8MOL   C220 7374   1.770   6.200   3.809  0.3597  0.9618 -0.8894
    8MOL   N221 7375   1.764   6.230   3.950  0.5371  0.8982 -0.0166
    8MOL   C222 7376   1.843   6.310   4.027  0.0133  0.4646  0.2531
    8MOL   C223 7377   1.945   6.396   3.976  0.3452  0.1334  0.3059
    8MOL   C224 7378   2.030   6.464   4.062 -0.2945 -0.1693  0.0503
    8MOL   C225 7379   2.004   6.461   4.201  0.1879  0.2884 -0.2400
    8MOL   C226 7380   2.103   6.538   4.284 -0.0375  0.3887  0.1548
    8MOL   C227 7381   1.906   6.372   4.252  0.0764 -0.0689 -0.3895
    8MOL   C228 7382   1.828   6.290   4.168 -0.1681  0.4193  0.1929
    8MOL   C229 7383   1.647   6.154   3.755  0.0475  0.0400  0.2335
    8MOL   C230 7384   1.637   6.147   3.613 -0.7528  0.0064  0.0029
    8MOL   C231 7385   1.567   6.062   3.251 -0.1520  0.2953  0.4538
    8MOL   C232 7386   1.463   6.111   3.169 -0.0335  0.7099  0.4260
    8MOL   C233 7387   1.178   6.325   2.897  0.1946 -0.1121 -0.2572
    8MOL   C234 7388   1.104   6.272   2.786  0.0155  0.0619 -0.2411
    8MOL   H235 7389   1.005   6.179   2.562 -0.1217 -0.5740 -0.9613
    8MOL   H236 7390   1.302   6.008   2.718 -2.3917 -0.4782 -0.5974
    8MOL   H237 7391   1.425   6.085   2.903 -0.3535 -0.5123 -1.2138
    8MOL   H238 7392   1.312   6.391   3.089 -0.4330  0.2452 -1.7702
    8MOL   H239 7393   1.522   6.443   3.184  1.1325 -0.1091 -1.4666
    8MOL   H240 7394   1.687   6.361   3.363  3.0218 -1.2313 -1.7552
    8MOL   H241 7395   1.806   6.039   3.385 -0.1498 -0.5879  1.6332
    8MOL   H242 7396   1.967   6.159   3.532 -0.9979 -3.9937 -0.7451
    8MOL   H243 7397   1.985   6.210   3.783 -0.6802  1.1140  0.8152
    8MOL   H244 7398   1.678   6.197   3.993  0.6526  1.1622  0.4174
    8MOL   H245 7399   1.948   6.419   3.871 -1.8432 -1.6386 -0.1922
    8MOL   H246 7400   2.109   6.526   4.023  0.7823 -1.8356 -0.4961
    8MOL   H247 7401   2.138   6.622   4.224  0.6474 -0.5707 -0.8294
    8MOL   H248 7402   2.191   6.474   4.295 -0.9828 -0.7952  0.9247
    8MOL   H249 7403   1.880   6.361   4.357  0.6228  1.9547 -0.0205
    8MOL   H250 7404   1.761   6.221   4.217  2.5790 -1.2918  1.6781
    8MOL   H251 7405   1.554   6.142   3.809 -1.6350 -0.6658 -2.6561
    8MOL   H252 7406   1.549   6.100   3.573 -1.7517  1.7372  0.0972
    8MOL   H253 7407   1.594   5.958   3.257  1.2552  0.7771  3.2974
    8MOL   H254 7408   1.404   6.030   3.129  3.1222 -0.9890 -1.0198
    8MOL   H255 7409   1.129   6.411   2.940  0.7614  1.9070 -3.5112
    8MOL   H256 7410   1.020   6.332   2.753 -0.6549 -1.0000 -0.4910
    8MOL   N257 7411   2.052   6.576   4.417  0.4708  0.2888  0.3156
    8MOL   C258 7412   2.138   6.637   4.513 -0.2738  0.2229 -0.2396
    8MOL   C259 7413   2.266   6.680   4.479  0.0903  0.7584  0.2283
    8MOL   C260 7414   2.339   6.736   4.588 -0.0001  1.0953 -0.0797
    8MOL   C261 7415   2.279   6.765   4.710 -0.3761 -0.5353  0.0069
    8MOL   N262 7416   2.352   6.824   4.816 -0.3268 -0.0318  0.3142
    8MOL   C263 7417   2.357   6.796   4.951  0.3831  1.4043 -0.5241
    8MOL   C264 7418   2.313   6.671   5.007  0.1942  0.1590 -0.2878
    8MOL   C265 7419   2.317   6.655   5.151  0.9345 -0.1847 -0.7400
    8MOL   C266 7420   2.361   6.755   5.228 -0.1661 -0.1835 -0.0687
    8MOL   N267 7421   2.344   6.744   5.366 -0.0610  0.3374  0.3132
    8MOL   C268 7422   2.244   6.808   5.439  0.0487  0.5611 -0.6415
    8MOL   C269 7423   2.144   6.876   5.378 -0.2309 -0.0551 -0.4292
    8MOL   C270 7424   2.044   6.934   5.461 -0.1586 -0.2085 -0.0997
    8MOL   C271 7425   2.042   6.908   5.598 -0.2627  0.1937 -0.0156
    8MOL   N272 7426   1.944   6.970   5.679  0.6223  0.1213  0.2389
    8MOL   C273 7427   1.939   6.965   5.816 -0.3221  0.7549  0.4876
    8MOL   C274 7428   1.948   7.084   5.900  0.3839  0.4539 -0.3807
    8MOL   C275 7429   1.937   7.070   6.039 -0.3688 -0.1333  0.0309
    8MOL   C276 7430   1.903   6.944   6.096  0.7132 -0.0472  0.1538
    8MOL   C277 7431   1.868   6.947   6.242  0.2354 -0.5893 -0.2037
    8MOL   C278 7432   1.894   6.828   6.014 -0.3864  0.2900 -0.0276
    8MOL   C279 7433   1.919   6.835   5.875 -0.4213 -0.1055 -0.0521
    8MOL   C280 7434   2.140   6.820   5.654  0.8333  0.6195 -0.1082
    8MOL   C281 7435   2.246   6.777   5.575 -0.0746 -0.7304  0.5630
    8MOL   C282 7436   2.410   6.873   5.174  0.6562 -0.2298 -0.3344
    8MOL   C283 7437   2.417   6.888   5.035  0.5797  0.2708  0.6022
    8MOL   C284 7438   2.146   6.740   4.733  0.4908 -0.3532  0.0669
    8MOL   C285 7439   2.078   6.669   4.638 -0.5799  0.1568  0.2967
    8MOL   H286 7440   1.981   6.513   4.452  1.1703 -0.4309  0.4646
    8MOL   H287 7441   2.312   6.658   4.384 -1.0226  0.2777 -0.2049
    8MOL   H288 7442   2.442   6.760   4.569  0.3832 -0.6286 -0.1997
    8MOL   H289 7443   2.413   6.900   4.789 -0.9678  0.3293 -0.1250
    8MOL   H290 7444   2.276   6.595   4.939  0.0310 -0.2398  0.2477
    8MOL   H291 7445   2.282   6.563   5.195  1.4479 -0.1280 -0.2091
    8MOL   H292 7446   2.399   6.676   5.417 -3.6774 -0.2463  3.5923
    8MOL   H293 7447   2.131   6.890   5.272 -4.6040 -2.9298 -0.4312
    8MOL   H294 7448   1.968   6.995   5.415 -0.7426 -1.6017 -1.0259
    8MOL   H295 7449   1.891   7.033   5.620  0.1015  1.2462  1.8765
    8MOL   H296 7450   1.970   7.183   5.864  1.8531  0.3568  0.1812
    8MOL   H297 7451   1.943   7.161   6.097 -0.5613 -0.1589  0.0928
    8MOL   H298 7452   1.879   7.053   6.268 -1.2846  0.0378 -2.0242
    8MOL   H299 7453   1.955   6.902   6.289  0.6375 -1.7467 -2.0209
    8MOL   H300 7454   1.861   6.732   6.052 -0.6059  0.0498 -0.8156
    8MOL   H301 7455   1.908   6.746   5.815  0.8169  0.1352 -0.6594
    8MOL   H302 7456   2.150   6.812   5.761  1.1950  1.0796 -0.1060
    8MOL   H303 7457   2.326   6.719   5.618  1.3526  0.8479  0.0587
    8MOL   H304 7458   2.444   6.954   5.237 -1.2340 -0.2796  0.7939
    8MOL   H305 7459   2.468   6.973   4.992 -0.5679  0.8929  0.4528
    8MOL   H306 7460   2.096   6.770   4.823  0.9799 -0.3404  0.3384
    8MOL   H307 7461   1.980   6.636   4.667 -0.1128 -1.8819 -0.3331
    8MOL   N308 7462   1.737   6.895   6.271  1.1034  0.2438  0.1275
    8MOL   C309 7463   1.623   6.945   6.204 -0.8412  0.5487 -0.4225
    8MOL   C310 7464   1.509   6.860   6.187  0.0546 -0.4999 -1.2729
    8MOL   C311 7465   1.389   6.914   6.131 -0.2547  0.1682 -0.5583
    8MOL   C312 7466   1.387   7.040   6.080 -0.1294 -0.3649 -0.7780
    8MOL   N313 7467   1.260   7.080   6.034  0.2106  1.1903 -0.0795
    8MOL   C314 7468   1.208   7.020   5.914  0.0012  0.5596  0.5400
    8MOL   C315 7469   1.270   6.907   5.850 -0.4404 -0.7005  0.4561
    8MOL   C316 7470   1.227   6.850   5.733  0.1451 -0.0116  0.4161
    8MOL   C317 7471   1.107   6.898   5.679  0.5989 -0.0138  0.2982
    8MOL   N318 7472   1.051   6.849   5.561 -0.6116 -0.7175  0.1366
    8MOL   C319 7473   1.121   6.796   5.454  0.1529  0.1762  0.5983
    8MOL   C320 7474   1.105   6.660   5.417  0.8177  0.1448  0.2687
    8MOL   C321 7475   1.178   6.602   5.308 -0.2107 -0.4199  0.2927
    8MOL   C322 7476   1.266   6.681   5.233 -0.7172 -0.6190 -0.1368
    8MOL   N323 7477   1.343   6.632   5.127 -0.2003  0.4677  0.2300
    8MOL   C324 7478   1.361   6.492   5.096  0.4889 -0.7268  0.0046
    8MOL   C325 7479   1.351   6.454   4.962 -0.0431  0.4517 -0.2861
    8MOL   C326 7480   1.366   6.317   4.929  0.2805  0.3350 -0.0894
    8MOL   C327 7481   1.399   6.224   5.030  0.0761  0.0600  0.5208
    8MOL   C328 7482   1.433   6.080   4.993 -0.2004  0.9868  0.5039
    8MOL   C329 7483   1.414   6.268   5.158  0.2874 -0.1761 -0.4656
    8MOL   C330 7484   1.391   6.401   5.198 -0.5245 -0.6903 -0.4404
    8MOL   C331 7485   1.282   6.821   5.268  0.2933 -0.0974  0.1439
    8MOL   C332 7486   1.206   6.871   5.376  0.7067 -0.0874 -0.7202
    8MOL   C333 7487   1.037   7.006   5.745 -0.4283  0.3975  0.3001
    8MOL   C334 7488   1.088   7.063   5.859 -0.0341 -0.2407 -0.0457
    8MOL   C335 7489   1.499   7.125   6.081  0.4231 -0.3926 -0.2591
    8MOL   C336 7490   1.613   7.080   6.153 -0.1323 -0.6129 -0.1939
    8MOL   H337 7491   1.730   6.797   6.292 -1.2995  0.3096 -0.2075
    8MOL   H338 7492   1.501   6.762   6.230 -0.5423 -0.3851 -1.1164
    8MOL   H339 7493   1.306   6.845   6.137 -0.0163 -0.1147 -0.4945
    8MOL   H340 7494   1.227   7.173   6.057  1.6753  2.1119 -1.5520
    8MOL   H341 7495   1.371   6.883   5.882  0.2111 -1.3607 -1.9780
    8MOL   H342 7496   1.290   6.786   5.673 -1.0017  1.9954 -3.0779
    8MOL   H343 7497   0.951   6.855   5.551 -0.5751  0.9451  0.6511
    8MOL   H344 7498   1.038   6.601   5.479 -0.6450 -0.6988 -2.0181
    8MOL   H345 7499   1.158   6.497   5.291 -0.3014 -0.7337  2.2816
    8MOL   H346 7500   1.342   6.691   5.045 -0.7508  1.7289  1.1253
    8MOL   H347 7501   1.326   6.518   4.878 -1.9676  1.2393  0.8678
    8MOL   H348 7502   1.358   6.286   4.825 -0.4639  0.3291 -0.0322
    8MOL   H349 7503   1.414   6.070   4.886  1.8758  3.4306 -0.1544
    8MOL   H350 7504   1.387   6.002   5.053  2.4653  0.2785  1.7107
    8MOL   H351 7505   1.440   6.197   5.234 -0.3500 -1.4321 -1.4020
    8MOL   H352 7506   1.408   6.432   5.300  1.0968  1.8981 -1.4349
    8MOL   H353 7507   1.365   6.873   5.224 -0.0467  0.1675 -0.1834
    8MOL   H354 7508   1.233   6.968   5.415 -1.9716 -0.1117  1.3190
    8MOL   H355 7509   0.942   7.032   5.701  0.0878 -0.6534 -1.4811
    8MOL   H356 7510   1.046   7.153   5.903  1.3461  0.9659 -1.1625
    8MOL   H357 7511   1.497   7.226   6.044 -0.7749  0.7025  2.6857
    8MOL   H358 7512   1.700   7.144   6.151 -1.5290  1.3100 -0.3257
    8MOL   N359 7513   1.575   6.046   4.999  0.2901  0.0240 -0.1421
    8MOL   C360 7514   1.617   5.919   5.033 -0.0050  0.0428 -0.1475
    8MOL   C361 7515   1.543   5.811   4.984 -0.0373  0.2468  0.3844
    8MOL   C362 7516   1.582   5.683   5.025  0.2461 -0.3461  0.0648
    8MOL   C363 7517   1.706   5.668   5.096  0.1615  0.2036  0.6026
    8MOL   N364 7518   1.757   5.537   5.122  0.3047  0.4115 -0.0389
    8MOL   C365 7519   1.684   5.420   5.153  0.0295 -0.5624  0.8553
    8MOL   C366 7520   1.746   5.297   5.123 -0.5707  0.1750  0.1082
    8MOL   C367 7521   1.692   5.171   5.159 -0.1330 -0.2983 -0.5574
    8MOL   C368 7522   1.559   5.167   5.204 -0.1046 -0.9009 -0.2185
    8MOL   N369 7523   1.495   5.042   5.215 -0.6393  0.1654  0.2291
    8MOL   C370 7524   1.412   4.999   5.317 -0.3055  0.2514 -0.3184
    8MOL   C371 7525   1.309   4.906   5.303 -0.0151 -0.0369 -0.4143
    8MOL   C372 7526   1.239   4.863   5.422  0.1516  0.4799 -0.1506
    8MOL   C373 7527   1.263   4.910   5.549  0.1295  0.0211 -0.4802
    8MOL   N374 7528   1.187   4.884   5.665  0.3226 -1.1409  0.4204
    8MOL   C375 7529   1.068   4.811   5.672 -0.1996  0.3086 -0.1630
    8MOL   C376 7530   0.953   4.867   5.726  0.4709 -0.1015  0.1127
    8MOL   C377 7531   0.824   4.804   5.723 -0.0529  0.6813  0.0829
    8MOL   C378 7532   0.815   4.678   5.655 -0.7950  0.1489 -0.7225
    8MOL   C379 7533   0.682   4.602   5.633  0.1524 -0.3585  0.2840
    8MOL   C380 7534   0.933   4.620   5.605 -0.4187 -0.3624  0.1099
    8MOL   C381 7535   1.059   4.683   5.616 -0.6352 -0.3886  0.4712
    8MOL   C382 7536   1.361   5.004   5.560  0.0944  0.4635 -0.8000
    8MOL   C383 7537   1.433   5.048   5.448 -0.1227  0.2895  0.4930
    8MOL   C384 7538   1.487   5.291   5.228  0.8376 -1.0512  0.7286
    8MOL   C385 7539   1.556   5.411   5.214  0.4492 -0.0135  0.1892
    8MOL   C386 7540   1.783   5.777   5.137  0.0108  0.0363  0.5941
    8MOL   C387 7541   1.734   5.903   5.106 -0.1422 -0.4167  0.5856
    8MOL   H388 7542   1.623   6.117   5.053  1.2190 -0.9725  0.3603
    8MOL   H389 7543   1.459   5.841   4.922  0.6887 -1.6981 -1.6096
    8MOL   H390 7544   1.522   5.595   5.006  0.2840 -0.3595  0.0053
    8MOL   H391 7545   1.858   5.529   5.129  0.3490  0.7952 -0.2180
    8MOL   H392 7546   1.845   5.289   5.082 -0.9206 -2.2133 -0.3561
    8MOL   H393 7547   1.743   5.082   5.126  0.6205 -0.0499 -0.0889
    8MOL   H394 7548   1.512   4.980   5.137  0.0833  2.0146 -1.1120
    8MOL   H395 7549   1.266   4.873   5.210  1.9855 -2.9501 -0.3594
    8MOL   H396 7550   1.159   4.793   5.404  1.4518 -1.5679  1.7090
    8MOL   H397 7551   1.179   4.971   5.716  1.5198 -1.0164  0.3943
    8MOL   H398 7552   0.959   4.969   5.761  0.6747  0.5315 -1.6816
    8MOL   H399 7553   0.734   4.856   5.754 -1.5800 -0.9125 -1.6111
    8MOL   H400 7554   0.667   4.533   5.715 -0.0034 -1.5196 -0.7159
    8MOL   H401 7555   0.699   4.548   5.540 -2.1467 -2.8994  1.2698
    8MOL   H402 7556   0.917   4.523   5.561 -1.0171 -0.9896  1.6710
    8MOL   H403 7557   1.148   4.637   5.577 -2.6214 -1.9960 -2.3921
    8MOL   H404 7558   1.384   5.044   5.658  2.2021  0.6991 -1.3489
    8MOL   H405 7559   1.515   5.116   5.465  1.5334 -1.3982 -0.4470
    8MOL   H406 7560   1.388   5.281   5.271 -0.4140  1.1834 -1.4923
    8MOL   H407 7561   1.507   5.504   5.235 -0.6063 -0.3496 -0.7138
    8MOL   H408 7562   1.875   5.767   5.193  0.9303  1.3496 -0.6303
    8MOL   H409 7563   1.796   5.984   5.143  0.9193 -1.3129  0.8029
    8MOL   N410 7564   0.563   4.682   5.613 -0.6926 -0.2136  0.0092
    8MOL   C411 7565   0.437   4.627   5.632  0.0958  0.1581 -0.1015
    8MOL   C412 7566   0.329   4.714   5.636  0.0559 -0.2882 -0.1373
    8MOL   C413 7567   0.194   4.670   5.657 -1.2879 -0.2126 -0.1702
    8MOL   C414 7568   0.173   4.531   5.652  0.5980 -0.2378 -0.5777
    8MOL   N415 7569   0.040   4.487   5.674  0.7954 -0.7359  0.5138
    8MOL   C416 7570   7.915   4.578   5.675 -0.2196 -0.0993  0.1961
    8MOL   C417 7571   7.889   4.646   5.794  0.1671 -0.2512  0.1318
    8MOL   C418 7572   7.791   4.748   5.793 -0.5175  0.9045 -0.1292
    8MOL   C419 7573   7.707   4.761   5.685  0.0403  0.0086 -0.7326
    8MOL   N420 7574   7.611   4.857   5.683  0.2941  0.2743  0.5879
    8MOL   C421 7575   7.604   4.991   5.724  0.1644 -0.1126 -0.5208
    8MOL   C422 7576   7.713   5.074   5.760 -0.2980 -0.6588  0.1880
    8MOL   C423 7577   7.694   5.206   5.810  0.9027  0.2014  0.0900
    8MOL   C424 7578   7.562   5.261   5.813 -0.0657 -0.4143  0.7920
    8MOL   N425 7579   7.532   5.384   5.863 -0.0639 -0.7775  0.5630
    8MOL   C426 7580   7.624   5.474   5.918 -0.0236  0.4081  0.7711
    8MOL   C427 7581   7.737   5.508   5.849 -0.8406  0.5081 -0.2966
    8MOL   C428 7582   7.826   5.608   5.896  0.4753  0.0167  0.4809
    8MOL   C429 7583   7.794   5.683   6.008  0.2396  0.1845  0.0875
    8MOL   C430 7584   7.882   5.802   6.049  0.0704  0.1640 -0.1004
    8MOL   C431 7585   7.682   5.642   6.084 -0.8190 -0.0872 -0.1723
    8MOL   C432 7586   7.592   5.539   6.043  0.1630 -1.1220  0.5589
    8MOL   C433 7587   7.454   5.183   5.766  0.0686  0.2273 -0.4598
    8MOL   C434 7588   7.475   5.045   5.736 -0.5959  0.1969  0.1115
    8MOL   C435 7589   7.726   4.683   5.572 -0.0267  0.0965  0.5831
    8MOL   C436 7590   7.832   4.592   5.559 -0.7022  0.5482  0.2295
    8MOL   C437 7591   0.278   4.441   5.647 -0.3794  0.2748  0.6505
    8MOL   C438 7592   0.411   4.487   5.633  0.4864 -1.0135 -0.7785
    8MOL   H439 7593   0.575   4.782   5.626 -1.8445 -0.0696  0.0378
    8MOL   H440 7594   0.343   4.821   5.643  1.2982 -0.5602  2.1034
    8MOL   H441 7595   0.117   4.745   5.666  1.1216  2.1795  1.3896
    8MOL   H442 7596   0.027   4.400   5.623  2.2244  0.3292 -1.7693
    8MOL   H443 7597   7.955   4.636   5.878 -0.4828 -0.1228  0.6655
    8MOL   H444 7598   7.779   4.813   5.879 -3.0608 -1.1123  1.1145
    8MOL   H445 7599   7.519   4.828   5.654  0.1003 -0.9577  2.3836
    8MOL   H446 7600   7.802   5.014   5.754  1.8660  2.4410 -0.3116
    8MOL   H447 7601   7.775   5.254   5.863 -0.0992 -0.1346  1.9839
    8MOL   H448 7602   7.434   5.394   5.882 -0.3223 -1.6604 -0.3290
    8MOL   H449 7603   7.756   5.447   5.762  1.1545 -0.7316  0.9504
    8MOL   H450 7604   7.917   5.619   5.838  1.0300  0.1464  1.3599
    8MOL   H451 7605   7.866   5.826   6.154  1.0943 -1.3605  0.4265
    8MOL   H452 7606   7.855   5.886   5.985 -2.3550 -0.8442 -0.4521
    8MOL   H453 7607   7.660   5.700   6.173 -1.6188  1.2153 -1.1949
    8MOL   H454 7608   7.506   5.514   6.104  0.7366 -0.9879  1.4200
    8MOL   H455 7609   7.352   5.219   5.762 -0.1183 -0.2793 -0.3864
    8MOL   H456 7610   7.391   4.982   5.710 -0.2813 -0.2984  0.2939
    8MOL   H457 7611   7.670   4.692   5.480  0.1734  0.0720  0.4589
    8MOL   H458 7612   7.863   4.545   5.467 -0.8284 -1.0415  0.9976
    8MOL   H459 7613   0.262   4.334   5.648 -2.1158  0.4847 -1.2473
    8MOL   H460 7614   0.483   4.409   5.616  1.1029 -0.3569 -1.1900
    8MOL   N461 7615   0.044   5.788   6.037 -0.3343  0.6263 -0.2361
    8MOL   C462 7616   0.123   5.890   6.093 -0.4185  0.8196 -0.1517
    8MOL   C463 7617   0.075   6.022   6.120 -0.0219  0.1337  0.5464
    8MOL   C464 7618   0.163   6.117   6.172 -0.1889 -0.1425 -0.1559
    8MOL   C465 7619   0.308   6.084   6.188 -0.1212  0.4063 -0.1505
    8MOL   N466 7620   0.401   6.169   6.246  0.7059 -0.2613 -0.2512
    8MOL   C467 7621   0.382   6.309   6.261  0.4661 -0.0923 -0.0370
    8MOL   C468 7622   0.438   6.373   6.372 -0.2574  0.5793  0.3726
    8MOL   C469 7623   0.427   6.510   6.388 -0.7454  1.0624  0.0123
    8MOL   C470 7624   0.361   6.590   6.291 -0.2185 -0.1132 -0.0447
    8MOL   N471 7625   0.332   6.725   6.312 -0.1835  0.1985  0.5174
    8MOL   C472 7626   0.261   6.773   6.425  0.0946 -0.0329 -0.4702
    8MOL   C473 7627   0.181   6.682   6.506 -0.0767  0.0177 -0.1226
    8MOL   C474 7628   0.107   6.732   6.613 -0.4289  0.6002 -0.1511
    8MOL   C475 7629   0.112   6.865   6.652  0.4394 -0.3885 -0.0237
    8MOL   N476 7630   0.045   6.915   6.760 -0.0653  0.0783 -0.1489
    8MOL   C477 7631   7.966   6.837   6.859  0.3340 -0.2409  0.0579
    8MOL   C478 7632   7.829   6.817   6.867 -0.0350 -0.2996  0.4119
    8MOL   C479 7633   7.774   6.744   6.975 -0.1662  0.3082 -0.0008
    8MOL   C480 7634   7.859   6.676   7.067 -0.6298 -0.4996  0.4974
    8MOL   C481 7635   7.803   6.589   7.180  0.1868  0.2876  0.1259
    8MOL   C482 7636   0.015   6.697   7.051  0.5694  0.0182  0.5169
    8MOL   C483 7637   0.070   6.775   6.947 -0.2817  0.1249  0.2095
    8MOL   C484 7638   0.195   6.948   6.574  0.1873  0.0916  0.6751
    8MOL   C485 7639   0.267   6.907   6.459  0.7014 -0.5713 -0.3350
    8MOL   C486 7640   0.309   6.533   6.177 -0.5104 -0.0221  0.1081
    8MOL   C487 7641   0.326   6.390   6.163 -0.3270 -0.1419 -0.1133
    8MOL   C488 7642   0.353   5.959   6.156  0.1911  0.3433 -0.1012
    8MOL   C489 7643   0.258   5.862   6.113 -0.1961 -0.0244  0.2268
    8MOL   H490 7644   0.073   5.696   6.065 -0.9427  0.2371 -0.8844
    8MOL   H491 7645   7.952   6.044   6.105 -0.3105 -2.2821 -1.3982
    8MOL   H492 7646   0.122   6.213   6.198  1.4861  0.2494  1.1130
    8MOL   H493 7647   0.479   6.127   6.295 -0.6289 -1.5686  0.8342
    8MOL   H494 7648   0.494   6.314   6.443 -0.1995  0.6349  0.3741
    8MOL   H495 7649   0.466   6.545   6.482 -0.1724 -2.7376  1.2631
    8MOL   H496 7650   0.351   6.785   6.234 -0.4603 -1.6526 -0.9996
    8MOL   H497 7651   0.182   6.577   6.482  0.8037  0.2113 -0.9438
    8MOL   H498 7652   0.045   6.663   6.669 -0.4331  0.6831 -0.0530
    8MOL   H499 7653   0.009   7.009   6.748 -0.2537  0.0785  0.4162
    8MOL   H500 7654   7.773   6.872   6.792  0.0793  1.5864  1.6724
    8MOL   H501 7655   7.671   6.723   6.998  0.3585 -0.6860  1.5421
    8MOL   H502 7656   7.751   6.651   7.254 -0.8842  0.7287 -0.9711
    8MOL   H503 7657   7.887   6.539   7.227 -0.5422 -1.4235 -0.3475
    8MOL   H504 7658   0.074   6.639   7.120 -0.5353 -2.0801 -0.2530
    8MOL   H505 7659   0.177   6.782   6.943 -0.1568  1.2689  3.7832
    8MOL   H506 7660   0.197   7.052   6.603 -3.7004  0.2906  0.4725
    8MOL   H507 7661   0.327   6.972   6.396  0.8046 -0.7682 -0.4420
    8MOL   H508 7662   0.269   6.592   6.095 -2.4929 -1.0086  0.3223
    8MOL   H509 7663   0.283   6.335   6.080  2.3605 -1.4146 -0.7024
    8MOL   H510 7664   0.455   5.926   6.168  0.3849  0.9501 -0.0667
    8MOL   H511 7665   0.297   5.766   6.080 -0.7838 -0.0379 -0.4398
    8MOL   N512 7666   7.714   6.479   7.147  0.4385 -0.2650 -0.4307
    8MOL   C513 7667   7.761   6.366   7.081  0.0695  0.0723 -0.1439
    8MOL   C514 7668   7.881   6.359   7.005  0.2882 -0.2707  0.0999
    8MOL   C515 7669   7.917   6.238   6.952 -0.3390  0.1165  0.4857
    8MOL   C516 7670   7.833   6.123   6.962 -0.2790 -0.3692  0.2773
    8MOL   N517 7671   7.877   6.004   6.903  0.1726  0.5343 -0.0298
    8MOL   C518 7672   7.884   5.878   6.958 -0.0803  0.1625 -0.0383
    8MOL   C519 7673   7.923   5.769   6.874 -1.2459 -0.3927  0.2664
    8MOL   C520 7674   7.937   5.645   6.926 -0.3496  0.6296 -0.7307
    8MOL   C521 7675   7.935   5.622   7.066  0.5810  0.2464 -0.5078
    8MOL   N522 7676   7.971   5.496   7.126 -0.9453  0.2398  0.8850
    8MOL   C523 7677   7.867   5.413   7.169  0.3146  0.0067 -0.1119
    8MOL   C524 7678   7.842   5.412   7.307 -0.1274 -0.0263 -0.2642
    8MOL   C525 7679   7.745   5.322   7.356 -0.8825 -0.5561 -0.3074
    8MOL   C526 7680   7.670   5.242   7.268 -0.9722 -0.0323 -0.4010
    8MOL   N527 7681   7.580   5.145   7.317  0.4620 -0.6091 -0.1684
    8MOL   C528 7682   7.565   5.011   7.278 -0.5751 -0.3050 -0.2749
    8MOL   C529 7683   7.655   4.942   7.193  0.6663 -0.1494 -0.2017
    8MOL   C530 7684   7.629   4.809   7.164 -1.1122  0.3214  0.6164
    8MOL   C531 7685   7.508   4.745   7.202 -0.3200 -0.1725  0.2665
    8MOL   C532 7686   7.478   4.602   7.149 -0.0204 -0.1601  0.1389
    8MOL   C533 7687   7.414   4.815   7.277  0.4024  0.6061  0.5172
    8MOL   C534 7688   7.442   4.947   7.321  0.3351 -0.0092  0.6940
    8MOL   C535 7689   7.687   5.257   7.129  1.0553 -0.2968  0.2938
    8MOL   C536 7690   7.787   5.343   7.084  0.1533 -0.1760  0.0627
    8MOL   C537 7691   7.906   5.731   7.150  0.5149  0.1515  0.1744
    8MOL   C538 7692   7.868   5.853   7.094 -0.9976  0.0684  0.6456
    8MOL   C539 7693   7.704   6.138   7.026 -0.0357 -0.1962 -0.1470
    8MOL   C540 7694   7.669   6.261   7.083 -0.2532 -0.3825  0.2955
    8MOL   H541 7695   7.624   6.472   7.192  0.7696  0.1310  0.3013
    8MOL   H542 7696   7.935   6.449   6.979  0.0612  0.1398  1.0413
    8MOL   H543 7697   0.031   6.241   6.902  0.1448  2.0839  1.4797
    8MOL   H544 7698   7.908   6.020   6.808  1.3294  0.7205  0.3699
    8MOL   H545 7699   7.951   5.781   6.771 -1.0542 -1.6808  0.1686
    8MOL   H546 7700   7.974   5.565   6.863  1.6151  0.1961  0.8919
    8MOL   H547 7701   0.062   5.498   7.196  0.7219 -0.8067 -0.7822
    8MOL   H548 7702   7.902   5.466   7.379 -1.4152  0.2220  0.6431
    8MOL   H549 7703   7.725   5.317   7.462  1.5156  0.9354  0.2367
    8MOL   H550 7704   7.541   5.182   7.402 -0.4619 -2.6082  0.3224
    8MOL   H551 7705   7.750   4.977   7.155  1.1635 -1.3442 -0.0836
    8MOL   H552 7706   7.706   4.749   7.118 -1.1858  0.2084  0.6387
    8MOL   H553 7707   7.372   4.603   7.122 -0.2761  3.7810  1.0052
    8MOL   H554 7708   7.494   4.538   7.236  2.6278  0.0203 -0.1797
    8MOL   H555 7709   7.325   4.760   7.301  0.8223  0.6206  2.1538
    8MOL   H556 7710   7.377   4.993   7.394 -0.0240 -0.4771  0.6776
    8MOL   H557 7711   7.623   5.200   7.062  0.9322  0.2499 -0.0589
    8MOL   H558 7712   7.799   5.338   6.976  0.4441 -1.7800  0.1648
    8MOL   H559 7713   7.895   5.725   7.257 -1.6394  1.8672  0.0955
    8MOL   H560 7714   7.850   5.935   7.163  0.0630  1.4928 -0.7611
    8MOL   H561 7715   7.640   6.052   7.038 -0.5468  0.1396 -0.4657
    8MOL   H562 7716   7.578   6.274   7.139  1.0307 -0.7382  2.5340
    8MOL   N563 7717   7.567   4.553   7.042 -0.3117 -0.0379 -0.0207
    8MOL   C564 7718   7.548   4.425   6.986 -0.4191  0.4617  0.1382
    8MOL   C565 7719   7.647   4.366   6.898  0.2186 -0.0711  0.4909
    8MOL   C566 7720   7.630   4.235   6.847  0.5357  0.8219 -0.8158
    8MOL   C567 7721   7.516   4.154   6.886 -0.5228  0.1917  0.2420
    8MOL   N568 7722   7.494   4.029   6.827 -0.5819  0.0649  0.0078
    8MOL   C569 7723   7.399   3.930   6.869  0.4129 -0.4833  0.1675
    8MOL   C570 7724   7.336   3.852   6.769 -0.2279 -0.0944 -1.2776
    8MOL   C571 7725   7.259   3.739   6.814  0.4549  0.4709  0.8879
    8MOL   C572 7726   7.253   3.696   6.948 -0.2561 -0.0573  0.3064
    8MOL   N573 7727   7.194   3.579   6.989  0.2473 -0.3688  0.1007
    8MOL   C574 7728   7.142   3.478   6.908 -0.3367 -1.0167 -0.9841
    8MOL   C575 7729   7.043   3.492   6.810  0.2805 -1.2391 -0.3420
    8MOL   C576 7730   7.005   3.385   6.722  0.0887  0.8923 -0.2181
    8MOL   C577 7731   7.068   3.261   6.734 -0.9725  0.0400  0.0075
    8MOL   N578 7732   7.029   3.160   6.647 -0.9291  0.0445 -0.1319
    8MOL   C579 7733   7.012   3.167   6.510  0.4234  0.3070  0.8765
    8MOL   C580 7734   7.016   3.048   6.441 -0.6686  0.0805  0.6373
    8MOL   C581 7735   6.993   3.038   6.302 -0.7518 -0.5950 -0.2944
    8MOL   C582 7736   6.994   3.157   6.228  0.3980  0.0188 -0.3629
    8MOL   C583 7737   6.990   3.157   6.076 -0.3751 -0.2766 -0.2176
    8MOL   C584 7738   6.994   3.283   6.296 -0.2927  0.6412 -0.0629
    8MOL   C585 7739   7.007   3.286   6.432  0.1239  0.2220 -0.9333
    8MOL   C586 7740   7.173   3.241   6.822  0.3758  0.0634 -0.0300
    8MOL   C587 7741   7.207   3.350   6.913 -0.1900 -0.4036  0.6613
    8MOL   C588 7742   7.313   3.776   7.047 -0.8589 -0.4406  0.1718
    8MOL   C589 7743   7.382   3.888   7.003 -0.1035  0.1544 -0.0462
    8MOL   C590 7744   7.421   4.214   6.968 -0.6131 -0.1507  0.1722
    8MOL   C591 7745   7.435   4.347   7.013 -0.1140  0.4126  0.2791
    8MOL   H592 7746   7.654   4.603   7.031 -1.1913  1.3437 -0.7735
    8MOL   H593 7747   7.742   4.411   6.874  0.3869 -1.3601 -1.3267
    8MOL   H594 7748   7.709   4.197   6.783  1.3907  0.2466  0.5662
    8MOL   H595 7749   7.541   4.012   6.740 -0.6803  1.0273 -0.2470
    8MOL   H596 7750   7.349   3.878   6.665  2.5365  0.8555 -0.7365
    8MOL   H597 7751   7.227   3.681   6.729 -4.5273  1.9362  1.5649
    8MOL   H598 7752   7.200   3.559   7.088  1.2305  0.4339  0.2186
    8MOL   H599 7753   6.990   3.585   6.794  2.0116  0.0515  1.3474
    8MOL   H600 7754   6.926   3.399   6.650  0.4110 -1.7912 -1.1552
    8MOL   H601 7755   7.037   3.065   6.680  3.1843 -0.3310 -1.8565
    8MOL   H602 7756   7.034   2.955   6.493  3.0199 -0.3486 -1.2373
    8MOL   H603 7757   6.991   2.937   6.262  0.6463 -0.8130  0.1553
    8MOL   H604 7758   7.052   3.069   6.059  0.1539  0.0379  0.0481
    8MOL   H605 7759   7.043   3.241   6.031 -1.4968 -0.0925 -1.2266
    8MOL   H606 7760   6.988   3.380   6.249 -1.1319  1.5730  1.9167
    8MOL   H607 7761   7.025   3.382   6.479  3.1295  0.6073 -2.7365
    8MOL   H608 7762   7.223   3.145   6.818 -2.2058 -1.3171 -0.4956
    8MOL   H609 7763   7.292   3.338   6.979 -0.3229 -0.3419  0.8447
    8MOL   H610 7764   7.308   3.734   7.146  0.2497  0.4152  0.6008
    8MOL   H611 7765   7.425   3.947   7.082  0.9091 -0.7898  0.1111
    8MOL   H612 7766   7.324   4.170   6.988 -0.7974 -0.3864 -1.2216
    8MOL   H613 7767   7.354   4.401   7.060 -0.9613  0.1681 -0.8585
    8MOL   N614 7768   6.862   3.140   6.015  0.3564  0.3650  0.2565
    8MOL   C615 7769   6.812   3.244   5.934 -0.2835 -0.6000  0.0964
    8MOL   C616 7770   6.822   3.382   5.967  0.3807  0.0175  0.2612
    8MOL   C617 7771   6.766   3.479   5.884  1.1355  0.0800  0.1413
    8MOL   C618 7772   6.705   3.441   5.761 -0.4708 -0.1593  0.0221
    8MOL   N619 7773   6.655   3.547   5.681  0.4475 -0.3233  0.3033
    8MOL   C620 7774   6.734   3.651   5.629 -0.0531  0.1095 -0.1339
    8MOL   C621 7775   6.669   3.765   5.585  0.2289  0.3623  0.8108
    8MOL   C622 7776   6.740   3.879   5.528  0.2714 -0.5295  0.2867
    8MOL   C623 7777   6.879   3.879   5.533 -0.0083 -0.5713 -0.3083
    8MOL   N624 7778   6.943   3.994   5.472  0.0128 -0.7471 -0.4304
    8MOL   C625 7779   7.065   4.053   5.519 -0.1117  0.4856 -0.1395
    8MOL   C626 7780   7.101   4.044   5.657  0.3188  0.2589  0.1287
    8MOL   C627 7781   7.220   4.105   5.705  0.2075  0.6896  0.1574
    8MOL   C628 7782   7.305   4.174   5.610  0.0067 -0.4507 -0.7298
    8MOL   N629 7783   7.418   4.246   5.641  0.3803 -0.2002 -0.5252
    8MOL   C630 7784   7.464   4.305   5.761 -0.5099  0.5857  0.6728
    8MOL   C631 7785   7.396   4.322   5.881 -0.4505  0.0158 -0.2302
    8MOL   C632 7786   7.457   4.384   5.991  0.2698 -0.7567 -0.9891
    8MOL   C633 7787   7.583   4.438   5.977 -0.4424 -0.4564  0.6638
    8MOL   C634 7788   7.644   4.537   6.080 -0.1728  0.0753 -0.2994
    8MOL   C635 7789   7.651   4.418   5.861 -0.0529 -0.4166 -0.9413
    8MOL   C636 7790   7.597   4.343   5.760  0.5170 -0.7044 -0.9340
    8MOL   C637 7791   7.269   4.178   5.473 -0.4420  0.3794 -0.0027
    8MOL   C638 7792   7.148   4.123   5.431 -0.9003 -0.2410  0.4063
    8MOL   C639 7793   6.948   3.766   5.578  0.3150 -0.3881 -0.0259
    8MOL   C640 7794   6.875   3.653   5.629  0.1610 -0.1457  0.2877
    8MOL   C641 7795   6.691   3.305   5.731  0.3648 -0.6706  0.2763
    8MOL   C642 7796   6.740   3.202   5.820 -0.2033 -0.0130  0.3277
    8MOL   H643 7797   6.830   3.045   6.009  1.4461 -0.0847  1.4014
    8MOL   H644 7798   6.871   3.400   6.061 -2.3738  0.8159  1.5998
    8MOL   H645 7799   6.780   3.577   5.928 -1.5818  0.1908  0.8509
    8MOL   H646 7800   6.587   3.514   5.614  0.9605  1.9515 -1.3893
    8MOL   H647 7801   6.561   3.759   5.586  0.2012  0.9578  1.5011
    8MOL   H648 7802   6.685   3.960   5.485 -0.4702 -0.0405  2.1223
    8MOL   H649 7803   6.948   3.991   5.371 -2.9602  0.1406 -0.6232
    8MOL   H650 7804   7.030   3.998   5.724  0.2083  0.6488  0.2838
    8MOL   H651 7805   7.244   4.102   5.811 -1.1848  1.6553  0.5035
    8MOL   H652 7806   7.476   4.257   5.559  0.3975  1.2186 -0.3446
    8MOL   H653 7807   7.291   4.297   5.883  0.0707 -2.1663  0.5009
    8MOL   H654 7808   7.398   4.415   6.077  1.7784 -2.0596  0.5530
    8MOL   H655 7809   7.564   4.606   6.108 -0.9153 -1.3117  1.0330
    8MOL   H656 7810   7.720   4.593   6.024  1.1570 -1.6811 -0.2980
    8MOL   H657 7811   7.750   4.459   5.844 -0.6775  1.2503 -0.6991
    8MOL   H658 7812   7.662   4.319   5.677  2.0317  0.0574  0.0161
    8MOL   H659 7813   7.327   4.230   5.399  1.3189 -1.4650  0.0581
    8MOL   H660 7814   7.121   4.135   5.327 -0.3359  3.7253  0.6391
    8MOL   H661 7815   7.056   3.774   5.586  0.4790  1.2338 -3.3049
    8MOL   H662 7816   6.930   3.566   5.664  1.7651  0.7703  0.0934
    8MOL   H663 7817   6.642   3.268   5.642  0.1874  0.0672  0.0643
    8MOL   H664 7818   6.721   3.099   5.795 -3.5594  0.6369 -0.1638
    8MOL   N665 7819   7.702   4.455   6.191  0.1526 -0.2472  0.0735
    8MOL   C666 7820   7.738   4.518   6.308 -0.5630  0.3481  0.4653
    8MOL   C667 7821   7.700   4.450   6.426 -0.4578  0.6931  0.3871
    8MOL   C668 7822   7.755   4.496   6.545 -0.4015 -0.4720 -0.4969
    8MOL   C669 7823   7.842   4.615   6.542  0.8336  0.3819  0.7761
    8MOL   N670 7824   7.892   4.669   6.659  0.0975  0.7238  0.2218
    8MOL   C671 7825   7.927   4.596   6.777 -0.3090 -0.0519  0.1638
    8MOL   C672 7826   7.981   4.467   6.770  0.5976 -0.2346  0.5287
    8MOL   C673 7827   0.037   4.399   6.885  0.2177 -0.0889 -0.5837
    8MOL   C674 7828   0.027   4.459   7.014 -0.5011  0.3486 -0.0583
    8MOL   N675 7829   0.058   4.394   7.130  0.1039 -0.4768 -0.5190
    8MOL   C676 7830   0.005   4.419   7.255  0.3971  0.3452 -0.4811
    8MOL   C677 7831   0.084   4.419   7.373  0.3530 -0.1337  0.5112
    8MOL   C678 7832   0.035   4.447   7.502 -0.7627  0.4482  0.9289
    8MOL   C679 7833   7.879   4.474   7.516 -0.3036 -1.2626 -0.2956
    8MOL   N680 7834   7.829   4.492   7.644  0.1608 -0.8070 -0.0337
    8MOL   C681 7835   7.731   4.416   7.719  0.1495 -0.1449 -0.3020
    8MOL   C682 7836   7.707   4.446   7.850 -0.2029 -0.1274 -0.3200
    8MOL   C683 7837   7.598   4.394   7.920  0.7883 -0.1457  0.7708
    8MOL   C684 7838   7.518   4.290   7.863 -0.4083 -0.0352  0.2058
    8MOL   C685 7839   7.415   4.220   7.944  0.0092  0.1058 -0.3441
    8MOL   C686 7840   7.551   4.244   7.733 -0.0139 -0.3213  0.0383
    8MOL   C687 7841   7.651   4.317   7.656 -0.3695  0.6399 -0.6868
    8MOL   C688 7842   7.798   4.465   7.404  0.5879  0.2293  0.0680
    8MOL   C689 7843   7.853   4.443   7.274  0.2551 -0.0085  0.1252
    8MOL   C690 7844   7.962   4.591   7.020  0.2627 -0.4724  0.1724
    8MOL   C691 7845   7.929   4.667   6.901  0.2925 -0.1618 -0.5536
    8MOL   C692 7846   7.871   4.678   6.420  0.1282  0.0844  0.0776
    8MOL   C693 7847   7.823   4.628   6.303  0.3532  0.8790 -0.2375
    8MOL   H694 7848   7.651   4.369   6.205  1.0180 -1.3035 -2.8374
    8MOL   H695 7849   7.636   4.363   6.426  2.2459 -1.3465  1.4729
    8MOL   H696 7850   7.731   4.446   6.637  0.7846 -0.5824 -0.2405
    8MOL   H697 7851   7.881   4.770   6.661  1.0819  0.9131 -2.0094
    8MOL   H698 7852   0.013   4.426   6.671  0.5367  2.4714 -0.6501
    8MOL   H699 7853   0.081   4.301   6.882 -1.6239 -0.9986  0.8977
    8MOL   H700 7854   0.090   4.298   7.119 -1.4443 -1.4128  2.5665
    8MOL   H701 7855   0.188   4.402   7.349  0.7893  1.5591  1.1227
    8MOL   H702 7856   0.117   4.438   7.572  2.0537  0.6809 -2.1753
    8MOL   H703 7857   7.891   4.551   7.698 -0.9009  0.2953 -0.0065
    8MOL   H704 7858   7.774   4.518   7.895  1.1943 -1.7146  0.1922
    8MOL   H705 7859   7.569   4.428   0.037  0.4800  2.1374 -0.0676
    8MOL   H706 7860   7.322   4.277   7.936  0.5399  1.2323  1.2126
    8MOL   H707 7861   7.449   4.223   0.065  1.2263 -0.0708 -0.7279
    8MOL   H708 7862   7.500   4.163   7.684 -0.7188 -0.4422  0.9645
    8MOL   H709 7863   7.670   4.284   7.555  0.1674 -1.1644 -0.0298
    8MOL   H710 7864   7.691   4.467   7.409  0.6629  0.5209  1.6784
    8MOL   H711 7865   7.783   4.453   7.192 -0.3442  0.2849  0.6730
    8MOL   H712 7866   7.959   4.649   7.111 -0.7845 -2.2883  1.3306
    8MOL   H713 7867   7.889   4.767   6.905  0.9662  0.0599  1.4306
    8MOL   H714 7868   7.933   4.765   6.404  1.2742 -0.8112 -0.3967
    8MOL   H715 7869   7.853   4.680   6.213  2.5233 -1.1885 -0.7497
    8MOL   N716 7870   7.399   4.081   7.908  0.1723  0.0905 -0.1030
    8MOL   C717 7871   7.287   4.005   7.902  0.7397  0.3144 -0.3021
    8MOL   C718 7872   7.163   4.042   7.961  0.1415  0.2426 -0.7129
    8MOL   C719 7873   7.050   3.966   7.943  0.8385 -0.0965 -0.4024
    8MOL   C720 7874   7.051   3.842   7.874 -0.5806  0.9569 -0.3161
    8MOL   N721 7875   6.938   3.770   7.840  0.0673 -0.6603 -0.5984
    8MOL   C722 7876   6.925   3.631   7.857 -0.3237 -1.1081  0.3636
    8MOL   C723 7877   6.982   3.564   7.967 -0.3687  0.0592 -0.3065
    8MOL   C724 7878   6.955   3.426   0.004  0.2659 -0.3741  0.9046
    8MOL   C725 7879   6.867   3.357   7.893  0.2263  0.4455 -0.1749
    8MOL   N726 7880   6.853   3.221   7.904  0.1937  0.0180  0.1927
    8MOL   C727 7881   6.793   3.162   0.036  0.9797 -0.1097 -0.1771
    8MOL   C728 7882   6.732   3.235   0.141  0.2294  0.4507 -0.6860
    8MOL   C729 7883   6.679   3.169   0.254  1.0929 -0.0523 -0.8532
    8MOL   C730 7884   6.676   3.030   0.264  0.3117 -0.8661  0.3046
    8MOL   N731 7885   6.615   2.963   0.374  0.7085  0.0002  0.6426
    8MOL   C732 7886   6.593   2.826   0.396 -0.1313  0.2290 -1.1580
    8MOL   C733 7887   6.469   2.776   0.426  0.0922 -0.7704 -0.2274
    8MOL   C734 7888   6.450   2.641   0.444  0.6308 -0.8394 -0.2293
    8MOL   C735 7889   6.558   2.551   0.438  0.4669  0.4818 -0.1978
    8MOL   C736 7890   6.533   2.399   0.448  1.5455  0.4306  0.4966
    8MOL   C737 7891   6.683   2.602   0.407  0.0785 -0.6958 -0.4590
    8MOL   C738 7892   6.704   2.739   0.396 -0.4391  0.0905  0.2301
    8MOL   C739 7893   6.725   2.958   0.157 -0.1014  0.2510  0.5684
    8MOL   C740 7894   6.791   3.022   0.046  0.5764  0.7135  0.6891
    8MOL   C741 7895   6.805   3.427   7.787 -0.5523 -0.4629 -0.1777
    8MOL   C742 7896   6.836   3.560   7.769  0.4289 -0.0673 -0.2908
    8MOL   C743 7897   7.177   3.800   7.820 -0.1565  0.0404 -0.1182
    8MOL   C744 7898   7.294   3.875   7.842  0.3803  1.0134 -1.1671
    8MOL   H745 7899   7.485   4.031   7.892  0.5541  1.2673 -1.8227
    8MOL   H746 7900   7.145   4.131   0.037  2.2428  0.0678  0.2360
    8MOL   H747 7901   6.955   3.988   0.007  0.8545  2.6331 -1.5430
    8MOL   H748 7902   6.849   3.817   7.833  1.0988  1.4327 -0.0873
    8MOL   H749 7903   7.041   3.621   0.056 -2.2999 -0.4275  1.7393
    8MOL   H750 7904   7.006   3.367   0.079  1.0161  0.2255  0.8706
    8MOL   H751 7905   6.914   3.165   7.847  1.6228  2.5901 -0.8994
    8MOL   H752 7906   6.725   3.342   0.137 -1.0395  0.4354  0.6427
    8MOL   H753 7907   6.629   3.223   0.334  0.0948 -1.7469 -0.2854
    8MOL   H754 7908   6.593   3.023   0.452 -3.3355 -1.0211  0.4093
    8MOL   H755 7909   6.378   2.834   0.424  1.5277  1.5427  0.5172
    8MOL   H756 7910   6.347   2.612   0.457  0.2171 -0.1993 -1.9300
    8MOL   H757 7911   6.430   2.385   0.481  1.1834  1.5228 -0.1396
    8MOL   H758 7912   6.592   2.357   0.529  2.7816 -0.2359 -0.7313
    8MOL   H759 7913   6.764   2.531   0.411 -1.0142 -1.9467  0.2098
    8MOL   H760 7914   6.805   2.772   0.378 -1.0844  2.6261  1.0944
    8MOL   H761 7915   6.730   2.850   0.158  0.1382  0.2170 -1.4841
    8MOL   H762 7916   6.840   2.955   7.958 -4.5348 -1.2553 -1.2067
    8MOL   H763 7917   6.743   3.369   7.720 -1.6012 -1.5303  1.6576
    8MOL   H764 7918   6.784   3.612   7.690 -3.2904 -0.3690  1.8068
    8MOL   H765 7919   7.186   3.705   7.769  1.7308  0.9095 -1.4094
    8MOL   H766 7920   7.391   3.838   7.812  0.7891  1.2569 -0.1690
    8MOL   N767 7921   6.566   2.332   0.327 -0.4840  0.2764 -0.2483
    8MOL   C768 7922   6.504   2.209   0.308  0.3742 -0.3048 -0.1889
    8MOL   C769 7923   6.482   2.163   0.176 -0.7702  0.1607 -0.3558
    8MOL   C770 7924   6.420   2.038   0.149 -0.0301 -0.2381 -0.4107
    8MOL   C771 7925   6.385   1.958   0.259  0.2315  0.0526 -0.2160
    8MOL   N772 7926   6.334   1.833   0.235 -0.3721  0.3951  0.6702
    8MOL   C773 7927   6.308   1.729   0.322  0.3884  0.2623 -0.3252
    8MOL   C774 7928   6.226   1.738   0.440 -0.2227 -0.2380  0.6051
    8MOL   C775 7929   6.197   1.626   0.516 -0.2405 -0.1482 -0.0142
    8MOL   C776 7930   6.262   1.501   0.495 -0.3285 -0.9414  0.1506
    8MOL   N777 7931   6.257   1.401   0.592  0.1376 -0.0217  0.0173
    8MOL   C778 7932   6.308   1.270   0.590 -0.5510 -0.3746  0.4468
    8MOL   C779 7933   6.357   1.215   0.708 -0.5583 -0.1689 -0.1531
    8MOL   C780 7934   6.411   1.090   0.714 -0.2943  0.3141 -0.0200
    8MOL   C781 7935   6.414   1.006   0.598 -1.0184  0.0184 -0.2441
    8MOL   N782 7936   6.481   0.882   0.596  0.2491 -1.1123  0.1905
    8MOL   C783 7937   6.447   0.771   0.512 -0.6978 -0.0546 -0.3223
    8MOL   C784 7938   6.544   0.704   0.455 -0.2584 -0.5731 -0.4586
    8MOL   C785 7939   6.524   0.594   0.367 -0.6099  0.0677 -0.3810
    8MOL   C786 7940   6.392   0.560   0.334 -0.2259 -0.6541  0.8136
    8MOL   C787 7941   6.365   0.452   0.229 -0.3841  0.7612 -0.6224
    8MOL   C788 7942   6.285   0.636   0.393  0.1964 -0.1384  0.8137
    8MOL   C789 7943   6.315   0.735   0.480  0.1427  0.4136  0.6872
    8MOL   C790 7944   6.362   1.063   0.479 -0.0768  0.0808  0.2020
    8MOL   C791 7945   6.305   1.193   0.479  0.3644  0.6120 -0.0869
    8MOL   C792 7946   6.345   1.494   0.380  0.0317  0.7165  0.3346
    8MOL   C793 7947   6.374   1.603   0.295  0.0787 -0.4253  0.4778
    8MOL   C794 7948   6.409   2.000   0.387  1.2729  0.5694 -0.1451
    8MOL   C795 7949   6.465   2.122   0.412  0.4758 -0.4108  0.0516
    8MOL   H796 7950   6.565   2.394   0.248  0.8977  0.6272 -0.0122
    8MOL   H797 7951   6.501   2.231   0.094  2.8122  2.0487  1.9234
    8MOL   H798 7952   6.397   2.010   0.047  2.1096 -2.7751 -0.2660
    8MOL   H799 7953   6.339   1.799   0.140 -0.8467  1.7733  0.1296
    8MOL   H800 7954   6.172   1.826   0.470  2.0649  0.5364  2.4936
    8MOL   H801 7955   6.139   1.642   0.606  1.6012  0.5075  1.0764
    8MOL   H802 7956   6.236   1.434   0.685 -0.3576 -2.4529  0.8160
    8MOL   H803 7957   6.365   1.281   0.793 -2.5378 -1.3720  1.0031
    8MOL   H804 7958   6.466   1.061   0.802 -0.6396  1.9798  0.7731
    8MOL   H805 7959   6.580   0.895   0.611  0.7094 -1.4612 -2.4059
    8MOL   H806 7960   6.649   0.724   0.471 -0.2538  0.5970 -1.8488
    8MOL   H807 7961   6.605   0.543   0.318  0.7636 -0.8611  2.7183
    8MOL   H808 7962   6.396   0.359   0.276 -0.0804  1.7345  1.1743
    8MOL   H809 7963   6.428   0.483   0.146  0.1561  0.2876 -0.3851
    8MOL   H810 7964   6.184   0.612   0.363  1.1209  0.2949 -2.8572
    8MOL   H811 7965   6.229   0.778   0.528 -0.9837 -1.5433  0.4809
    8MOL   H812 7966   6.368   1.026   0.377  0.5684  3.2776 -0.9871
    8MOL   H813 7967   6.272   1.233   0.385 -1.2178  0.6870  0.4909
    8MOL   H814 7968   6.398   1.401   0.362  0.3253  0.7354  1.0912
    8MOL   H815 7969   6.434   1.609   0.205 -1.0764  1.0343 -0.2438
    8MOL   H816 7970   6.391   1.947   0.479  1.0799  0.5770 -0.1784
    8MOL   H817 7971   6.484   2.148   0.516  0.4224 -0.7216  0.1395
    8MOL   N818 7972   6.228   0.431   0.176  0.1846 -0.1770  0.2769
    8MOL   C819 7973   6.154   0.539   0.135  0.2000  0.0992  0.4804
    8MOL   C820 7974   6.020   0.539   0.178  0.6110  0.1261 -0.0794
    8MOL   C821 7975   5.932   0.632   0.126  0.3200 -0.2289 -0.3972
    8MOL   C822 7976   5.978   0.729   0.028  0.3287  0.0461 -0.4981
    8MOL   N823 7977   5.904   0.833   7.961  0.0826  0.4256 -0.3755
    8MOL   C824 7978   5.795   0.893   0.039 -0.3307 -0.2626  0.6781
    8MOL   C825 7979   5.792   0.924   0.172  0.3275  0.8237 -0.2286
    8MOL   C826 7980   5.681   0.991   0.226 -0.0011 -0.3066  0.2506
    8MOL   C827 7981   5.574   1.041   0.143 -0.7278 -0.9060  0.3003
    8MOL   N828 7982   5.463   1.108   0.196 -0.4371 -0.0725 -0.3066
    8MOL   C829 7983   5.437   1.145   0.332  0.1521 -0.4366  0.1162
    8MOL   C830 7984   5.532   1.193   0.423  0.3429 -0.1759  0.1081
    8MOL   C831 7985   5.492   1.230   0.555 -0.4747  0.0282 -0.0325
    8MOL   C832 7986   5.363   1.217   0.603  0.2047  0.5437 -0.0728
    8MOL   N833 7987   5.327   1.250   0.735 -0.4701 -0.3466 -0.1257
    8MOL   C834 7988   5.199   1.287   0.775  0.2141  0.0092  0.2654
    8MOL   C835 7989   5.155   1.265   0.911  0.3632 -0.3523  0.1612
    8MOL   C836 7990   5.027   1.297   0.954 -0.6887  0.4256  0.5132
    8MOL   C837 7991   4.937   1.367   0.865  0.2837 -0.1249  0.0051
    8MOL   C838 7992   4.801   1.424   0.913 -0.1386  0.0860  0.1722
    8MOL   C839 7993   4.978   1.393   0.732  0.1762  0.3105 -0.1032
    8MOL   C840 7994   5.113   1.354   0.687 -0.7171 -0.3491  0.6074
    8MOL   C841 7995   5.269   1.160   0.511  0.1011  0.7744  0.7231
    8MOL   C842 7996   5.307   1.122   0.383 -0.2896 -0.6441  0.3333
    8MOL   C843 7997   5.582   1.015   0.003 -0.0726  0.6988 -0.3222
    8MOL   C844 7998   5.694   0.941   7.933  0.2357  0.8740 -0.8242
    8MOL   C845 7999   6.116   0.725   7.974  0.1442 -0.0696  0.0380
    8MOL   C846 8000   6.203   0.625   0.037  0.4508 -0.4935  0.9797
    8MOL   H847 8001   6.167   0.364   0.221 -1.6285 -1.1449 -3.3969
    8MOL   H848 8002   5.986   0.476   0.258  0.7769  0.6417  0.4000
    8MOL   H849 8003   5.830   0.636   0.159  0.8214  1.6681  1.0281
    8MOL   H850 8004   5.912   0.846   7.862  0.2199 -0.3150 -0.4630
    8MOL   H851 8005   5.873   0.890   0.234  0.0617  0.6480  0.0266
    8MOL   H852 8006   5.692   1.019   0.330 -2.0101  3.1752 -0.3883
    8MOL   H853 8007   5.393   1.145   0.134 -0.1586  1.2120  0.1344
    8MOL   H854 8008   5.636   1.206   0.398  0.0929 -0.4097 -1.0663
    8MOL   H855 8009   5.572   1.253   0.624 -1.1000  1.4298  0.2696
    8MOL   H856 8010   5.406   1.277   0.791 -1.5595 -0.3347  1.4218
    8MOL   H857 8011   5.225   1.216   0.976  2.0858  0.9032 -0.6950
    8MOL   H858 8012   5.001   1.276   1.056 -1.0266 -0.3363  0.2706
    8MOL   H859 8013   4.718   1.366   0.873  0.6416 -1.1383  0.3193
    8MOL   H860 8014   4.790   1.520   0.862 -2.0308 -0.5483 -0.6793
    8MOL   H861 8015   4.916   1.439   0.657 -0.6500 -1.4195 -0.5019
    8MOL   H862 8016   5.139   1.382   0.586 -3.3077  2.7302  0.6950
    8MOL   H863 8017   5.166   1.143   0.535  0.0130 -0.4806 -0.4720
    8MOL   H864 8018   5.235   1.083   0.313 -0.0158  1.6433 -1.2680
    8MOL   H865 8019   5.500   1.050   7.924  0.5395  1.6898 -0.5882
    8MOL   H866 8020   5.693   0.929   7.826 -0.6413 -0.0565 -0.7196
    8MOL   H867 8021   6.148   0.793   7.896 -0.5269  2.4250  1.8820
    8MOL   H868 8022   6.300   0.602   7.978  1.0413 -0.4050  2.3012
    8MOL   N869 8023   4.808   1.445   1.060 -0.1001 -0.5147 -0.0729
    8MOL   C870 8024   4.689   1.500   1.116  0.3999 -0.0818 -0.9561
    8MOL   C871 8025   4.658   1.451   1.247 -1.0290 -0.5281  0.4981
    8MOL   C872 8026   4.583   1.530   1.329 -0.4563 -0.0420  0.7127
    8MOL   C873 8027   4.525   1.650   1.281 -0.6219 -0.4212  0.1834
    8MOL   N874 8028   4.460   1.730   1.374  0.3193  0.5604 -0.4020
    8MOL   C875 8029   4.351   1.815   1.353 -0.3848 -0.3882 -0.8338
    8MOL   C876 8030   4.241   1.762   1.285  0.1745 -0.5570  0.6698
    8MOL   C877 8031   4.130   1.844   1.257 -0.2854  0.3622  0.1308
    8MOL   C878 8032   4.132   1.984   1.288 -0.4752  0.5811  0.1451
    8MOL   N879 8033   4.025   2.062   1.253  0.3889  0.2441 -0.7780
    8MOL   C880 8034   3.990   2.189   1.306  0.5420  0.1210 -0.5661
    8MOL   C881 8035   3.940   2.288   1.222  0.1493  0.7820  0.0525
    8MOL   C882 8036   3.907   2.417   1.270 -0.3743  0.1198 -0.0843
    8MOL   C883 8037   3.917   2.444   1.411 -0.4986  0.7412  0.6794
    8MOL   N884 8038   3.878   2.565   1.469  0.0160 -0.1280 -0.1202
    8MOL   C885 8039   3.895   2.692   1.416 -0.5214 -0.2462  0.1904
    8MOL   C886 8040   3.809   2.798   1.467 -0.0695 -0.8338  0.2322
    8MOL   C887 8041   3.828   2.932   1.422 -0.6328  0.2265 -0.3330
    8MOL   C888 8042   3.931   2.960   1.329  1.0352  0.1399 -0.4108
    8MOL   C889 8043   3.946   3.100   1.277  0.2751 -0.1195  0.1113
    8MOL   C890 8044   4.006   2.854   1.277 -0.1588 -0.0865 -0.5080
    8MOL   C891 8045   3.984   2.723   1.319 -0.4015  0.5205  0.2450
    8MOL   C892 8046   3.956   2.340   1.496 -0.7919 -0.1669  0.0509
    8MOL   C893 8047   3.995   2.216   1.443 -0.8094  0.2371 -0.1800
    8MOL   C894 8048   4.241   2.033   1.366 -0.1856 -0.4914  0.4797
    8MOL   C895 8049   4.352   1.947   1.395  0.4462 -0.3031 -0.7210
    8MOL   C896 8050   4.523   1.679   1.140 -0.2316  0.6621 -0.5318
    8MOL   C897 8051   4.620   1.616   1.063 -0.4157  0.1925  0.2024
    8MOL   H898 8052   4.867   1.381   1.111  3.0531  0.6658 -2.0927
    8MOL   H899 8053   4.686   1.352   1.280  1.8418 -0.2114 -0.8621
    8MOL   H900 8054   4.579   1.485   1.427 -0.3314 -0.6123  0.4561
    8MOL   H901 8055   4.504   1.743   1.464  0.5318  1.0948 -0.5805
    8MOL   H902 8056   4.248   1.661   1.246  2.9911 -0.3010  0.3757
    8MOL   H903 8057   4.047   1.801   1.203 -0.2517 -0.4416  0.7037
    8MOL   H904 8058   4.022   2.063   1.152 -0.7527  1.4912 -0.7467
    8MOL   H905 8059   3.928   2.272   1.115 -0.7343 -3.0467  0.6834
    8MOL   H906 8060   3.877   2.496   1.202  0.1597  0.0450 -0.4106
    8MOL   H907 8061   3.853   2.561   1.567  0.9697  0.4897  0.1569
    8MOL   H908 8062   3.726   2.775   1.533  0.8686 -0.7760  1.4655
    8MOL   H909 8063   3.773   3.011   1.470  1.0825  1.4108 -0.2996
    8MOL   H910 8064   3.871   3.104   1.198 -0.9353 -2.1621  1.1208
    8MOL   H911 8065   4.039   3.128   1.227 -0.4196 -1.0626 -1.7589
    8MOL   H912 8066   4.084   2.871   1.204 -1.9062  0.7522 -2.2283
    8MOL   H913 8067   4.036   2.641   1.272  0.0667  0.3528  1.0517
    8MOL   H914 8068   3.960   2.362   1.602 -0.7381  1.7827 -0.3383
    8MOL   H915 8069   4.017   2.127   1.501 -0.9687  1.2750  1.5148
    8MOL   H916 8070   4.243   2.140   1.379 -0.1550 -0.0295 -2.7701
    8MOL   H917 8071   4.435   1.988   1.449 -1.4201  0.3342  1.7121
    8MOL   H918 8072   4.477   1.771   1.106 -0.0733  1.0298  0.2290
    8MOL   H919 8073   4.628   1.652   0.962 -3.1879  3.6620  1.1285
    8MOL   N920 8074   3.928   3.212   1.368 -0.4150  0.6104 -0.9036
    8MOL   C921 8075   3.818   3.302   1.348 -0.0937 -0.0548  0.1545
    8MOL   C922 8076   3.828   3.435   1.390  0.1850 -0.6529 -0.0792
    8MOL   C923 8077   3.721   3.526   1.376 -0.3295 -0.8173 -0.3435
    8MOL   C924 8078   3.606   3.481   1.319  0.7612 -0.3698  0.3159
    8MOL   N925 8079   3.490   3.568   1.315  0.2187 -0.6671 -0.2220
    8MOL   C926 8080   3.362   3.539   1.368 -0.0340 -0.0014  0.3354
    8MOL   C927 8081   3.337   3.422   1.441 -0.1760  1.2615  0.2556
    8MOL   C928 8082   3.204   3.397   1.491  0.3964  0.5932 -0.3475
    8MOL   C929 8083   3.100   3.484   1.463 -0.4490  0.1516 -0.8896
    8MOL   N930 8084   2.969   3.464   1.511 -0.3412 -0.1133 -0.1773
    8MOL   C931 8085   2.918   3.354   1.584 -0.0583  0.5092 -0.0109
    8MOL   C932 8086   2.829   3.379   1.694 -0.0133 -0.0761 -0.2666
    8MOL   C933 8087   2.798   3.275   1.780  1.0562  0.0221 -0.2468
    8MOL   C934 8088   2.838   3.143   1.751 -0.0545  0.6925  0.0909
    8MOL   N935 8089   2.798   3.042   1.838  0.2613 -0.3498  0.3966
    8MOL   C936 8090   2.878   3.004   1.949  0.2210  0.6116 -0.0084
    8MOL   C937 8091   3.004   3.062   1.992  0.0523  0.0654 -0.0014
    8MOL   C938 8092   3.074   3.007   2.101  0.1764 -0.2047  0.1638
    8MOL   C939 8093   3.013   2.908   2.176  0.1847  0.0528  0.1218
    8MOL   C940 8094   3.095   2.847   2.294  0.6680 -0.4916  0.0490
    8MOL   C941 8095   2.884   2.860   2.144 -0.3653  0.6678 -0.3113
    8MOL   C942 8096   2.828   2.900   2.026 -0.2850 -0.5643 -1.0832
    8MOL   C943 8097   2.909   3.117   1.634 -0.2909 -0.2708  0.1011
    8MOL   C944 8098   2.947   3.222   1.547 -0.2054 -0.3772  0.7177
    8MOL   C945 8099   3.123   3.600   1.390  0.1761  0.3008 -0.5250
    8MOL   C946 8100   3.252   3.630   1.341 -0.6582 -0.8463 -0.6910
    8MOL   C947 8101   3.590   3.355   1.265  0.4244  0.1556  0.1375
    8MOL   C948 8102   3.696   3.264   1.291  0.1017  0.3051  0.5580
    8MOL   H949 8103   4.008   3.249   1.417 -1.2259 -0.6126  1.3849
    8MOL   H950 8104   3.917   3.462   1.444  0.3720  1.1517 -1.2377
    8MOL   H951 8105   3.733   3.623   1.422 -0.5489 -0.3258 -1.3112
    8MOL   H952 8106   3.512   3.665   1.299 -1.0493  0.0800  2.3759
    8MOL   H953 8107   3.419   3.358   1.470  0.7805  2.2599 -0.2586
    8MOL   H954 8108   3.199   3.310   1.554  1.0267  0.4990 -0.4218
    8MOL   H955 8109   2.922   3.543   1.553  1.4570  1.4519 -1.0204
    8MOL   H956 8110   2.798   3.477   1.730 -1.5117 -0.1055 -1.4481
    8MOL   H957 8111   2.744   3.298   1.870  0.3624  1.5014 -1.0097
    8MOL   H958 8112   2.749   2.960   1.806 -0.0126 -0.8232  1.9518
    8MOL   H959 8113   3.054   3.134   1.930  1.6190 -0.3795  0.7414
    8MOL   H960 8114   3.174   3.045   2.120 -0.3025  0.2846  1.7065
    8MOL   H961 8115   3.072   2.904   2.384  1.3456 -1.3367  0.7804
    8MOL   H962 8116   3.201   2.850   2.267  1.1534  0.7872  1.9647
    8MOL   H963 8117   2.839   2.781   2.203 -2.3112  1.0900 -1.1889
    8MOL   H964 8118   2.724   2.876   2.008 -0.6747  3.2617 -4.5932
    8MOL   H965 8119   2.921   3.016   1.599  3.0106 -0.4557  1.6308
    8MOL   H966 8120   2.999   3.196   1.457 -1.6917  1.5859 -0.7570
    8MOL   H967 8121   3.038   3.666   1.378 -1.3199 -1.0617  2.2437
    8MOL   H968 8122   3.280   3.723   1.295  2.1249  0.0086  2.5418
    8MOL   H969 8123   3.494   3.324   1.228  1.5050  1.3019 -3.8609
    8MOL   H970 8124   3.683   3.160   1.265 -0.8252  0.4721  0.3311
    8MOL   N971 8125   3.062   2.704   2.316 -0.5076 -0.1030 -0.3982
    8MOL   C972 8126   3.090   2.640   2.430  0.0038 -0.1528 -0.8886
    8MOL   C973 8127   3.035   2.511   2.449  0.6525 -0.2141 -0.4318
    8MOL   C974 8128   3.059   2.439   2.567  0.4246 -0.1573  0.0633
    8MOL   C975 8129   3.125   2.496   2.677  0.0758  0.0258 -0.1224
    8MOL   N976 8130   3.130   2.431   2.804  0.1713 -0.5945  0.4518
    8MOL   C977 8131   3.092   2.302   2.843  0.6328 -0.0014 -0.3981
    8MOL   C978 8132   3.147   2.193   2.778  0.4558 -0.1212  0.6898
    8MOL   C979 8133   3.105   2.063   2.821  0.2019  0.6996  0.4230
    8MOL   C980 8134   3.011   2.045   2.923 -0.0309 -0.1940  0.3087
    8MOL   N981 8135   2.984   1.918   2.976 -0.2261  0.1257  0.7119
    8MOL   C982 8136   2.910   1.882   3.084  0.6717  0.0272 -0.0390
    8MOL   C983 8137   2.964   1.796   3.181 -0.3683 -0.2836  0.2018
    8MOL   C984 8138   2.876   1.752   3.290  0.2972 -0.4301  0.4944
    8MOL   C985 8139   2.744   1.804   3.295  0.8753 -0.2571 -0.2678
    8MOL   N986 8140   2.648   1.762   3.389  0.5562  0.5607  0.2584
    8MOL   C987 8141   2.522   1.707   3.355  0.1045  0.0978 -0.1812
    8MOL   C988 8142   2.412   1.705   3.444  0.2538  0.9367 -0.4492
    8MOL   C989 8143   2.301   1.625   3.414 -1.0562 -0.8830  0.4327
    8MOL   C990 8144   2.288   1.552   3.295 -0.3128 -0.2551  0.2805
    8MOL   C991 8145   2.156   1.490   3.260  0.9370  0.3569  0.2571
    8MOL   C992 8146   2.403   1.545   3.208 -0.4795  0.2140 -0.0363
    8MOL   C993 8147   2.512   1.625   3.241  0.9228 -0.0272  0.3517
    8MOL   C994 8148   2.693   1.886   3.197  0.2505 -0.6269 -0.3196
    8MOL   C995 8149   2.777   1.927   3.094 -0.1196  0.7475 -0.4972
    8MOL   C996 8150   2.960   2.161   2.987 -0.1222 -0.6756  0.0475
    8MOL   C997 8151   2.999   2.284   2.946  0.1785  0.6082 -0.4460
    8MOL   C998 8152   3.183   2.620   2.655 -0.4906 -0.4770 -0.3475
    8MOL   C999 8153   3.162   2.692   2.536  0.1060 -0.1740 -0.3771
    8MOL     H1 8154   3.026   2.663   2.231 -1.1256  3.7726 -2.0915
    8MOL     H2 8155   2.982   2.456   2.372 -3.9818 -0.9054  2.9916
    8MOL     H3 8156   3.006   2.345   2.569 -0.7498  0.4348 -1.8768
    8MOL     H4 8157   3.158   2.496   2.877 -0.1881  1.7545 -1.4353
    8MOL     H5 8158   3.221   2.208   2.702  0.4341  1.0181  0.8921
    8MOL     H6 8159   3.163   1.980   2.784 -0.3414 -0.5898  2.3681
    8MOL     H7 8160   3.044   1.847   2.937 -2.5088 -2.1589  1.2951
    8MOL     H8 8161   3.063   1.757   3.162 -0.3233  1.1146 -2.6755
    8MOL     H9 8162   2.918   1.685   3.363 -1.5579 -0.5770  1.4327
    8MOL    H10 8163   2.661   1.765   3.490  0.3836 -1.8297  0.3874
    8MOL    H11 8164   2.418   1.750   3.542 -1.5479 -0.3259  0.2671
    8MOL    H12 8165   2.219   1.621   3.484 -4.1654  1.2577 -2.9451
    8MOL    H13 8166   2.066   1.538   3.298 -0.8664 -4.5015  2.5606
    8MOL    H14 8167   2.147   1.386   3.294 -1.8524  0.4478 -0.0899
    8MOL    H15 8168   2.400   1.488   3.117  2.5191  0.0143 -0.0548
    8MOL    H16 8169   2.593   1.607   3.172  0.7072  1.5627 -0.3554
    8MOL    H17 8170   2.588   1.909   3.189  1.0469  2.1411 -3.9966
    8MOL    H18 8171   2.740   1.998   3.021  0.4900  0.2211 -1.3434
    8MOL    H19 8172   2.880   2.160   3.060  0.3647  0.1925  0.5886
    8MOL    H20 8173   2.945   2.366   2.990  1.2798  0.0689  1.9895
    8MOL    H21 8174   3.245   2.653   2.737 -1.5717  3.4993 -1.0412
    8MOL    H22 8175   3.216   2.785   2.523  0.4403 -0.7424 -3.2797
    8MOL    H23 8176   2.154   1.477   3.152  0.1794 -0.4379  0.3614
    9MOL     N1 8177   4.107   0.338   7.749  0.2736  0.2467 -0.4289
    9MOL     C2 8178   4.000   0.427   7.731  0.1422  0.2905 -0.7125
    9MOL     C3 8179   3.866   0.396   7.767 -0.8603  0.1548  0.1463
    9MOL     C4 8180   3.762   0.493   7.764  0.2472  0.6502 -0.3643
    9MOL     C5 8181   3.792   0.614   7.705  0.4822 -0.4773  0.1424
    9MOL     N6 8182   3.689   0.707   7.688  0.1954  0.1626  0.1854
    9MOL     C7 8183   3.686   0.837   7.733  0.0487 -0.1667 -0.2360
    9MOL     C8 8184   3.583   0.915   7.677  0.5209 -0.2672 -0.8916
    9MOL     C9 8185   3.580   1.051   7.708 -0.2297  0.1945  0.4120
    9MOL    C10 8186   3.668   1.102   7.807  0.0538  0.7229 -0.5171
    9MOL    N11 8187   3.653   1.232   7.862 -0.2866  0.2433 -1.0255
    9MOL    C12 8188   3.551   1.330   7.844 -0.9571 -0.0618  0.6239
    9MOL    C13 8189   3.496   1.391   7.960 -0.8574  0.0984  0.0240
    9MOL    C14 8190   3.403   1.500   7.948  0.0762 -0.4461  0.0979
    9MOL    C15 8191   3.369   1.550   7.819 -0.3177  0.3265  0.6973
    9MOL    N16 8192   3.277   1.660   7.813  0.3656 -0.4327 -0.0928
    9MOL    C17 8193   3.290   1.778   7.738 -0.9279  0.1357  0.3240
    9MOL    C18 8194   3.407   1.798   7.663 -0.9891  0.0245 -0.3857
    9MOL    C19 8195   3.425   1.923   7.599  0.1334  0.4803 -0.0096
    9MOL    C20 8196   3.328   2.024   7.611 -0.2352 -0.2972 -0.3829
    9MOL    C21 8197   3.346   2.162   7.543 -0.4198 -0.4644 -0.4487
    9MOL    C22 8198   3.219   2.007   7.699  0.4283 -0.2848  0.7141
    9MOL    C23 8199   3.195   1.884   7.753  0.2516  0.1202 -0.6323
    9MOL    C24 8200   3.425   1.490   7.705  0.0481 -0.6677 -0.4014
    9MOL    C25 8201   3.506   1.377   7.717  0.5272 -0.0075 -0.0085
    9MOL    C26 8202   3.775   1.029   7.858  0.4070 -0.2212  0.0432
    9MOL    C27 8203   3.786   0.890   7.822  0.3818  0.1378  0.2736
    9MOL    C28 8204   3.917   0.644   7.651 -0.1321  0.6865  0.1259
    9MOL    C29 8205   4.022   0.551   7.671  0.5258 -0.4648 -0.4046
    9MOL    H30 8206   4.107   0.265   7.819  1.4184 -0.5394 -1.2275
    9MOL    H31 8207   3.834   0.299   7.803 -0.3917 -0.5375 -1.2740
    9MOL    H32 8208   3.664   0.474   7.805 -0.1422 -1.7027 -2.2430
    9MOL    H33 8209   3.594   0.672   7.691  0.4813 -0.5600  1.2345
    9MOL    H34 8210   3.513   0.869   7.609 -2.7374 -0.7368  2.5982
    9MOL    H35 8211   3.505   1.104   7.652  0.9381  0.3741 -1.0015
    9MOL    H36 8212   3.716   1.254   7.938 -1.6337 -1.8550  0.7463
    9MOL    H37 8213   3.532   1.374   0.079  0.7023  2.4922 -0.0786
    9MOL    H38 8214   3.359   1.536   0.058 -0.5724  0.8112 -0.6876
    9MOL    H39 8215   3.217   1.664   7.895 -3.2162 -2.4497 -2.4923
    9MOL    H40 8216   3.488   1.728   7.655 -2.3164 -1.4976 -0.7589
    9MOL    H41 8217   3.510   1.949   7.539  0.5464  1.9303  1.1513
    9MOL    H42 8218   3.270   2.157   7.465 -0.5297  1.5616 -0.4838
    9MOL    H43 8219   3.443   2.172   7.496 -0.7984  1.8546 -0.7735
    9MOL    H44 8220   3.144   2.083   7.714  0.2865  0.6329 -3.8219
    9MOL    H45 8221   3.103   1.875   7.809  0.7841 -1.9708 -0.0550
    9MOL    H46 8222   3.390   1.521   7.608 -0.5921 -0.3884 -0.0862
    9MOL    H47 8223   3.537   1.329   7.625  0.2680 -0.8905  0.3592
    9MOL    H48 8224   3.847   1.081   7.918 -0.1382 -0.6265  1.0731
    9MOL    H49 8225   3.857   0.826   7.871 -0.0842  0.6073  1.5879
    9MOL    H50 8226   3.935   0.736   7.597  1.1692 -0.4935 -1.4775
    9MOL    H51 8227   4.121   0.586   7.646  0.9474 -0.2268  1.5248
    9MOL    H52 8228   4.199   0.363   7.716  1.0921 -0.5519  1.1753
    9MOL    N53 8229   3.314   2.280   7.627 -0.2185  0.3572  0.2418
    9MOL    C54 8230   3.348   2.412   7.596  0.2195 -0.2738  0.1210
    9MOL    C55 8231   3.327   2.513   7.691 -0.7306 -0.7950 -0.4498
    9MOL    C56 8232   3.359   2.646   7.677  0.5837 -0.2141  0.0228
    9MOL    C57 8233   3.417   2.684   7.551  0.1643 -0.3230 -0.2175
    9MOL    N58 8234   3.471   2.809   7.536 -0.3556 -0.3626  0.4069
    9MOL    C59 8235   3.451   2.929   7.613 -0.7130 -0.4816  0.0622
    9MOL    C60 8236   3.327   2.961   7.661  0.3687 -0.0919  0.3315
    9MOL    C61 8237   3.309   3.070   7.747 -0.4109  0.2802  0.3093
    9MOL    C62 8238   3.418   3.154   7.779 -0.9241 -0.1350  0.2474
    9MOL    N63 8239   3.406   3.269   7.859  0.0208  0.5653 -0.0233
    9MOL    C64 8240   3.295   3.352   7.853 -0.5476  0.2983 -0.6017
    9MOL    C65 8241   3.214   3.389   7.962 -0.0013 -0.5620  0.4581
    9MOL    C66 8242   3.101   3.467   7.939  0.3627 -0.4003 -0.7451
    9MOL    C67 8243   3.073   3.527   7.812 -0.8467  0.1163  0.1327
    9MOL    N68 8244   2.968   3.621   7.805  0.1616 -0.1898  1.2128
    9MOL    C69 8245   2.956   3.731   7.717  0.3083  0.3496  0.5935
    9MOL    C70 8246   2.830   3.793   7.705 -0.5668  0.2329 -0.2691
    9MOL    C71 8247   2.821   3.908   7.630  0.1326  0.3261 -0.3084
    9MOL    C72 8248   2.929   3.968   7.565 -0.4795  0.2697  1.1448
    9MOL    C73 8249   2.902   4.092   7.481 -0.6411  0.3914  0.0995
    9MOL    C74 8250   3.057   3.914   7.580  0.2422 -0.1420  0.2002
    9MOL    C75 8251   3.069   3.791   7.657 -0.4948  0.1422 -0.0682
    9MOL    C76 8252   3.166   3.505   7.708  1.0398  0.4913  0.2589
    9MOL    C77 8253   3.272   3.414   7.729  0.2490 -0.2349  0.9393
    9MOL    C78 8254   3.540   3.121   7.723 -0.3972  0.0298  0.3494
    9MOL    C79 8255   3.566   3.006   7.644  0.2363 -0.1691 -0.5471
    9MOL    C80 8256   3.424   2.590   7.451  0.4799 -0.5518  0.8515
    9MOL    C81 8257   3.388   2.457   7.469 -0.2444 -0.1793 -0.6548
    9MOL    H82 8258   3.279   2.253   7.717  0.4933  2.1057  1.0513
    9MOL    H83 8259   3.285   2.474   7.782  1.2929 -1.4251  0.2381
    9MOL    H84 8260   3.355   2.702   7.769  0.7101 -0.5885  0.2584
    9MOL    H85 8261   3.553   2.809   7.477 -1.3299  0.3464 -0.9670
    9MOL    H86 8262   3.240   2.905   7.634 -1.0904  1.6413  1.3051
    9MOL    H87 8263   3.207   3.084   7.781 -1.1282  1.5610 -2.2553
    9MOL    H88 8264   3.466   3.268   7.940 -2.1186 -0.8410  1.6023
    9MOL    H89 8265   3.239   3.361   0.081 -1.2703  1.4009  1.3369
    9MOL    H90 8266   3.042   3.501   0.040  0.0945  0.3679 -1.2450
    9MOL    H91 8267   2.907   3.636   7.885 -0.7400 -0.9388  0.6698
    9MOL    H92 8268   2.740   3.757   7.752 -0.3737 -0.3213 -0.3203
    9MOL    H93 8269   2.726   3.959   7.627 -0.4457 -0.6669  0.6846
    9MOL    H94 8270   2.815   4.092   7.416  0.7466  1.7445 -1.8119
    9MOL    H95 8271   2.989   4.103   7.415 -0.6277 -0.6489 -0.0622
    9MOL    H96 8272   3.139   3.972   7.538 -0.0984 -0.6440 -1.1817
    9MOL    H97 8273   3.167   3.749   7.671 -0.9035 -0.6270  0.5215
    9MOL    H98 8274   3.153   3.546   7.610  0.3184 -3.2512 -1.3090
    9MOL    H99 8275   3.342   3.397   7.648 -1.1962 -0.1444 -0.3400
    9MOL   H100 8276   3.624   3.180   7.758 -1.5327  0.6997  1.9939
    9MOL   H101 8277   3.667   2.980   7.615  0.8123  0.7669  0.5221
    9MOL   H102 8278   3.465   2.613   7.354 -0.0226  1.0693  1.0195
    9MOL   H103 8279   3.402   2.397   7.380  0.3760  2.8624 -2.6879
    9MOL   N104 8280   2.889   4.215   7.561  0.1315  0.2659  0.3808
    9MOL   C105 8281   2.969   4.223   7.676 -0.7797  0.2653  0.4081
    9MOL   C106 8282   3.088   4.294   7.671 -0.5567  0.2749 -0.2635
    9MOL   C107 8283   3.170   4.303   7.786 -1.0104  0.0273  0.5803
    9MOL   C108 8284   3.129   4.253   7.906  0.7320 -0.0833 -0.8330
    9MOL   N109 8285   3.209   4.277   0.037  0.3813 -0.1995 -0.0744
    9MOL   C110 8286   3.188   4.223   0.162 -0.3423 -0.2554 -0.1011
    9MOL   C111 8287   3.194   4.086   0.176 -0.2194  0.7748  0.5554
    9MOL   C112 8288   3.166   4.033   0.298 -0.0568  0.3330 -0.2830
    9MOL   C113 8289   3.131   4.114   0.408 -0.0343 -0.1964  0.3438
    9MOL   N114 8290   3.094   4.064   0.536  0.1831  0.1576  0.1814
    9MOL   C115 8291   3.129   3.943   0.590  0.0118 -0.5485  0.1403
    9MOL   C116 8292   3.034   3.886   0.681 -0.1145 -0.2025  0.0975
    9MOL   C117 8293   3.073   3.783   0.771  0.0462  0.0055 -0.7393
    9MOL   C118 8294   3.195   3.722   0.757 -0.4834  0.6869  0.3770
    9MOL   N119 8295   3.239   3.614   0.835  0.1704 -0.0083 -0.4113
    9MOL   C120 8296   3.368   3.577   0.870 -0.1780  0.2459 -0.4567
    9MOL   C121 8297   3.475   3.667   0.857  0.4984  0.7968 -0.0136
    9MOL   C122 8298   3.607   3.633   0.898  0.1933 -0.4642 -0.1268
    9MOL   C123 8299   3.638   3.502   0.948  0.0630 -0.0155 -0.9374
    9MOL   C124 8300   3.785   3.463   0.968 -0.9860 -0.1371 -0.4464
    9MOL   C125 8301   3.522   3.411   0.959 -0.2928 -0.2119 -0.2347
    9MOL   C126 8302   3.394   3.446   0.920 -0.1253  0.3452  0.3615
    9MOL   C127 8303   3.276   3.768   0.651 -0.6589 -0.8222  0.5013
    9MOL   C128 8304   3.249   3.873   0.562  0.2037 -0.3652 -0.1272
    9MOL   C129 8305   3.119   4.256   0.395 -0.7871 -1.0757 -0.3406
    9MOL   C130 8306   3.150   4.308   0.269 -0.1686  0.2423 -0.2059
    9MOL   C131 8307   3.005   4.182   7.921 -0.3000  0.0909 -0.0751
    9MOL   C132 8308   2.922   4.171   7.802 -0.2339 -1.0797  1.4845
    9MOL   H133 8309   2.914   4.288   7.497 -1.8733 -3.0609 -4.5124
    9MOL   H134 8310   3.113   4.348   7.581  4.2632 -0.9946  0.1425
    9MOL   H135 8311   3.259   4.362   7.779 -0.5072 -0.4604  2.6389
    9MOL   H136 8312   3.286   4.342   0.030 -0.4586  0.7902 -0.2500
    9MOL   H137 8313   3.226   4.018   0.099 -0.6173  1.4062 -0.1777
    9MOL   H138 8314   3.189   3.928   0.309  3.0719  0.8848 -1.0116
    9MOL   H139 8315   3.025   4.115   0.590 -0.5610 -1.4790  0.8130
    9MOL   H140 8316   2.933   3.920   0.695 -0.3141 -0.2044 -1.3042
    9MOL   H141 8317   2.997   3.749   0.840 -0.7492  2.8046 -0.1703
    9MOL   H142 8318   3.171   3.544   0.859  0.2124  0.2019  0.3586
    9MOL   H143 8319   3.455   3.773   0.847 -0.3837  0.4691 -2.0228
    9MOL   H144 8320   3.681   3.709   0.913 -0.7128  0.4338 -0.1654
    9MOL   H145 8321   3.792   3.404   1.060 -0.6468  0.4880 -0.0649
    9MOL   H146 8322   3.840   3.554   0.991 -0.1499 -0.5758 -0.6723
    9MOL   H147 8323   3.540   3.309   0.990  1.5632  0.6293  1.5664
    9MOL   H148 8324   3.312   3.377   0.928 -2.4794  3.0082 -0.1698
    9MOL   H149 8325   3.373   3.725   0.630 -0.2960 -0.5427  1.5892
    9MOL   H150 8326   3.320   3.906   0.488 -0.2938 -0.4660 -0.6551
    9MOL   H151 8327   3.097   4.309   0.486  1.8781 -1.3348  0.5125
    9MOL   H152 8328   3.130   4.414   0.262 -0.4128  0.2117  0.0046
    9MOL   H153 8329   2.963   4.140   0.029 -2.5344 -0.2003 -1.2336
    9MOL   H154 8330   2.830   4.115   7.801  0.3814 -2.0827 -0.2287
    9MOL   N155 8331   3.843   3.398   0.849 -0.0630 -0.3469  0.4089
    9MOL   C156 8332   3.798   3.268   0.822  0.6509  0.7751  0.1210
    9MOL   C157 8333   3.776   3.218   0.690  0.0854 -0.1521 -0.1951
    9MOL   C158 8334   3.738   3.079   0.678  0.0415  0.2686  0.0048
    9MOL   C159 8335   3.730   2.990   0.790 -0.3455 -0.2389  0.6075
    9MOL   N160 8336   3.705   2.857   0.763 -0.1377  0.7408 -0.0736
    9MOL   C161 8337   3.627   2.769   0.845  0.1207  0.0292 -0.3328
    9MOL   C162 8338   3.498   2.726   0.805  0.2402 -0.5926  0.5403
    9MOL   C163 8339   3.419   2.640   0.881  0.2742 -0.6765 -0.1451
    9MOL   C164 8340   3.468   2.580   1.004  0.2584 -0.0455 -0.2083
    9MOL   N165 8341   3.397   2.475   1.063 -0.6385 -0.5375 -0.6003
    9MOL   C166 8342   3.439   2.396   1.174  0.6104 -0.2557  0.2242
    9MOL   C167 8343   3.481   2.455   1.295  0.0517 -0.3762  0.7827
    9MOL   C168 8344   3.520   2.366   1.399 -0.2477 -0.0965 -0.3145
    9MOL   C169 8345   3.533   2.227   1.379  1.0366 -0.2209  0.3184
    9MOL   N170 8346   3.587   2.152   1.483  0.5561 -0.0552 -0.7240
    9MOL   C171 8347   3.625   2.019   1.481  0.2841 -0.1708 -0.0711
    9MOL   C172 8348   3.594   1.948   1.597  0.0445  0.1264  0.3793
    9MOL   C173 8349   3.658   1.821   1.612 -0.2993 -0.3717  0.4269
    9MOL   C174 8350   3.756   1.777   1.529 -0.7574  0.2651  0.4637
    9MOL   C175 8351   3.829   1.647   1.563 -0.1294  0.0927 -0.1366
    9MOL   C176 8352   3.781   1.853   1.411  0.0015  0.3764  0.1201
    9MOL   C177 8353   3.719   1.976   1.387  0.8141  0.5326  0.2891
    9MOL   C178 8354   3.481   2.173   1.265  0.6386  0.6517  0.0780
    9MOL   C179 8355   3.433   2.258   1.164 -0.1567 -0.2882 -0.0135
    9MOL   C180 8356   3.600   2.629   1.036  0.9377  0.1385 -0.6947
    9MOL   C181 8357   3.674   2.721   0.967 -0.1727  0.1318 -0.4960
    9MOL   C182 8358   3.753   3.045   0.913  0.7372  0.4984  0.2214
    9MOL   C183 8359   3.782   3.179   0.930 -0.4062  0.1336 -0.6152
    9MOL   H184 8360   3.828   3.464   0.774 -3.4128  0.8301  2.0125
    9MOL   H185 8361   3.775   3.293   0.613  2.1489 -0.7068 -0.8097
    9MOL   H186 8362   3.699   3.049   0.582  0.3026 -0.2029  0.0433
    9MOL   H187 8363   3.696   2.842   0.663  1.5335 -1.0482  0.0213
    9MOL   H188 8364   3.444   2.772   0.723  0.2694  0.5118  1.1297
    9MOL   H189 8365   3.327   2.598   0.844 -0.7319  0.7522  0.6664
    9MOL   H190 8366   3.334   2.426   1.001  1.0372 -1.0011 -1.9410
    9MOL   H191 8367   3.476   2.562   1.304  0.6221 -0.3148  0.3875
    9MOL   H192 8368   3.553   2.407   1.493  0.8489 -1.5773 -0.0404
    9MOL   H193 8369   3.582   2.189   1.577 -0.2439 -0.7499 -0.4895
    9MOL   H194 8370   3.520   1.984   1.667  0.7630  1.0634  0.6708
    9MOL   H195 8371   3.638   1.759   1.698 -0.7816 -1.6557 -0.5783
    9MOL   H196 8372   3.911   1.634   1.492  0.2677  1.6696  0.0047
    9MOL   H197 8373   3.759   1.566   1.550 -0.2381  0.0354  0.7629
    9MOL   H198 8374   3.851   1.802   1.347  1.2110 -1.4729  2.8587
    9MOL   H199 8375   3.746   2.028   1.296  1.1993  0.1240  0.1666
    9MOL   H200 8376   3.468   2.067   1.255  0.7748  0.7441 -1.1613
    9MOL   H201 8377   3.408   2.209   1.070 -1.7508  0.5732 -0.0590
    9MOL   H202 8378   3.635   2.587   1.130  0.7577  0.3030 -0.5537
    9MOL   H203 8379   3.773   2.741   1.006  0.3722  0.7549 -2.1907
    9MOL   H204 8380   3.747   2.987   1.004  0.4747  0.3833  0.1298
    9MOL   H205 8381   3.784   3.205   1.035 -0.1605 -0.4536 -0.4726
    9MOL   N206 8382   3.882   1.640   1.699 -0.0659 -0.4207  0.1499
    9MOL   C207 8383   3.897   1.525   1.770  0.3130 -0.0353 -0.5159
    9MOL   C208 8384   3.944   1.538   1.903  0.1060 -0.1606  0.0897
    9MOL   C209 8385   3.945   1.424   1.990 -0.3149 -0.5061  0.3321
    9MOL   C210 8386   3.922   1.297   1.937  0.0899  0.0165 -0.8182
    9MOL   N211 8387   3.907   1.180   2.013  0.0834  0.0481 -0.2024
    9MOL   C212 8388   3.956   1.163   2.143 -0.2822 -0.6880  0.5480
    9MOL   C213 8389   3.898   1.066   2.225 -0.0854  0.3090 -0.4814
    9MOL   C214 8390   3.953   1.028   2.347  0.1790 -0.0166  0.1686
    9MOL   C215 8391   4.064   1.102   2.402  0.0501  0.7679  0.5035
    9MOL   N216 8392   4.121   1.073   2.523 -0.7728 -0.9358 -0.4923
    9MOL   C217 8393   4.167   1.162   2.621 -0.3525 -0.0712  0.0740
    9MOL   C218 8394   4.257   1.112   2.720 -0.2731  0.5048  0.7856
    9MOL   C219 8395   4.286   1.196   2.834 -0.4307  0.8205  1.0680
    9MOL   C220 8396   4.238   1.327   2.847  0.4043 -0.3706  0.6347
    9MOL   N221 8397   4.269   1.405   2.961  0.0443  0.0627 -0.3135
    9MOL   C222 8398   4.367   1.371   3.059  0.3789 -0.5421 -0.2932
    9MOL   C223 8399   4.496   1.312   3.032 -0.3411  0.0105 -0.6637
    9MOL   C224 8400   4.591   1.293   3.132  0.5678  0.1772  0.0071
    9MOL   C225 8401   4.554   1.323   3.266  0.4183  0.1533 -0.6990
    9MOL   C226 8402   4.659   1.308   3.382  0.2190  0.2972  0.8823
    9MOL   C227 8403   4.425   1.371   3.296 -0.1626  0.3358 -0.2368
    9MOL   C228 8404   4.333   1.392   3.193  0.3607  0.5104  0.0713
    9MOL   C229 8405   4.156   1.377   2.746  0.4571 -0.5620  0.2220
    9MOL   C230 8406   4.124   1.297   2.635  1.0845 -0.1497 -0.0782
    9MOL   C231 8407   4.116   1.208   2.328 -0.3190  0.7889 -0.0936
    9MOL   C232 8408   4.066   1.237   2.201  0.4178  0.0550  0.0372
    9MOL   C233 8409   3.878   1.290   1.804 -0.8087  0.1771 -0.1942
    9MOL   C234 8410   3.872   1.396   1.717  0.0924  0.6963  0.0716
    9MOL   H235 8411   3.898   1.723   1.755 -0.1386 -0.3015 -0.0028
    9MOL   H236 8412   3.964   1.638   1.939  1.0294  0.0534 -0.9858
    9MOL   H237 8413   3.964   1.431   2.096 -2.3250 -0.4324  0.7171
    9MOL   H238 8414   3.848   1.105   1.981 -1.3017  0.9072  0.2956
    9MOL   H239 8415   3.824   1.001   2.180 -0.2365  0.3143 -0.2403
    9MOL   H240 8416   3.932   0.937   2.403 -0.5154 -0.0440 -0.1368
    9MOL   H241 8417   4.152   0.981   2.549  2.3494  0.7287  2.2180
    9MOL   H242 8418   4.298   1.012   2.728  1.6156  1.1928  0.1177
    9MOL   H243 8419   4.356   1.158   2.906 -1.2268 -0.7643  1.0270
    9MOL   H244 8420   4.202   1.475   2.989 -1.5025 -0.6827 -2.0894
    9MOL   H245 8421   4.529   1.302   2.930  1.2262 -2.3043  0.0263
    9MOL   H246 8422   4.693   1.274   3.103  0.2094  2.6305 -3.1582
    9MOL   H247 8423   4.751   1.343   3.335  0.4075 -1.4591 -0.0976
    9MOL   H248 8424   4.672   1.206   3.417  2.3026  0.1725 -0.1387
    9MOL   H249 8425   4.416   1.398   3.400  2.2506  0.9253 -0.1461
    9MOL   H250 8426   4.233   1.421   3.224  0.0445  2.1066 -2.3003
    9MOL   H251 8427   4.128   1.481   2.747  0.3870 -0.5412 -1.6614
    9MOL   H252 8428   4.067   1.338   2.553  1.5659  1.2161  0.2647
    9MOL   H253 8429   4.204   1.262   2.359  0.4733 -0.2044 -0.6105
    9MOL   H254 8430   4.115   1.308   2.135 -0.2243 -0.2874 -0.8056
    9MOL   H255 8431   3.851   1.191   1.769  2.2073 -1.1007  0.8883
    9MOL   H256 8432   3.825   1.380   1.621  0.0019 -2.6954  0.6455
    9MOL   N257 8433   4.633   1.388   3.496  0.4925  0.0558  0.2213
    9MOL   C258 8434   4.555   1.352   3.604  0.0693 -0.0902  0.1724
    9MOL   C259 8435   4.496   1.224   3.615 -0.3802 -0.1326 -0.2330
    9MOL   C260 8436   4.427   1.183   3.733  0.1327 -0.4209  0.4507
    9MOL   C261 8437   4.419   1.267   3.843 -0.2291 -0.0748  0.3726
    9MOL   N262 8438   4.337   1.232   3.957 -0.8182  0.4268 -0.1700
    9MOL   C263 8439   4.218   1.162   3.948 -0.5411  0.0607  0.2624
    9MOL   C264 8440   4.182   1.083   4.053  0.0660  0.5982  0.2232
    9MOL   C265 8441   4.063   1.003   4.051  0.2127  0.2301 -0.1223
    9MOL   C266 8442   3.981   1.001   3.939  0.6476 -0.4985  0.7879
    9MOL   N267 8443   3.872   0.918   3.929  0.2562  0.1534  0.3348
    9MOL   C268 8444   3.806   0.886   3.809 -0.0707 -0.2868 -1.1708
    9MOL   C269 8445   3.692   0.957   3.765  0.3553  0.3529  0.0516
    9MOL   C270 8446   3.623   0.918   3.650  0.1563 -0.0889 -0.5775
    9MOL   C271 8447   3.677   0.815   3.570  0.2998  0.3374 -0.4236
    9MOL   N272 8448   3.615   0.785   3.450  0.0682  0.3216 -0.0833
    9MOL   C273 8449   3.574   0.876   3.347  0.0295 -0.7737 -0.0754
    9MOL   C274 8450   3.586   1.019   3.348 -0.0603 -0.5466 -0.4434
    9MOL   C275 8451   3.555   1.095   3.240 -0.7972  1.0427 -0.7235
    9MOL   C276 8452   3.491   1.037   3.124 -0.1354 -0.3407 -0.2210
    9MOL   C277 8453   3.448   1.134   3.014 -0.5224  0.0024  0.5799
    9MOL   C278 8454   3.473   0.898   3.122 -0.1830 -0.7540  0.3001
    9MOL   C279 8455   3.524   0.821   3.232 -0.6772 -0.2644 -0.5308
    9MOL   C280 8456   3.795   0.757   3.608 -0.2323 -0.0828 -0.5991
    9MOL   C281 8457   3.863   0.784   3.730 -0.3153 -0.4190 -0.0486
    9MOL   C282 8458   4.005   1.102   3.838 -1.1006 -0.1947 -0.4438
    9MOL   C283 8459   4.123   1.181   3.846  0.2642 -0.2894  0.4200
    9MOL   C284 8460   4.480   1.395   3.836 -0.4355  0.0262 -0.1250
    9MOL   C285 8461   4.541   1.437   3.720  0.7223 -0.5014  0.1391
    9MOL   H286 8462   4.657   1.486   3.487  2.2583 -0.5238 -1.9031
    9MOL   H287 8463   4.508   1.147   3.540  2.3135 -0.2959  0.3270
    9MOL   H288 8464   4.399   1.080   3.746 -1.1965 -0.4487 -2.3158
    9MOL   H289 8465   4.339   1.295   4.036  0.1641  1.2778 -0.8523
    9MOL   H290 8466   4.239   1.076   4.144  0.4740  0.3311 -0.0527
    9MOL   H291 8467   4.052   0.931   4.130  0.8081  0.2085 -0.0521
    9MOL   H292 8468   3.852   0.856   4.006 -0.0696 -0.8968 -0.5757
    9MOL   H293 8469   3.648   1.037   3.824  2.1902 -0.6723  2.9049
    9MOL   H294 8470   3.530   0.968   3.628  0.7738  1.6040  0.4425
    9MOL   H295 8471   3.611   0.687   3.430  1.4805  0.4376 -1.0519
    9MOL   H296 8472   3.635   1.075   3.427  0.6892 -1.8400  0.0256
    9MOL   H297 8473   3.577   1.201   3.247 -1.4690  1.2228 -1.2315
    9MOL   H298 8474   3.499   1.091   2.927 -2.9376  2.3026 -2.0703
    9MOL   H299 8475   3.493   1.230   3.037  1.5956 -1.2569  1.8290
    9MOL   H300 8476   3.419   0.853   3.039  1.7680 -0.7225 -1.0118
    9MOL   H301 8477   3.507   0.715   3.219  0.5889 -0.4420 -0.8080
    9MOL   H302 8478   3.842   0.686   3.542  0.4466 -1.9693  1.8465
    9MOL   H303 8479   3.952   0.737   3.769 -0.6530  0.0305  1.3055
    9MOL   H304 8480   3.950   1.110   3.745  2.6281 -0.0214 -2.7169
    9MOL   H305 8481   4.152   1.258   3.777  0.2612  1.0597  1.9091
    9MOL   H306 8482   4.456   1.471   3.909 -0.8483 -1.6549  1.5160
    9MOL   H307 8483   4.575   1.539   3.719 -0.5520 -0.0598 -0.2394
    9MOL   N308 8484   3.304   1.154   3.007  0.3649 -0.1859 -0.6994
    9MOL   C309 8485   3.249   1.214   2.890  0.1035 -0.2018  0.1466
    9MOL   C310 8486   3.112   1.195   2.866  0.2776 -0.3681 -0.0663
    9MOL   C311 8487   3.045   1.256   2.760 -0.0247  0.2093 -0.5589
    9MOL   C312 8488   3.123   1.328   2.663  0.2342  0.2430 -0.6158
    9MOL   N313 8489   3.066   1.393   2.553  0.1403 -0.3468  0.7580
    9MOL   C314 8490   3.121   1.432   2.428 -0.1448  0.3083  0.2703
    9MOL   C315 8491   3.048   1.533   2.356 -0.2045 -0.1290  0.4926
    9MOL   C316 8492   3.089   1.570   2.231  0.3343  0.0011  0.8259
    9MOL   C317 8493   3.207   1.514   2.168 -0.2383 -0.0438 -0.2635
    9MOL   N318 8494   3.248   1.542   2.038  0.0929 -0.0546  0.2469
    9MOL   C319 8495   3.162   1.599   1.939  0.0923 -0.0607  0.0580
    9MOL   C320 8496   3.120   1.519   1.829  0.0237  0.3378  0.2294
    9MOL   C321 8497   3.046   1.581   1.730 -0.5180  0.0828  0.0244
    9MOL   C322 8498   3.016   1.716   1.736 -0.1423 -0.2468  0.1509
    9MOL   N323 8499   2.935   1.781   1.642 -0.3644 -0.8828  0.3224
    9MOL   C324 8500   2.821   1.742   1.575 -0.2963  0.2679 -1.1010
    9MOL   C325 8501   2.779   1.825   1.475  0.0952  0.0796  0.1635
    9MOL   C326 8502   2.668   1.791   1.393 -0.0887 -0.3341  0.0609
    9MOL   C327 8503   2.589   1.677   1.424 -0.6897  0.4324 -0.3644
    9MOL   C328 8504   2.469   1.644   1.345  0.2089  0.6187  0.0715
    9MOL   C329 8505   2.622   1.602   1.543 -0.1585  0.5038 -0.1960
    9MOL   C330 8506   2.743   1.632   1.615 -0.7302 -1.2471 -0.2323
    9MOL   C331 8507   3.067   1.798   1.842 -0.3953  0.4656  0.2323
    9MOL   C332 8508   3.142   1.738   1.941  0.4978 -0.0189 -1.3549
    9MOL   C333 8509   3.282   1.422   2.237  0.2691  0.2094  0.6435
    9MOL   C334 8510   3.233   1.372   2.362  0.1981 -0.1732  0.3194
    9MOL   C335 8511   3.259   1.349   2.688  0.0613  0.2063 -0.0899
    9MOL   C336 8512   3.320   1.294   2.802 -0.1020  0.3826 -1.0549
    9MOL   H337 8513   3.245   1.126   3.084  1.2582  1.4080  0.6000
    9MOL   H338 8514   3.058   1.132   2.936  1.2603  0.0102  1.0628
    9MOL   H339 8515   2.939   1.238   2.759  0.0272 -0.2408  0.6872
    9MOL   H340 8516   2.970   1.419   2.572  0.4403  1.0978  0.3771
    9MOL   H341 8517   2.956   1.571   2.398 -0.8424 -0.1037 -0.9134
    9MOL   H342 8518   3.020   1.638   2.182  1.9844  1.0285 -0.1292
    9MOL   H343 8519   3.310   1.467   2.012  1.1197  0.4910  1.0814
    9MOL   H344 8520   3.140   1.413   1.823 -2.3259 -0.2059  1.5375
    9MOL   H345 8521   3.007   1.525   1.646 -1.3458  0.5860  0.0668
    9MOL   H346 8522   2.966   1.873   1.613  0.8554 -1.4272 -0.1213
    9MOL   H347 8523   2.835   1.914   1.452 -1.1457  1.1428  1.1632
    9MOL   H348 8524   2.650   1.864   1.316  0.6012 -0.7385 -0.4844
    9MOL   H349 8525   2.447   1.710   1.261 -0.2093  1.1712  0.6115
    9MOL   H350 8526   2.389   1.645   1.419 -1.9556  0.5839 -2.2070
    9MOL   H351 8527   2.549   1.531   1.579  1.3211 -0.9499 -0.0462
    9MOL   H352 8528   2.765   1.578   1.705 -2.2466 -1.5923 -0.0588
    9MOL   H353 8529   3.048   1.904   1.841  1.3565  0.8083  1.8080
    9MOL   H354 8530   3.185   1.791   2.025 -0.4126  0.6357 -1.3011
    9MOL   H355 8531   3.380   1.388   2.207  0.6520  1.2904  0.6344
    9MOL   H356 8532   3.287   1.295   2.416 -1.4473 -0.0660  2.1652
    9MOL   H357 8533   3.317   1.410   2.620  1.6812 -0.7761  0.3739
    9MOL   H358 8534   3.428   1.303   2.803  0.0182 -0.6639  1.7511
    9MOL   N359 8535   2.466   1.515   1.281  0.0349  0.5427  0.0225
    9MOL   C360 8536   2.373   1.477   1.178 -0.2090  0.1038  0.0567
    9MOL   C361 8537   2.409   1.364   1.106 -0.1103 -0.1414 -0.4867
    9MOL   C362 8538   2.341   1.330   0.987  0.9879 -0.0542  0.0022
    9MOL   C363 8539   2.239   1.408   0.937 -0.2213 -0.0356 -0.2963
    9MOL   N364 8540   2.165   1.361   0.829  0.1673  0.0095 -1.0213
    9MOL   C365 8541   2.138   1.442   0.714 -0.1267  0.0509  0.6320
    9MOL   C366 8542   2.182   1.575   0.699  0.4519  0.0260  0.8286
    9MOL   C367 8543   2.176   1.644   0.582  0.5285 -0.1385  0.8419
    9MOL   C368 8544   2.110   1.587   0.467  0.0761  0.5485 -0.3819
    9MOL   N369 8545   2.096   1.655   0.349 -0.3402  0.3903 -0.6892
    9MOL   C370 8546   2.012   1.631   0.240  0.2827  0.3364  0.7587
    9MOL   C371 8547   2.015   1.510   0.165  0.0929 -0.3493 -0.0132
    9MOL   C372 8548   1.939   1.506   0.046  0.3096  0.0654 -0.1590
    9MOL   C373 8549   1.860   1.611   0.007  0.6433  0.5157  0.3351
    9MOL   N374 8550   1.783   1.591   7.878  0.0241 -0.3682  0.0170
    9MOL   C375 8551   1.722   1.696   7.808  0.3147  0.3445 -0.2796
    9MOL   C376 8552   1.777   1.825   7.787  0.0062  0.5680 -0.4254
    9MOL   C377 8553   1.711   1.923   7.707 -0.1185 -0.2708  0.0247
    9MOL   C378 8554   1.590   1.887   7.642 -0.0565  0.3045 -0.1331
    9MOL   C379 8555   1.516   1.979   7.544  0.4786 -0.0039  0.0991
    9MOL   C380 8556   1.539   1.757   7.656  0.0920  0.4631  0.0858
    9MOL   C381 8557   1.597   1.668   7.745  0.5883 -0.3204 -0.1627
    9MOL   C382 8558   1.862   1.736   0.078  0.2243 -0.1111 -0.5816
    9MOL   C383 8559   1.935   1.750   0.200 -0.6730  0.2097 -0.3210
    9MOL   C384 8560   2.059   1.456   0.486 -0.1718 -0.1984 -0.2204
    9MOL   C385 8561   2.073   1.382   0.605 -0.1130  0.8954 -0.2092
    9MOL   C386 8562   2.192   1.513   1.019  0.1007 -0.0668  0.3311
    9MOL   C387 8563   2.260   1.552   1.136  0.3255  0.5846 -0.1741
    9MOL   H388 8564   2.499   1.441   1.342  0.4884  1.4947  0.9452
    9MOL   H389 8565   2.495   1.312   1.145 -0.6926  0.1926  1.2686
    9MOL   H390 8566   2.366   1.241   0.930  0.1933  1.9856 -3.6630
    9MOL   H391 8567   2.184   1.265   0.805  2.0946  0.1571 -0.1995
    9MOL   H392 8568   2.219   1.634   0.782 -0.5337 -0.1452  1.3911
    9MOL   H393 8569   2.221   1.742   0.582 -0.2845  0.2523  2.8923
    9MOL   H394 8570   2.117   1.753   0.364 -1.7049  0.7903 -1.2602
    9MOL   H395 8571   2.084   1.429   0.180 -0.7652 -1.7485 -3.0600
    9MOL   H396 8572   1.953   1.420   7.965 -0.6129 -1.0510  1.1606
    9MOL   H397 8573   1.762   1.497   7.848  1.5423 -1.1421  1.3085
    9MOL   H398 8574   1.872   1.855   7.827 -0.2188 -0.8374  1.1951
    9MOL   H399 8575   1.755   2.019   7.688 -1.4626  0.3230 -0.1249
    9MOL   H400 8576   1.538   1.962   7.439  1.4061  0.5882  0.1946
    9MOL   H401 8577   1.530   2.086   7.562  1.0955  0.1078 -1.0261
    9MOL   H402 8578   1.450   1.729   7.602  0.0929  1.8110 -0.6496
    9MOL   H403 8579   1.550   1.570   7.746 -3.2540  1.4400  1.2489
    9MOL   H404 8580   1.788   1.810   0.053  2.0270  1.0868 -2.4822
    9MOL   H405 8581   1.931   1.838   0.263 -0.1973  0.7260 -0.9978
    9MOL   H406 8582   2.000   1.419   0.404 -0.9264  0.4914 -0.0001
    9MOL   H407 8583   2.024   1.286   0.617 -0.2822  1.1863  1.6439
    9MOL   H408 8584   2.109   1.570   0.980  1.8363  1.7162 -0.8975
    9MOL   H409 8585   2.225   1.640   1.189 -1.1290  0.4997 -0.9599
    9MOL   N410 8586   1.371   1.970   7.536 -0.2422  0.3414 -0.5996
    9MOL   C411 8587   1.288   2.013   7.424 -0.3972 -0.0655  0.5064
    9MOL   C412 8588   1.158   1.976   7.419 -0.1657 -0.6463  0.6656
    9MOL   C413 8589   1.076   1.998   7.305 -0.5492 -0.4940 -0.4751
    9MOL   C414 8590   1.121   2.073   7.198 -0.6502 -0.6841  0.7682
    9MOL   N415 8591   1.024   2.109   7.104 -0.4244  0.1260 -0.5647
    9MOL   C416 8592   1.028   2.217   7.018 -0.0389 -0.7571 -0.4964
    9MOL   C417 8593   1.006   2.202   6.874 -0.0403 -0.1528 -0.0274
    9MOL   C418 8594   1.016   2.316   6.788 -0.0880 -0.6815  0.0751
    9MOL   C419 8595   1.034   2.443   6.844  0.2054  0.0236 -0.9933
    9MOL   N420 8596   1.016   2.564   6.771 -0.9271 -0.3380 -0.4172
    9MOL   C421 8597   1.033   2.574   6.634  0.4742  0.3794 -0.5552
    9MOL   C422 8598   0.944   2.660   6.567  0.0838  0.2660  1.0877
    9MOL   C423 8599   0.965   2.687   6.428  0.7617 -0.2376  1.0049
    9MOL   C424 8600   1.071   2.623   6.359 -0.7356 -0.7946 -0.5276
    9MOL   N425 8601   1.091   2.667   6.226 -0.4202  0.0587 -0.1685
    9MOL   C426 8602   1.151   2.601   6.118 -0.1404 -0.3369 -0.0283
    9MOL   C427 8603   1.206   2.672   6.013  0.6904  0.5466 -0.1451
    9MOL   C428 8604   1.256   2.609   5.902  0.0641 -0.2236 -0.3381
    9MOL   C429 8605   1.278   2.468   5.903 -0.0105 -0.2480 -0.4005
    9MOL   C430 8606   1.364   2.402   5.803 -0.4883  0.1782 -0.3813
    9MOL   C431 8607   1.230   2.394   6.016  0.3455  0.3729 -0.3396
    9MOL   C432 8608   1.170   2.458   6.122  0.2311  0.0770  0.1907
    9MOL   C433 8609   1.156   2.532   6.425 -0.0901  0.0445 -0.8667
    9MOL   C434 8610   1.143   2.509   6.564  0.2119 -0.5888 -0.5033
    9MOL   C435 8611   1.036   2.452   6.981  0.0316  0.3822  0.2931
    9MOL   C436 8612   1.040   2.346   7.069 -0.4207  0.7032 -0.5688
    9MOL   C437 8613   1.250   2.129   7.210  0.0389 -0.0407  0.2299
    9MOL   C438 8614   1.335   2.105   7.322 -0.1749  0.1730 -0.1654
    9MOL   H439 8615   1.324   1.978   7.626  1.1917 -0.4856  0.2304
    9MOL   H440 8616   1.128   1.922   7.508 -1.6810 -0.2803  0.3981
    9MOL   H441 8617   0.974   1.962   7.307 -0.8892  0.5049  0.8490
    9MOL   H442 8618   0.953   2.041   7.080  0.7002 -2.1212  2.1805
    9MOL   H443 8619   0.978   2.108   6.828  0.7080  0.0106 -0.8098
    9MOL   H444 8620   1.010   2.303   6.681 -2.6044 -0.2755  0.1348
    9MOL   H445 8621   0.964   2.635   6.821 -1.3379  0.1222 -1.4914
    9MOL   H446 8622   0.867   2.709   6.625 -0.4333 -0.1122  0.7381
    9MOL   H447 8623   0.901   2.766   6.392  0.5232 -0.3413  1.2015
    9MOL   H448 8624   1.040   2.751   6.206 -0.2931  0.0197 -0.6674
    9MOL   H449 8625   1.210   2.780   6.016  3.9044  0.4965 -0.4597
    9MOL   H450 8626   1.299   2.672   5.825  0.4648 -0.2623 -0.1441
    9MOL   H451 8627   1.455   2.366   5.852 -1.1153 -1.4739 -0.4160
    9MOL   H452 8628   1.411   2.477   5.739  0.6421  1.0164  1.3696
    9MOL   H453 8629   1.237   2.288   6.034 -1.1403  0.6128  1.7983
    9MOL   H454 8630   1.145   2.410   6.215 -0.6286  2.1569  1.0751
    9MOL   H455 8631   1.247   2.493   6.382  1.8008  0.0667  2.8937
    9MOL   H456 8632   1.213   2.447   6.617 -0.0707 -0.0868  0.4670
    9MOL   H457 8633   1.024   2.548   7.031 -1.1262  0.0560  0.6495
    9MOL   H458 8634   1.031   2.369   7.175 -3.9327 -2.8332  0.0464
    9MOL   H459 8635   1.291   2.186   7.127  3.5002  0.6179  2.2938
    9MOL   H460 8636   1.438   2.134   7.334  0.2579 -0.7647 -1.4589
    9MOL   N461 8637   1.303   2.296   5.730  0.0985 -0.4340 -0.6632
    9MOL   C462 8638   1.211   2.313   5.628 -0.1449  0.4479  1.0115
    9MOL   C463 8639   1.221   2.422   5.539  0.3456 -0.1201 -0.8120
    9MOL   C464 8640   1.122   2.439   5.448  0.4839 -0.3412 -0.2021
    9MOL   C465 8641   1.012   2.354   5.429  0.0105 -0.1235 -0.7399
    9MOL   N466 8642   0.906   2.385   5.340 -0.7028  0.5459 -0.2561
    9MOL   C467 8643   0.879   2.504   5.273 -0.3731 -0.1186 -0.3642
    9MOL   C468 8644   0.896   2.625   5.340  0.3619 -0.1657 -0.2752
    9MOL   C469 8645   0.880   2.750   5.269  0.0844  0.2124  0.5743
    9MOL   C470 8646   0.855   2.745   5.134 -0.3136 -0.0243  0.0742
    9MOL   N471 8647   0.868   2.869   5.062  0.2685 -0.8305 -0.3901
    9MOL   C472 8648   0.798   2.913   4.952  0.0189 -1.2008 -0.7075
    9MOL   C473 8649   0.856   3.013   4.872  0.5353 -0.5376  0.0988
    9MOL   C474 8650   0.790   3.075   4.765 -0.2314  0.8610  0.3305
    9MOL   C475 8651   0.668   3.018   4.720 -0.3843  0.4417 -0.3197
    9MOL   N476 8652   0.605   3.060   4.602  0.0387 -0.2015  0.1613
    9MOL   C477 8653   0.534   2.972   4.522 -0.1309  0.2283  0.5845
    9MOL   C478 8654   0.396   2.993   4.506  0.0401 -0.4567 -0.3786
    9MOL   C479 8655   0.317   2.911   4.421 -0.5455  0.4703  0.0686
    9MOL   C480 8656   0.374   2.790   4.363 -0.0748  0.6085  0.2879
    9MOL   C481 8657   0.293   2.703   4.269  0.1433  0.4592  0.7944
    9MOL   C482 8658   0.515   2.764   4.383 -0.7421 -0.4092  0.4382
    9MOL   C483 8659   0.588   2.851   4.468  0.2732 -0.3255  0.0489
    9MOL   C484 8660   0.606   2.923   4.807  0.4007  0.2046 -0.3504
    9MOL   C485 8661   0.668   2.870   4.924  0.4107  0.2086  1.0695
    9MOL   C486 8662   0.810   2.629   5.073 -0.7450 -0.3114 -0.0097
    9MOL   C487 8663   0.816   2.507   5.141 -0.6572  0.0949 -0.6002
    9MOL   C488 8664   1.016   2.234   5.504 -0.0047  0.8752 -0.8226
    9MOL   C489 8665   1.110   2.219   5.610 -0.3038  0.0045 -0.0751
    9MOL   H490 8666   1.298   2.208   5.780  3.6610 -0.4383 -0.2370
    9MOL   H491 8667   1.297   2.497   5.556  1.2850 -1.6806  2.2432
    9MOL   H492 8668   1.117   2.534   5.397 -2.7643  0.2416  1.0503
    9MOL   H493 8669   0.831   2.319   5.323  0.0207 -0.5175  0.6487
    9MOL   H494 8670   0.925   2.636   5.444 -1.8470 -0.7469  0.4540
    9MOL   H495 8671   0.893   2.846   5.316  1.6528 -0.4996  1.6464
    9MOL   H496 8672   0.948   2.929   5.074  0.1992 -0.7139 -0.4945
    9MOL   H497 8673   0.952   3.052   4.902  0.7860 -0.8399 -0.2952
    9MOL   H498 8674   0.842   3.140   4.697 -1.4339  1.1860 -0.2836
    9MOL   H499 8675   0.637   3.145   4.557 -0.8678 -0.1738 -0.4415
    9MOL   H500 8676   0.346   3.077   4.553  0.3582 -0.6098  0.2431
    9MOL   H501 8677   0.213   2.937   4.420 -0.9639 -1.1108  0.0903
    9MOL   H502 8678   0.309   2.743   4.169 -1.7953 -2.3532 -0.7043
    9MOL   H503 8679   0.185   2.714   4.284  0.1010  1.5916 -0.2712
    9MOL   H504 8680   0.568   2.683   4.335 -0.7296 -0.9905  1.4119
    9MOL   H505 8681   0.693   2.833   4.487  0.8393  1.9597 -0.7698
    9MOL   H506 8682   0.512   2.879   4.779 -0.6817  3.2420 -1.6357
    9MOL   H507 8683   0.609   2.808   4.990 -2.4585  2.2718  0.5388
    9MOL   H508 8684   0.764   2.633   4.975 -1.9126  1.3384  0.5835
    9MOL   H509 8685   0.797   2.415   5.087 -2.7687  2.9563 -4.9900
    9MOL   H510 8686   0.926   2.174   5.500 -0.3960  1.4000 -0.0312
    9MOL   H511 8687   1.085   2.140   5.679  2.6690 -0.4566  0.5106
    9MOL   N512 8688   0.340   2.559   4.262  0.1559 -0.3019 -0.2945
    9MOL   C513 8689   0.260   2.457   4.218 -0.1093 -0.2751 -0.4846
    9MOL   C514 8690   0.134   2.480   4.151  0.0768  0.2479 -0.1162
    9MOL   C515 8691   0.060   2.370   4.099 -0.2260 -0.0161 -0.1631
    9MOL   C516 8692   0.099   2.240   4.130  0.3208  0.0522 -0.7696
    9MOL   N517 8693   0.017   2.136   4.080  0.9616  0.3148  0.2405
    9MOL   C518 8694   7.942   2.035   4.154 -0.4028  0.6363  0.5627
    9MOL   C519 8695   7.888   1.926   4.079  0.2803  0.3775 -0.2740
    9MOL   C520 8696   7.823   1.827   4.143 -0.1259  0.2657  0.5991
    9MOL   C521 8697   7.809   1.825   4.285  0.2117 -0.2065 -0.0762
    9MOL   N522 8698   7.735   1.728   4.357 -0.0949 -0.1658  0.3189
    9MOL   C523 8699   7.669   1.767   4.477 -0.1163 -0.3060  0.2673
    9MOL   C524 8700   7.668   1.675   4.579  0.3978 -0.0109 -0.1834
    9MOL   C525 8701   7.602   1.696   4.700  0.8999 -0.2543 -0.7660
    9MOL   C526 8702   7.556   1.830   4.727 -0.5185 -0.3532 -0.8340
    9MOL   N527 8703   7.499   1.872   4.849 -0.5309  0.3839 -0.1480
    9MOL   C528 8704   7.483   1.801   4.968  0.2734  1.2739  0.0941
    9MOL   C529 8705   7.513   1.868   5.086  0.2487 -0.3679  0.2393
    9MOL   C530 8706   7.514   1.802   5.215  0.1802  0.2558 -0.0208
    9MOL   C531 8707   7.474   1.667   5.218 -0.0136 -0.2406 -0.4390
    9MOL   C532 8708   7.462   1.588   5.351 -0.6473  0.3335 -0.9643
    9MOL   C533 8709   7.425   1.605   5.105  0.4153 -1.0552  0.6457
    9MOL   C534 8710   7.432   1.669   4.976  0.7142  0.7263  0.1818
    9MOL   C535 8711   7.548   1.925   4.618  0.0525  0.6335 -0.2678
    9MOL   C536 8712   7.601   1.891   4.495 -0.2166 -0.0041  0.4150
    9MOL   C537 8713   7.873   1.929   4.360  0.0052  0.1483 -0.6106
    9MOL   C538 8714   7.931   2.033   4.293  0.1909  0.2188 -0.1535
    9MOL   C539 8715   0.226   2.216   4.188 -0.1609 -0.2799  0.0237
    9MOL   C540 8716   0.303   2.325   4.233  0.1802  0.3140 -0.1006
    9MOL   H541 8717   0.419   2.538   4.322  1.3894  0.1667 -1.7394
    9MOL   H542 8718   0.092   2.579   4.139  0.1102  0.6072  2.5363
    9MOL   H543 8719   7.948   2.391   4.052 -0.9947 -1.4461  0.7024
    9MOL   H544 8720   7.934   2.168   4.010  1.0786 -0.8713 -0.4253
    9MOL   H545 8721   7.907   1.929   3.973  1.5083  1.7179 -0.0327
    9MOL   H546 8722   7.781   1.744   4.087  0.7096  1.5572 -2.0365
    9MOL   H547 8723   7.757   1.631   4.336  0.9917  0.1887 -0.2441
    9MOL   H548 8724   7.716   1.579   4.571 -1.4953 -1.0065  0.0680
    9MOL   H549 8725   7.603   1.620   4.777  1.4256 -0.5303 -1.0414
    9MOL   H550 8726   7.485   1.972   4.849  0.0336  0.4748 -1.3942
    9MOL   H551 8727   7.544   1.972   5.083  0.4524 -0.3215  2.8962
    9MOL   H552 8728   7.544   1.854   5.305 -0.9011 -1.3520  1.3033
    9MOL   H553 8729   7.541   1.513   5.356 -1.7649 -0.8807 -1.0706
    9MOL   H554 8730   7.369   1.530   5.349  0.1952 -1.1509  1.0412
    9MOL   H555 8731   7.382   1.506   5.107 -0.5705 -0.6121  1.6049
    9MOL   H556 8732   7.389   1.627   4.886  0.3574  1.5169 -0.0265
    9MOL   H557 8733   7.516   2.027   4.634  0.1983  1.1121 -2.8498
    9MOL   H558 8734   7.587   1.957   4.411  0.3223 -0.3205  0.0801
    9MOL   H559 8735   7.874   1.937   4.468  1.0349  2.7838 -0.7750
    9MOL   H560 8736   7.972   2.113   4.352 -1.5703  0.5158  0.6913
    9MOL   H561 8737   0.256   2.113   4.199 -0.1990 -0.4891 -1.7370
    9MOL   H562 8738   0.391   2.300   4.289 -0.5893  1.0495  1.4622
    9MOL   N563 8739   7.471   1.675   5.465 -0.3548  0.4651 -0.0145
    9MOL   C564 8740   7.510   1.616   5.590 -0.3122  0.2023  0.2663
    9MOL   C565 8741   7.546   1.704   5.692 -0.5237  0.5807 -0.5356
    9MOL   C566 8742   7.564   1.660   5.824  0.6281 -0.5393 -0.5790
    9MOL   C567 8743   7.548   1.529   5.850  0.0335  0.0520  1.1058
    9MOL   N568 8744   7.563   1.467   5.975 -0.0681  0.0133  0.3237
    9MOL   C569 8745   7.668   1.486   6.057  0.4916  0.1033 -0.4939
    9MOL   C570 8746   7.785   1.540   6.007 -0.4328 -0.3752 -0.2440
    9MOL   C571 8747   7.904   1.536   6.082 -0.1639 -0.3631  0.1697
    9MOL   C572 8748   7.904   1.494   6.217  0.3286  0.2340  0.0545
    9MOL   N573 8749   0.030   1.502   6.303  0.2253 -0.1539 -0.0599
    9MOL   C574 8750   0.138   1.597   6.297  1.1534 -0.5996 -0.0998
    9MOL   C575 8751   0.111   1.733   6.258  0.7376  0.4564  0.2221
    9MOL   C576 8752   0.213   1.828   6.275  0.1009 -0.8389  0.1199
    9MOL   C577 8753   0.344   1.791   6.316  0.0351 -0.5454 -0.4639
    9MOL   N578 8754   0.448   1.879   6.317  0.2626 -0.0788 -0.4746
    9MOL   C579 8755   0.569   1.866   6.388  0.1258 -0.0655 -0.4077
    9MOL   C580 8756   0.687   1.941   6.351  0.3742  0.2730 -0.4812
    9MOL   C581 8757   0.805   1.922   6.422 -0.2025 -0.6248  0.1240
    9MOL   C582 8758   0.810   1.851   6.544  0.1416 -1.0726  0.8437
    9MOL   C583 8759   0.936   1.851   6.634  0.7363 -0.2894 -0.2900
    9MOL   C584 8760   0.691   1.782   6.584 -0.0297 -0.3116  0.7202
    9MOL   C585 8761   0.577   1.793   6.506 -0.2413  0.8794 -0.5014
    9MOL   C586 8762   0.365   1.653   6.329  0.2378 -0.0883 -0.0940
    9MOL   C587 8763   0.264   1.559   6.336  0.0134 -0.4971 -0.3386
    9MOL   C588 8764   7.780   1.445   6.274  0.0227 -0.6518  0.5987
    9MOL   C589 8765   7.666   1.438   6.188 -0.1718  0.5642  0.5207
    9MOL   C590 8766   7.511   1.438   5.745  0.1828  0.5927 -0.2103
    9MOL   C591 8767   7.498   1.477   5.610  0.2350 -0.4132 -0.1334
    9MOL   H592 8768   7.493   1.771   5.442  1.7593 -0.3947 -1.6730
    9MOL   H593 8769   7.552   1.807   5.661 -1.9839  1.3776  1.7276
    9MOL   H594 8770   7.583   1.725   5.908 -0.3008 -1.0100 -0.0050
    9MOL   H595 8771   7.527   1.373   5.985  1.1649 -0.6128 -1.0796
    9MOL   H596 8772   7.801   1.562   5.902  1.9146  2.1903  0.5989
    9MOL   H597 8773   0.017   1.558   6.037 -0.0327  0.8595  1.0261
    9MOL   H598 8774   0.039   1.432   6.375  0.0501 -0.2282 -0.1096
    9MOL   H599 8775   0.012   1.754   6.219  1.0943  2.4074  0.3078
    9MOL   H600 8776   0.183   1.930   6.255 -0.9938 -1.5882 -2.3101
    9MOL   H601 8777   0.443   1.953   6.248  0.3727  0.3401 -0.0289
    9MOL   H602 8778   0.686   1.992   6.256 -2.0585  1.7480  0.3098
    9MOL   H603 8779   0.898   1.961   6.381 -0.4051 -0.6305 -0.3447
    9MOL   H604 8780   0.908   1.789   6.719  1.9299  0.7106  0.8534
    9MOL   H605 8781   0.955   1.954   6.666  0.9708  0.0286 -1.4426
    9MOL   H606 8782   0.680   1.734   6.680 -0.8062 -0.9861  0.2987
    9MOL   H607 8783   0.484   1.753   6.543  1.6890 -1.8050  1.6018
    9MOL   H608 8784   0.465   1.626   6.359  0.7000  0.9761 -0.6253
    9MOL   H609 8785   0.282   1.462   6.380  1.0705 -0.6768 -1.1454
    9MOL   H610 8786   7.773   1.410   6.376 -0.1003 -4.4551 -0.6241
    9MOL   H611 8787   7.570   1.407   6.228 -1.2055  0.7242 -1.7441
    9MOL   H612 8788   7.496   1.334   5.771  2.2319  0.0433 -1.1111
    9MOL   H613 8789   7.474   1.406   5.532 -0.4307 -2.1212  1.6019
    9MOL   N614 8790   1.050   1.803   6.558  0.5338  0.1451 -0.4834
    9MOL   C615 8791   1.165   1.881   6.543  0.5477  0.2184 -0.0042
    9MOL   C616 8792   1.292   1.818   6.545 -0.3059 -0.4928  0.0849
    9MOL   C617 8793   1.406   1.894   6.563  0.1897 -0.5388 -0.5700
    9MOL   C618 8794   1.392   2.039   6.571  0.1139  0.3023  0.0891
    9MOL   N619 8795   1.506   2.112   6.593 -0.7568  1.0657 -1.0067
    9MOL   C620 8796   1.521   2.226   6.676 -0.7543  0.0503 -0.7123
    9MOL   C621 8797   1.647   2.303   6.683  0.3609 -0.1475  0.0673
    9MOL   C622 8798   1.651   2.417   6.764 -0.2572 -0.7060  0.0005
    9MOL   C623 8799   1.537   2.454   6.840 -0.1717  0.2508  0.6545
    9MOL   N624 8800   1.557   2.571   6.910 -0.2973 -1.0659 -0.3213
    9MOL   C625 8801   1.499   2.603   7.037  0.4257  0.6428  0.3373
    9MOL   C626 8802   1.428   2.505   7.116  0.4892  0.4918 -0.0342
    9MOL   C627 8803   1.384   2.537   7.245 -0.1822  0.7765  0.2869
    9MOL   C628 8804   1.403   2.670   7.298 -0.4584  0.1711  0.8117
    9MOL   N629 8805   1.354   2.709   7.426  0.1160 -0.5012  0.2494
    9MOL   C630 8806   1.350   2.638   7.549  0.5564  0.7620  0.5353
    9MOL   C631 8807   1.288   2.690   7.667  0.3732 -0.4785  0.4003
    9MOL   C632 8808   1.296   2.623   7.788  0.2931  0.5529  0.0740
    9MOL   C633 8809   1.385   2.518   7.802 -0.5703  0.6284 -0.3432
    9MOL   C634 8810   1.415   2.472   7.942 -0.1510  0.6218  0.3146
    9MOL   C635 8811   1.445   2.460   7.694 -0.2332 -0.0173 -0.0886
    9MOL   C636 8812   1.429   2.523   7.566  0.8086 -0.2704 -0.0630
    9MOL   C637 8813   1.462   2.768   7.217 -0.6282 -0.3420 -0.7404
    9MOL   C638 8814   1.522   2.734   7.093  0.1921  0.2985  0.4030
    9MOL   C639 8815   1.420   2.380   6.835  0.6053 -0.2706 -0.3545
    9MOL   C640 8816   1.413   2.265   6.760  0.2755 -0.2198  0.1588
    9MOL   C641 8817   1.266   2.099   6.546  0.6519 -0.3665  0.1275
    9MOL   C642 8818   1.148   2.023   6.543 -0.2434  0.2426 -0.4015
    9MOL   H643 8819   1.046   1.702   6.549 -0.4288  0.1663 -0.3735
    9MOL   H644 8820   1.296   1.711   6.531  0.9887 -0.4492  0.1236
    9MOL   H645 8821   1.502   1.846   6.568  0.9763  0.9977 -1.0014
    9MOL   H646 8822   1.593   2.072   6.560 -0.9343  0.4638 -0.7474
    9MOL   H647 8823   1.726   2.270   6.617 -1.3172  1.2401 -2.7642
    9MOL   H648 8824   1.744   2.472   6.769 -0.2848 -0.7448  1.0342
    9MOL   H649 8825   1.614   2.646   6.872 -0.1242 -1.1061 -0.1450
    9MOL   H650 8826   1.414   2.402   7.087  2.5589  0.2600 -0.2823
    9MOL   H651 8827   1.326   2.456   7.287 -2.2524  2.1720  0.2252
    9MOL   H652 8828   1.348   2.810   7.436 -0.7115 -0.7648  2.6815
    9MOL   H653 8829   1.231   2.782   7.664  0.7321 -0.3053 -1.7810
    9MOL   H654 8830   1.257   2.673   7.876 -0.1525 -1.1507  0.8666
    9MOL   H655 8831   1.357   2.386   7.977 -0.3597  0.1628 -1.1435
    9MOL   H656 8832   1.396   2.555   0.028  1.6729  1.7702 -0.5483
    9MOL   H657 8833   1.502   2.370   7.710  1.6643  0.7055 -2.4454
    9MOL   H658 8834   1.499   2.496   7.488  3.0203  3.5705  0.4591
    9MOL   H659 8835   1.475   2.866   7.262  2.4270 -1.1575  0.3176
    9MOL   H660 8836   1.568   2.809   7.030 -0.8366  0.2648 -0.4124
    9MOL   H661 8837   1.322   2.408   6.870  1.3394  0.8415  0.8182
    9MOL   H662 8838   1.321   2.208   6.759 -0.5341  1.0328  1.2922
    9MOL   H663 8839   1.247   2.206   6.541  1.0272 -0.1205  3.2720
    9MOL   H664 8840   1.054   2.075   6.535 -2.3379 -3.3564 -0.4628
    9MOL   N665 8841   1.561   2.435   7.956  0.1159 -0.0022  0.3943
    9MOL   C666 8842   1.602   2.343   0.071  0.0229  0.2553 -0.0758
    9MOL   C667 8843   1.547   2.337   0.200 -0.5264 -0.0128 -0.2800
    9MOL   C668 8844   1.598   2.245   0.301  0.7112  0.8772 -0.3074
    9MOL   C669 8845   1.702   2.151   0.264  0.6850 -0.7418 -0.4953
    9MOL   N670 8846   1.738   2.057   0.355  0.3882  0.2026 -0.7324
    9MOL   C671 8847   1.856   2.067   0.436 -0.4731 -0.1611 -0.6208
    9MOL   C672 8848   1.927   2.190   0.451 -0.4662 -0.2508 -0.4505
    9MOL   C673 8849   2.043   2.202   0.520 -0.1749 -0.4018 -0.2410
    9MOL   C674 8850   2.097   2.090   0.581  0.0204  0.1160 -0.1001
    9MOL   N675 8851   2.225   2.090   0.644  0.2719 -0.3037  0.2690
    9MOL   C676 8852   2.288   1.990   0.720 -0.6216 -0.1443 -0.3910
    9MOL   C677 8853   2.423   1.962   0.693 -0.0829 -0.0683  0.3075
    9MOL   C678 8854   2.487   1.867   0.775 -0.1424 -0.3064 -0.6098
    9MOL   C679 8855   2.431   1.800   0.885 -0.3165 -0.4930 -0.2669
    9MOL   N680 8856   2.497   1.699   0.956  0.5746 -0.3509  0.4924
    9MOL   C681 8857   2.601   1.617   0.912 -0.8813  0.0903 -0.1850
    9MOL   C682 8858   2.598   1.561   0.785  0.6714  0.3124 -0.1776
    9MOL   C683 8859   2.693   1.476   0.728  0.1043  0.1909 -0.3612
    9MOL   C684 8860   2.805   1.449   0.806  0.2562 -0.4946 -0.1514
    9MOL   C685 8861   2.928   1.367   0.754 -0.2046  0.5304 -0.1797
    9MOL   C686 8862   2.815   1.496   0.945  0.4344 -0.0902  0.0816
    9MOL   C687 8863   2.712   1.585   0.990 -0.5863  0.2304  0.5231
    9MOL   C688 8864   2.304   1.845   0.924  0.0902 -0.2631  0.2316
    9MOL   C689 8865   2.236   1.942   0.841 -0.1554 -0.0284  0.2021
    9MOL   C690 8866   2.031   1.964   0.574 -0.0170  0.4579  0.3563
    9MOL   C691 8867   1.913   1.952   0.498 -0.7473  0.5537 -0.1321
    9MOL   C692 8868   1.744   2.147   0.129  0.8894 -0.1864  0.1181
    9MOL   C693 8869   1.703   2.246   0.041 -0.4912  0.5070  0.5228
    9MOL   H694 8870   1.622   2.459   7.880  1.7060  0.2093  1.7011
    9MOL   H695 8871   1.476   2.407   0.240  0.8575  1.2231  0.0421
    9MOL   H696 8872   1.548   2.217   0.393 -3.0463  3.1194 -1.5513
    9MOL   H697 8873   1.708   1.961   0.344 -1.1884  0.8355 -2.1351
    9MOL   H698 8874   1.883   2.281   0.413 -1.1612 -0.5852 -0.4673
    9MOL   H699 8875   2.085   2.301   0.522  0.2472 -0.5688 -0.7277
    9MOL   H700 8876   2.273   2.164   0.594  1.4726 -1.4972 -0.3840
    9MOL   H701 8877   2.470   1.997   0.603  0.3918 -0.9773  0.1949
    9MOL   H702 8878   2.591   1.846   0.752  0.3799 -0.2693  1.6141
    9MOL   H703 8879   2.444   1.653   1.028  0.5589  1.0032  1.3655
    9MOL   H704 8880   2.514   1.580   0.721 -0.3864  0.5891  1.2523
    9MOL   H705 8881   2.687   1.443   0.626  3.0413  0.4330 -0.6677
    9MOL   H706 8882   2.907   1.261   0.765 -1.3989  0.8320  0.4882
    9MOL   H707 8883   3.014   1.403   0.811  1.3038 -0.7262 -1.5967
    9MOL   H708 8884   2.898   1.465   1.006  1.2271  0.6141 -0.6242
    9MOL   H709 8885   2.710   1.611   1.095  1.5868 -1.0484  0.9091
    9MOL   H710 8886   2.256   1.811   1.015  0.2106  1.5734  0.9896
    9MOL   H711 8887   2.139   1.979   0.871  1.0394  3.0978  0.4162
    9MOL   H712 8888   2.068   1.872   0.615 -0.0775  0.6242  0.7894
    9MOL   H713 8889   1.867   1.855   0.488 -0.7598  0.7673 -2.4895
    9MOL   H714 8890   1.805   2.064   0.097 -1.0932 -2.0306  0.9885
    9MOL   H715 8891   1.732   2.248   7.919 -0.7252  2.4137  0.4647
    9MOL   N716 8892   2.968   1.376   0.617  0.0993  0.0871  0.4254
    9MOL   C717 8893   3.024   1.493   0.565  0.6312  0.7584 -0.5237
    9MOL   C718 8894   3.053   1.504   0.431  0.9175 -0.0210  0.6145
    9MOL   C719 8895   3.099   1.627   0.377  0.5766  0.3397  0.0131
    9MOL   C720 8896   3.118   1.740   0.461 -0.1323  0.3227 -0.0412
    9MOL   N721 8897   3.172   1.860   0.415  0.1926 -1.1465  0.0806
    9MOL   C722 8898   3.266   1.875   0.311 -0.4409 -0.1530  0.3665
    9MOL   C723 8899   3.256   1.981   0.221 -0.0831 -0.0461 -0.5207
    9MOL   C724 8900   3.347   1.995   0.108 -0.0493 -0.1384 -0.1630
    9MOL   C725 8901   3.451   1.903   0.096  0.7582  0.1342  0.2114
    9MOL   N726 8902   3.543   1.914   7.976 -0.0862  0.4936  0.5223
    9MOL   C727 8903   3.675   1.875   0.001 -0.3043  0.2863 -0.7743
    9MOL   C728 8904   3.747   1.836   0.116 -0.1879  0.4512 -0.0932
    9MOL   C729 8905   3.883   1.813   0.105 -0.1718  0.1153  0.6951
    9MOL   C730 8906   3.953   1.821   7.963 -0.0361  0.2346  0.1236
    9MOL   N731 8907   4.089   1.785   7.960 -0.5777 -0.4016  0.5966
    9MOL   C732 8908   4.161   1.782   7.841 -0.4899  0.4308 -0.1611
    9MOL   C733 8909   4.215   1.659   7.796  0.8368  0.0739  0.8963
    9MOL   C734 8910   4.270   1.651   7.662  0.7762  0.1276 -0.4767
    9MOL   C735 8911   4.286   1.768   7.585 -0.1647  0.7221 -0.0534
    9MOL   C736 8912   4.353   1.770   7.442  0.7396  0.2309 -0.4188
    9MOL   C737 8913   4.243   1.890   7.635  0.7400 -0.5887  0.5200
    9MOL   C738 8914   4.177   1.901   7.763  0.1145 -0.3993 -0.7089
    9MOL   C739 8915   3.873   1.835   7.845 -0.1515  0.0262  0.2862
    9MOL   C740 8916   3.734   1.859   7.863  0.4860 -0.1147 -0.2728
    9MOL   C741 8917   3.448   1.788   0.174  0.0397  0.1554 -0.2012
    9MOL   C742 8918   3.365   1.780   0.287 -0.5702  0.8463 -0.3551
    9MOL   C743 8919   3.101   1.724   0.597  0.3333 -0.3863  0.4986
    9MOL   C744 8920   3.054   1.600   0.648 -0.5460  0.0470  0.3211
    9MOL   H745 8921   2.931   1.313   0.547 -0.4548  1.2181 -0.3186
    9MOL   H746 8922   3.048   1.426   0.357 -0.1662  1.1977 -0.6462
    9MOL   H747 8923   3.129   1.627   0.274  1.8453  3.8211  0.3159
    9MOL   H748 8924   3.150   1.948   0.460  0.9706 -1.1930  0.5619
    9MOL   H749 8925   3.187   2.062   0.239  0.0231  0.0986 -0.7568
    9MOL   H750 8926   3.325   2.063   0.027  0.5970 -0.6012 -0.7466
    9MOL   H751 8927   3.508   1.949   7.887 -0.5848  1.9285  1.2615
    9MOL   H752 8928   3.699   1.826   0.212 -1.1135 -1.3937 -0.7067
    9MOL   H753 8929   3.943   1.785   0.191  0.9796 -0.4247 -0.2511
    9MOL   H754 8930   4.129   1.739   0.058 -1.9520 -3.1841 -0.2184
    9MOL   H755 8931   4.214   1.573   7.861  1.2047 -1.6036 -1.2490
    9MOL   H756 8932   4.322   1.562   7.629 -1.0715 -1.0808 -0.1528
    9MOL   H757 8933   4.410   1.678   7.430 -1.4346 -1.3287  0.9146
    9MOL   H758 8934   4.423   1.854   7.440  2.2037 -1.0113 -1.8511
    9MOL   H759 8935   4.273   1.979   7.581 -1.3193  0.1811  0.5947
    9MOL   H760 8936   4.148   1.998   7.801 -0.1232  0.1588 -2.2698
    9MOL   H761 8937   3.916   1.833   7.747  0.9088 -1.3982  0.7657
    9MOL   H762 8938   3.677   1.879   7.774  0.7888  1.0234 -0.2236
    9MOL   H763 8939   3.527   1.717   0.155  1.5720  1.4896  1.0767
    9MOL   H764 8940   3.377   1.694   0.351 -1.3108  0.5108 -0.6623
    9MOL   H765 8941   3.124   1.796   0.673 -0.0601  1.4108 -1.0506
    9MOL   H766 8942   3.037   1.586   0.753  0.1340 -1.9906  0.1921
    9MOL   N767 8943   4.257   1.798   7.337 -0.3832  0.4706  0.1437
    9MOL   C768 8944   4.301   1.823   7.201 -1.1699  0.6462  0.3784
    9MOL   C769 8945   4.434   1.811   7.155 -0.2647 -0.1864  0.3584
    9MOL   C770 8946   4.464   1.848   7.023 -0.2807  0.4519 -0.2366
    9MOL   C771 8947   4.365   1.897   6.939 -0.5772  0.0226 -0.3105
    9MOL   N772 8948   4.397   1.927   6.807  0.2461 -0.7616 -0.2173
    9MOL   C773 8949   4.419   2.058   6.759 -0.0268 -0.3049  0.3605
    9MOL   C774 8950   4.501   2.079   6.643 -0.5812 -0.7216  0.6594
    9MOL   C775 8951   4.531   2.209   6.594 -0.4315  0.5184  0.5308
    9MOL   C776 8952   4.479   2.323   6.661  0.8503 -0.4249  0.5292
    9MOL   N777 8953   4.491   2.450   6.615 -0.4253 -0.0821 -0.0991
    9MOL   C778 8954   4.505   2.554   6.707  0.0503  1.1115 -0.1303
    9MOL   C779 8955   4.629   2.573   6.768 -0.3135  0.1428  0.0289
    9MOL   C780 8956   4.647   2.663   6.870 -0.3438 -0.4227  0.0444
    9MOL   C781 8957   4.533   2.737   6.916  0.4884 -0.3554  0.3930
    9MOL   N782 8958   4.553   2.830   7.023  0.1914  0.0850 -0.0945
    9MOL   C783 8959   4.460   2.887   7.113  1.0699 -0.4992 -0.4882
    9MOL   C784 8960   4.359   2.807   7.167  0.1901  0.1088  0.3255
    9MOL   C785 8961   4.291   2.846   7.283  0.4087 -0.6707 -1.0459
    9MOL   C786 8962   4.325   2.968   7.350  0.7490  0.2942  0.1040
    9MOL   C787 8963   4.261   3.008   7.480  0.3076 -0.3746  0.1417
    9MOL   C788 8964   4.421   3.054   7.285 -0.0236 -0.8345  0.0559
    9MOL   C789 8965   4.482   3.018   7.158 -0.0979  0.2841 -0.4125
    9MOL   C790 8966   4.407   2.725   6.855  0.1520  0.2774  0.5070
    9MOL   C791 8967   4.391   2.637   6.744 -0.3544 -0.5474  0.1200
    9MOL   C792 8968   4.402   2.302   6.782  0.0650 -0.6461 -0.0398
    9MOL   C793 8969   4.370   2.169   6.827  0.3684  0.1230 -0.1320
    9MOL   C794 8970   4.233   1.909   6.989 -0.0213 -0.3656 -1.0275
    9MOL   C795 8971   4.202   1.876   7.118 -0.1231 -0.1226  0.0825
    9MOL   H796 8972   4.184   1.852   7.380 -0.8950  0.8062 -1.1010
    9MOL   H797 8973   4.515   1.771   7.214  0.8901 -0.4588 -1.3849
    9MOL   H798 8974   4.562   1.844   6.979 -0.7568 -0.8029 -1.2091
    9MOL   H799 8975   4.441   1.850   6.759  0.2636 -0.6494 -0.3816
    9MOL   H800 8976   4.532   1.992   6.586  0.4360  0.4765 -0.6654
    9MOL   H801 8977   4.601   2.225   6.514 -0.8157 -0.0385  0.0857
    9MOL   H802 8978   4.528   2.459   6.522  0.1009 -1.5271 -0.0396
    9MOL   H803 8979   4.718   2.521   6.736 -1.0551 -1.8444  1.1149
    9MOL   H804 8980   4.741   2.690   6.916 -1.8691  1.2240  2.3203
    9MOL   H805 8981   4.649   2.846   7.050  0.2186 -1.1803  0.6179
    9MOL   H806 8982   4.341   2.705   7.136  1.9522 -0.5460  1.3524
    9MOL   H807 8983   4.225   2.772   7.326  1.7641 -0.7308  0.9974
    9MOL   H808 8984   4.336   3.073   7.524 -0.3663  1.1179 -0.8764
    9MOL   H809 8985   4.252   2.926   7.552 -1.5631 -2.8808 -2.7857
    9MOL   H810 8986   4.442   3.149   7.331  1.5938 -0.3648 -1.5906
    9MOL   H811 8987   4.564   3.071   7.112  0.9952  0.8720  2.1342
    9MOL   H812 8988   4.324   2.789   6.880 -0.6253  0.0033 -1.3202
    9MOL   H813 8989   4.300   2.629   6.685 -1.3091  3.6558  0.8624
    9MOL   H814 8990   4.353   2.388   6.825  0.4716 -1.6524  2.5389
    9MOL   H815 8991   4.300   2.154   6.909  0.3759 -1.6249 -0.4450
    9MOL   H816 8992   4.159   1.959   6.928  0.4950  0.5902 -0.8901
    9MOL   H817 8993   4.105   1.907   7.154  0.3647  2.1909 -0.4937
    9MOL   N818 8994   4.134   3.081   7.477 -0.2906  0.2189 -0.1939
    9MOL   C819 8995   4.009   3.016   7.436  0.0263 -0.2456 -0.1626
    9MOL   C820 8996   3.915   3.088   7.365  0.5087 -0.0513  0.4799
    9MOL   C821 8997   3.797   3.029   7.318  0.8368 -0.4815  0.3610
    9MOL   C822 8998   3.768   2.898   7.358  0.2720 -0.8373 -1.5169
    9MOL   N823 8999   3.647   2.847   7.305 -1.1074  0.5306 -0.1694
    9MOL   C824 9000   3.633   2.835   7.165 -0.0188  0.7635  0.0346
    9MOL   C825 9001   3.739   2.793   7.083  0.2726  0.1243 -0.8042
    9MOL   C826 9002   3.716   2.778   6.949  0.3670 -0.5050  0.1424
    9MOL   C827 9003   3.588   2.794   6.885 -0.0051 -0.9048  0.3221
    9MOL   N828 9004   3.569   2.766   6.749  0.0131 -0.0802  0.4714
    9MOL   C829 9005   3.494   2.843   6.654  0.1660  0.3990  0.2221
    9MOL   C830 9006   3.490   2.800   6.517  0.5368 -0.1057  0.5070
    9MOL   C831 9007   3.425   2.876   6.419  0.1145  0.6391  0.4296
    9MOL   C832 9008   3.354   2.992   6.449 -0.3498  0.0448 -0.5378
    9MOL   N833 9009   3.257   3.043   6.363 -0.4623 -0.3014  0.3445
    9MOL   C834 9010   3.222   3.006   6.232 -0.4961 -0.6653  0.0486
    9MOL   C835 9011   3.199   3.102   6.128 -0.4797  0.6344  0.2434
    9MOL   C836 9012   3.147   3.064   6.002  0.2369 -0.0838 -0.0268
    9MOL   C837 9013   3.126   2.931   5.972 -0.0418  0.0393  0.0292
    9MOL   C838 9014   3.081   2.906   5.826 -0.4775  0.1370 -0.0386
    9MOL   C839 9015   3.163   2.832   6.063  0.1059 -0.2523  0.6296
    9MOL   C840 9016   3.208   2.872   6.193 -0.0366 -0.3480  1.1958
    9MOL   C841 9017   3.361   3.035   6.585 -0.2136  0.0973  0.1005
    9MOL   C842 9018   3.437   2.969   6.678 -0.4806  0.1003  0.1575
    9MOL   C843 9019   3.488   2.839   6.970 -0.1001  0.9471 -0.0562
    9MOL   C844 9020   3.507   2.857   7.111 -0.2872 -0.3508  0.6083
    9MOL   C845 9021   3.864   2.826   7.435 -0.0035  0.0507 -0.3633
    9MOL   C846 9022   3.989   2.883   7.474 -0.3365  0.0766  0.3936
    9MOL   H847 9023   4.149   3.169   7.430 -0.8716  0.9923  1.0516
    9MOL   H848 9024   3.936   3.189   7.334  1.6407 -0.2174  0.7116
    9MOL   H849 9025   3.728   3.083   7.256 -0.3415 -1.8603  0.4652
    9MOL   H850 9026   3.564   2.895   7.338 -1.3305 -0.0684  0.1577
    9MOL   H851 9027   3.838   2.773   7.121 -0.7064  0.1308  1.8135
    9MOL   H852 9028   3.807   2.749   6.898  1.1130  1.2703  0.4359
    9MOL   H853 9029   3.641   2.706   6.710  1.1964  1.8504 -0.3609
    9MOL   H854 9030   3.525   2.702   6.487 -0.3957 -0.2110 -0.2597
    9MOL   H855 9031   3.425   2.843   6.316  1.2686  0.2997  0.5238
    9MOL   H856 9032   3.265   3.144   6.367  0.3156 -0.2559 -1.9067
    9MOL   H857 9033   3.216   3.207   6.143  1.4403  0.1039  1.9685
    9MOL   H858 9034   3.113   3.133   5.926 -0.1176  0.0539  0.2557
    9MOL   H859 9035   3.163   2.914   5.755  0.6754 -0.0252  1.2630
    9MOL   H860 9036   3.008   2.983   5.800  2.8961  3.4070 -0.2755
    9MOL   H861 9037   3.153   2.728   6.036  1.3540  0.1588 -1.4815
    9MOL   H862 9038   3.219   2.792   6.265  0.8084 -1.0926  0.2389
    9MOL   H863 9039   3.301   3.120   6.614 -0.8075  0.1091 -1.1217
    9MOL   H864 9040   3.433   3.008   6.779  1.0475  0.2952  0.1579
    9MOL   H865 9041   3.387   2.851   6.936 -1.1801 -0.6077  2.4132
    9MOL   H866 9042   3.420   2.881   7.171  0.6419  0.2325  1.7501
    9MOL   H867 9043   3.848   2.726   7.472  0.3212 -0.0309 -0.4442
    9MOL   H868 9044   4.068   2.848   7.539 -0.0265  0.2660  0.1175
    9MOL   N869 9045   3.018   2.778   5.818 -0.1013 -0.0100  0.2068
    9MOL   C870 9046   2.965   2.759   5.691  0.0777  0.0153 -0.1250
    9MOL   C871 9047   2.895   2.854   5.618  0.2788 -0.4071  0.3308
    9MOL   C872 9048   2.834   2.827   5.496  0.1535 -0.0337 -0.2287
    9MOL   C873 9049   2.844   2.704   5.442  0.0131  0.8570  0.0411
    9MOL   N874 9050   2.777   2.674   5.322  0.3183 -0.2874 -0.5724
    9MOL   C875 9051   2.667   2.734   5.272 -0.4596  0.6813  0.2962
    9MOL   C876 9052   2.664   2.757   5.133  0.3477  0.3688 -0.1155
    9MOL   C877 9053   2.546   2.819   5.079  0.6430  0.6045  0.1992
    9MOL   C878 9054   2.431   2.842   5.154 -0.1688  0.3404 -0.2339
    9MOL   N879 9055   2.317   2.901   5.106 -0.1256 -0.5370 -0.0121
    9MOL   C880 9056   2.286   2.941   4.971 -0.0436  0.1694 -0.2833
    9MOL   C881 9057   2.248   3.075   4.928  0.2430 -0.1608 -0.3310
    9MOL   C882 9058   2.226   3.104   4.790 -0.3829  0.5586 -0.5900
    9MOL   C883 9059   2.224   2.995   4.701 -0.4760 -0.1576  0.1526
    9MOL   N884 9060   2.177   3.013   4.577  0.6355 -0.0952  0.0513
    9MOL   C885 9061   2.209   3.118   4.488  0.1510  0.1215  0.1162
    9MOL   C886 9062   2.108   3.137   4.392  0.3008 -0.0004  0.2695
    9MOL   C887 9063   2.133   3.236   4.294 -0.0712  0.4817  0.6611
    9MOL   C888 9064   2.251   3.310   4.293  0.0683 -0.2210 -0.3390
    9MOL   C889 9065   2.281   3.394   4.173 -0.0775  0.8301 -0.0039
    9MOL   C890 9066   2.349   3.288   4.394  0.5675 -0.7191  0.0633
    9MOL   C891 9067   2.326   3.192   4.489 -0.4306 -0.2604 -0.4258
    9MOL   C892 9068   2.259   2.864   4.745  0.1378 -0.2147  0.0955
    9MOL   C893 9069   2.289   2.837   4.878  0.2652 -0.4652  0.5779
    9MOL   C894 9070   2.438   2.814   5.294 -0.1756 -0.5053  0.2316
    9MOL   C895 9071   2.556   2.764   5.352 -0.0260  0.2654 -0.4399
    9MOL   C896 9072   2.928   2.605   5.503  0.3849  0.4464 -0.0264
    9MOL   C897 9073   2.986   2.638   5.629 -0.3184  0.3859  0.1615
    9MOL   H898 9074   3.077   2.704   5.853 -1.1737 -1.1219 -0.2816
    9MOL   H899 9075   2.884   2.956   5.652  2.1037  0.4756 -1.6256
    9MOL   H900 9076   2.776   2.900   5.442  0.3281  0.6756  0.5283
    9MOL   H901 9077   2.803   2.588   5.276 -2.4255 -0.4160 -2.0190
    9MOL   H902 9078   2.745   2.726   5.069  2.5607  1.1941  2.2006
    9MOL   H903 9079   2.549   2.846   4.975  0.3571  2.0567  0.5415
    9MOL   H904 9080   2.247   2.929   5.174  1.2765  1.0044  0.8525
    9MOL   H905 9081   2.255   3.156   4.999 -1.1559  0.9096 -1.3876
    9MOL   H906 9082   2.194   3.199   4.750 -0.2330 -0.0511 -2.1826
    9MOL   H907 9083   2.122   2.941   4.531  3.1345 -1.5907 -0.6950
    9MOL   H908 9084   2.020   3.076   4.386  2.0801 -2.5626 -0.7257
    9MOL   H909 9085   2.058   3.251   4.217  2.4083  1.0676 -1.7283
    9MOL   H910 9086   2.249   3.497   4.191 -1.4407  0.6863 -1.5278
    9MOL   H911 9087   2.208   3.365   4.097  0.4793 -0.1667 -0.1709
    9MOL   H912 9088   2.442   3.342   4.382 -0.7471  1.8318  0.9654
    9MOL   H913 9089   2.402   3.168   4.561  0.8882  0.2039 -1.6325
    9MOL   H914 9090   2.268   2.781   4.676 -0.7762 -0.1622 -0.0972
    9MOL   H915 9091   2.310   2.736   4.909 -1.1281 -0.8485  0.2829
    9MOL   H916 9092   2.355   2.844   5.356 -0.8504  1.3020 -1.5033
    9MOL   H917 9093   2.558   2.735   5.456 -2.0486  0.1619 -0.4093
    9MOL   H918 9094   2.944   2.517   5.442  0.5592 -1.2198  2.3674
    9MOL   H919 9095   3.047   2.558   5.666 -1.5692 -1.1259 -0.9589
    9MOL   N920 9096   2.422   3.375   4.126 -0.7499 -0.2521 -0.3215
    9MOL   C921 9097   2.467   3.424   4.002 -0.0306  0.7125  0.3621
    9MOL   C922 9098   2.590   3.384   3.944 -0.0061  0.3108  1.1536
    9MOL   C923 9099   2.619   3.415   3.809 -0.0611  0.5987 -0.8064
    9MOL   C924 9100   2.530   3.500   3.737  0.0123  0.3971  0.4869
    9MOL   N925 9101   2.569   3.551   3.613  0.0759 -0.0905 -0.1238
    9MOL   C926 9102   2.620   3.484   3.507  0.6593  0.2538 -0.1345
    9MOL   C927 9103   2.635   3.549   3.378  0.1899 -0.3342 -0.2209
    9MOL   C928 9104   2.691   3.485   3.269  0.3136 -0.3493  0.0840
    9MOL   C929 9105   2.722   3.352   3.274 -0.1969 -0.1812 -0.1382
    9MOL   N930 9106   2.801   3.303   3.176  0.0920  0.0479  0.0091
    9MOL   C931 9107   2.863   3.176   3.171 -0.0935 -0.3789 -0.3366
    9MOL   C932 9108   2.775   3.062   3.173  0.0253 -0.5984 -0.6143
    9MOL   C933 9109   2.828   2.934   3.175 -0.4555  0.3479 -0.5026
    9MOL   C934 9110   2.969   2.922   3.185  0.1450 -0.4705 -0.3204
    9MOL   N935 9111   3.029   2.800   3.219  0.2024 -0.1557 -0.2980
    9MOL   C936 9112   2.956   2.687   3.242 -0.3619  0.1689  0.2290
    9MOL   C937 9113   2.881   2.617   3.140 -0.1419 -0.0926  0.7057
    9MOL   C938 9114   2.800   2.508   3.167 -0.1476  0.2737 -0.2678
    9MOL   C939 9115   2.792   2.466   3.304 -0.2837  0.7432 -0.7028
    9MOL   C940 9116   2.691   2.363   3.339  0.2154  0.0627  0.4259
    9MOL   C941 9117   2.866   2.537   3.411 -0.1258 -0.3631 -0.1002
    9MOL   C942 9118   2.946   2.646   3.375 -0.4063  0.2116  0.1266
    9MOL   C943 9119   3.059   3.036   3.165  0.6152 -1.2771 -0.1812
    9MOL   C944 9120   3.000   3.165   3.165 -0.3351  0.4306  0.4800
    9MOL   C945 9121   2.701   3.282   3.395  0.1208 -1.1223  0.1645
    9MOL   C946 9122   2.650   3.346   3.508  0.8699 -0.8288  1.0192
    9MOL   C947 9123   2.407   3.543   3.794  0.9416 -0.0174  0.1973
    9MOL   C948 9124   2.373   3.495   3.921 -0.6451  0.2710  0.5725
    9MOL   H949 9125   2.473   3.302   4.175 -0.8287 -0.3491 -0.3841
    9MOL   H950 9126   2.663   3.324   3.996  2.5574 -0.2768 -2.9103
    9MOL   H951 9127   2.715   3.382   3.771 -0.0792  1.4405 -1.6028
    9MOL   H952 9128   2.501   3.621   3.586 -0.1263 -0.8117 -1.5341
    9MOL   H953 9129   2.604   3.651   3.361 -1.4433 -1.0672 -1.8342
    9MOL   H954 9130   2.706   3.542   3.178  1.0322  1.5962  1.3910
    9MOL   H955 9131   2.865   3.373   3.140  1.5334 -0.8240  0.7936
    9MOL   H956 9132   2.669   3.080   3.174  0.3372  1.4546 -1.6101
    9MOL   H957 9133   2.763   2.849   3.188  1.1079 -0.8060  0.0263
    9MOL   H958 9134   3.103   2.800   3.289  1.3143  0.4665 -1.4660
    9MOL   H959 9135   2.875   2.646   3.036 -1.4458 -0.9068  0.5501
    9MOL   H960 9136   2.752   2.452   3.088 -1.8867  0.4766  0.6141
    9MOL   H961 9137   2.711   2.335   3.442 -0.3508  1.2108  0.8530
    9MOL   H962 9138   2.693   2.272   3.278  1.3971 -0.3684  1.0904
    9MOL   H963 9139   2.864   2.499   3.512  2.6488 -1.6369 -0.4897
    9MOL   H964 9140   3.003   2.697   3.452 -1.4766  0.0276  1.0489
    9MOL   H965 9141   3.166   3.025   3.164  1.1360  2.3807  2.6195
    9MOL   H966 9142   3.063   3.253   3.167 -0.6182  0.6030  2.0434
    9MOL   H967 9143   2.735   3.180   3.404 -0.8046 -1.3021  1.8496
    9MOL   H968 9144   2.653   3.280   3.593  1.1915 -0.4068  1.3370
    9MOL   H969 9145   2.342   3.607   3.737  1.7650  0.3122 -0.3817
    9MOL   H970 9146   2.277   3.530   3.955 -1.7092 -1.0498 -1.0218
    9MOL   N971 9147   2.553   2.417   3.343 -0.7686  0.5399 -0.1464
    9MOL   C972 9148   2.443   2.331   3.342  0.4677 -0.5730  0.0012
    9MOL   C973 9149   2.322   2.394   3.301 -0.8918 -0.0867  0.5334
    9MOL   C974 9150   2.205   2.317   3.290  0.3144 -0.0671 -0.2438
    9MOL   C975 9151   2.207   2.179   3.318  0.2492  0.0032  0.4411
    9MOL   N976 9152   2.093   2.106   3.299 -0.1661  0.9197 -0.0044
    9MOL   C977 9153   2.053   1.993   3.372  0.6015  0.2060 -0.9668
    9MOL   C978 9154   2.113   1.941   3.493  0.2708  0.1679 -0.5372
    9MOL   C979 9155   2.070   1.824   3.559 -0.1010  0.3473  0.4743
    9MOL   C980 9156   1.954   1.761   3.515  0.2702 -0.1854  0.5109
    9MOL   N981 9157   1.901   1.653   3.580 -0.0863  0.5629 -0.4676
    9MOL   C982 9158   1.884   1.530   3.523  0.5300 -0.3079 -0.6633
    9MOL   C983 9159   1.972   1.423   3.558  0.0159  0.4327  0.7675
    9MOL   C984 9160   1.956   1.299   3.490  0.0786  0.3415  0.1900
    9MOL   C985 9161   1.861   1.285   3.382 -0.8557 -0.2432  0.2977
    9MOL   N986 9162   1.843   1.160   3.323  0.0415  0.3846  0.3277
    9MOL   C987 9163   1.773   1.129   3.200 -0.6372 -0.2422  1.1835
    9MOL   C988 9164   1.762   1.223   3.097 -0.1032 -0.6394 -0.4832
    9MOL   C989 9165   1.672   1.207   2.987  0.1970  0.3237 -0.2895
    9MOL   C990 9166   1.602   1.086   2.973  1.0877  0.2618  0.3143
    9MOL   C991 9167   1.521   1.063   2.842  0.0824 -0.1115  0.6807
    9MOL   C992 9168   1.609   0.989   3.075 -0.8452  0.0906  0.2287
    9MOL   C993 9169   1.696   1.011   3.184  0.2926  0.0248  0.9026
    9MOL   C994 9170   1.781   1.395   3.349  0.0354 -0.1638 -0.5623
    9MOL   C995 9171   1.783   1.513   3.424  0.1533 -0.0254  0.0786
    9MOL   C996 9172   1.880   1.821   3.405  0.9679  0.4916  0.6145
    9MOL   C997 9173   1.934   1.932   3.330  0.7688 -0.5571 -0.2216
    9MOL   C998 9174   2.335   2.118   3.346 -0.3436 -0.1925  0.2322
    9MOL   C999 9175   2.448   2.195   3.368 -0.1389 -0.5085  0.0511
    9MOL     H1 9176   2.541   2.496   3.282 -0.4741  1.0833  0.4887
    9MOL     H2 9177   2.315   2.499   3.277 -0.3914 -0.1079  0.3020
    9MOL     H3 9178   2.116   2.371   3.260  0.1319  0.5731  1.3611
    9MOL     H4 9179   2.019   2.163   3.261 -0.8407  1.5558  2.1505
    9MOL     H5 9180   2.198   1.992   3.533 -0.2338  1.6784 -1.3402
    9MOL     H6 9181   2.131   1.787   3.640  2.9753  1.1693 -1.3877
    9MOL     H7 9182   1.943   1.641   3.671 -1.0218 -1.5206 -0.2764
    9MOL     H8 9183   2.045   1.439   3.637 -1.6084  1.5183  2.0752
    9MOL     H9 9184   2.010   1.213   3.527 -1.8097 -0.3284  1.4700
    9MOL    H10 9185   1.854   1.090   3.395  0.9733  1.6478  1.4543
    9MOL    H11 9186   1.821   1.313   3.108  0.1114 -0.9402  0.9986
    9MOL    H12 9187   1.657   1.284   2.914 -1.6280 -0.7657 -1.0960
    9MOL    H13 9188   1.564   1.089   2.746 -1.7858 -0.6515 -0.3377
    9MOL    H14 9189   1.418   1.098   2.831  0.1343 -0.2968 -0.5021
    9MOL    H15 9190   1.552   0.897   3.075 -0.4384 -0.1733 -1.2795
    9MOL    H16 9191   1.708   0.932   3.257 -0.0932 -1.2331 -0.3671
    9MOL    H17 9192   1.697   1.386   3.282 -2.5266 -1.7897  2.7392
    9MOL    H18 9193   1.709   1.589   3.405 -0.1327  0.1182  1.7559
    9MOL    H19 9194   1.785   1.782   3.372  1.3677 -1.6956  1.9437
    9MOL    H20 9195   1.878   1.969   3.245 -1.8886 -1.0930  1.2511
    9MOL    H21 9196   2.336   2.013   3.368  0.7637 -0.1708  0.3286
    9MOL    H22 9197   2.542   2.144   3.389 -1.3041 -2.8289 -0.1727
    9MOL    H23 9198   1.515   0.954   2.841 -2.0714 -0.0204  0.8854
   10MOL     N1 9199   2.476   0.769   0.150  0.0817  0.3074 -0.4329
   10MOL     C2 9200   2.469   0.667   0.248 -0.4359 -0.3965 -0.3042
   10MOL     C3 9201   2.346   0.615   0.291 -0.8750 -0.1935 -0.5515
   10MOL     C4 9202   2.345   0.514   0.389 -0.9878 -0.0824 -0.0220
   10MOL     C5 9203   2.462   0.470   0.453  0.1705 -0.0266  0.0575
   10MOL     N6 9204   2.451   0.364   0.545 -0.0142 -0.0403 -0.5585
   10MOL     C7 9205   2.345   0.332   0.632 -0.0988  0.1205  0.1382
   10MOL     C8 9206   2.327   0.196   0.672 -0.7266  0.3624  0.1216
   10MOL     C9 9207   2.225   0.155   0.754  0.1904  0.2265  0.0561
   10MOL    C10 9208   2.146   0.251   0.822 -0.4791 -0.3793 -0.3659
   10MOL    N11 9209   2.049   0.216   0.920 -0.9687  0.3225 -0.2621
   10MOL    C12 9210   2.012   0.085   0.951 -0.0194 -0.3059  0.4064
   10MOL    C13 9211   2.095   7.976   1.022 -0.5957  0.5991  0.0691
   10MOL    C14 9212   2.051   7.851   1.057  0.3976 -0.0017  0.0482
   10MOL    C15 9213   1.922   7.807   1.023 -0.0855 -0.4387  0.5152
   10MOL    N16 9214   1.866   7.679   1.058  0.1824  0.0604  0.5372
   10MOL    C17 9215   1.927   7.558   1.086  0.0267  0.1372 -0.5377
   10MOL    C18 9216   2.043   7.513   1.019  0.7576 -1.2321 -0.0418
   10MOL    C19 9217   2.096   7.385   1.043  0.7022 -0.4258  0.3365
   10MOL    C20 9218   2.031   7.299   1.130  0.0098  0.0265  0.5091
   10MOL    C21 9219   2.083   7.160   1.146 -0.3159 -0.2839  0.2271
   10MOL    C22 9220   1.913   7.336   1.186 -0.3052 -0.4016  0.2862
   10MOL    C23 9221   1.866   7.472   1.177 -0.7134  0.6396  0.1502
   10MOL    C24 9222   1.835   7.901   0.953  0.2911 -0.5059  0.4826
   10MOL    C25 9223   1.883   0.046   0.918 -0.4587 -0.0360 -1.1596
   10MOL    C26 9224   2.156   0.384   0.782 -0.2567  0.1767 -1.0951
   10MOL    C27 9225   2.253   0.426   0.687 -0.0246  0.1206  0.3819
   10MOL    C28 9226   2.588   0.520   0.416  0.0904  0.4257  0.8781
   10MOL    C29 9227   2.587   0.625   0.320 -0.7536 -0.1430  0.0795
   10MOL    H30 9228   2.546   0.840   0.168 -0.2777  1.1048 -2.1078
   10MOL    H31 9229   2.250   0.630   0.244 -1.1550  0.0281  0.0916
   10MOL    H32 9230   2.247   0.471   0.398 -0.4299 -0.9201  2.3754
   10MOL    H33 9231   2.507   0.286   0.514 -2.5415 -1.7354 -1.0051
   10MOL    H34 9232   2.395   0.114   0.654 -0.7031  0.0466  1.5270
   10MOL    H35 9233   2.227   0.051   0.784 -0.1515  0.6398  1.5682
   10MOL    H36 9234   2.003   0.296   0.963  0.3164  0.5211  0.7745
   10MOL    H37 9235   2.199   0.012   1.046  0.1243 -1.6996 -1.1917
   10MOL    H38 9236   2.117   7.781   1.106 -0.4313  0.4629  1.8833
   10MOL    H39 9237   1.765   7.681   1.067 -0.0820  0.0535 -2.1294
   10MOL    H40 9238   2.078   7.577   0.939 -0.8015  0.1210  0.3372
   10MOL    H41 9239   2.181   7.341   0.994  0.7385 -0.8428  0.7738
   10MOL    H42 9240   2.113   7.117   1.050 -0.9252 -0.2386  0.0157
   10MOL    H43 9241   1.992   7.107   1.174 -0.3305 -0.8339 -0.8394
   10MOL    H44 9242   1.846   7.275   1.244 -2.0160 -0.3144 -1.5289
   10MOL    H45 9243   1.774   7.500   1.227 -0.6838 -0.5082  0.8569
   10MOL    H46 9244   1.736   7.870   0.924 -0.0922  1.4309 -0.3361
   10MOL    H47 9245   1.810   0.113   0.876  0.8877 -0.1045 -3.6971
   10MOL    H48 9246   2.091   0.456   0.829 -1.2096 -1.1964 -0.2857
   10MOL    H49 9247   2.254   0.529   0.656  1.5576 -0.3948 -1.4066
   10MOL    H50 9248   2.678   0.482   0.462 -0.3469  0.7792  2.0321
   10MOL    H51 9249   2.686   0.649   0.285 -1.0486  2.0839  0.7277
   10MOL    H52 9250   2.383   0.806   0.136 -0.1596 -0.3557 -0.6097
   10MOL    N53 9251   2.191   7.159   1.242  0.3772  0.2472 -0.0318
   10MOL    C54 9252   2.201   7.062   1.339  0.0308  0.1209  0.4705
   10MOL    C55 9253   2.309   7.080   1.428 -0.4600 -0.3307  0.8850
   10MOL    C56 9254   2.341   6.978   1.519  0.4450 -0.3956  0.0730
   10MOL    C57 9255   2.260   6.865   1.527  1.0887  0.0312  0.1664
   10MOL    N58 9256   2.297   6.772   1.622  0.4717  0.5035  0.1468
   10MOL    C59 9257   2.361   6.654   1.592 -0.1093  0.1441 -0.8961
   10MOL    C60 9258   2.379   6.558   1.691  0.1434  0.3531 -0.6374
   10MOL    C61 9259   2.447   6.440   1.669 -0.2202 -0.2446 -0.2254
   10MOL    C62 9260   2.510   6.411   1.545  0.1974 -0.3284 -0.2537
   10MOL    N63 9261   2.575   6.290   1.512 -0.3661  0.3491 -0.5710
   10MOL    C64 9262   2.629   6.207   1.607 -0.7567 -0.0526 -0.5129
   10MOL    C65 9263   2.710   6.257   1.710  0.5494  0.4213 -0.0452
   10MOL    C66 9264   2.758   6.171   1.811  0.1768 -0.2768  0.2044
   10MOL    C67 9265   2.741   6.032   1.802  0.2626  0.4282  0.6296
   10MOL    N68 9266   2.800   5.938   1.891 -1.0884  0.3329 -0.1293
   10MOL    C69 9267   2.824   5.936   2.026  0.0827 -0.1887  0.6377
   10MOL    C70 9268   2.927   5.851   2.071 -0.1321  0.4772 -0.1617
   10MOL    C71 9269   2.947   5.826   2.210  0.6793  0.2319 -0.1039
   10MOL    C72 9270   2.857   5.891   2.300 -0.3482 -0.4905 -0.3459
   10MOL    C73 9271   2.884   5.871   2.448  0.0841  0.3302  0.5964
   10MOL    C74 9272   2.752   5.977   2.260 -0.8665  0.5428 -0.2260
   10MOL    C75 9273   2.728   5.991   2.119 -0.5648 -0.3838  0.5569
   10MOL    C76 9274   2.665   5.976   1.697 -0.2773  0.1887  0.1106
   10MOL    C77 9275   2.611   6.065   1.599  0.3604 -0.0118  0.0612
   10MOL    C78 9276   2.492   6.510   1.442  0.0459  0.1736 -0.5566
   10MOL    C79 9277   2.432   6.636   1.471 -0.1915  0.1022  0.4490
   10MOL    C80 9278   2.144   6.844   1.446 -0.5356 -0.7207 -1.0939
   10MOL    C81 9279   2.113   6.949   1.354 -0.4186 -0.5343 -0.2107
   10MOL    H82 9280   2.232   7.245   1.274 -0.2522  1.2394 -1.8555
   10MOL    H83 9281   2.369   7.169   1.412  2.2609 -2.1863  0.4496
   10MOL    H84 9282   2.432   6.986   1.575 -0.0930 -0.8897  1.0311
   10MOL    H85 9283   2.233   6.746   1.694  0.9018 -0.1268  0.3010
   10MOL    H86 9284   2.335   6.576   1.788 -0.2647 -1.5466 -0.4392
   10MOL    H87 9285   2.445   6.368   1.750  1.1600 -2.0838 -1.7808
   10MOL    H88 9286   2.606   6.281   1.416 -2.1210 -0.6407 -1.0581
   10MOL    H89 9287   2.721   6.364   1.723  0.2647  0.4122  0.2887
   10MOL    H90 9288   2.807   6.223   1.892 -0.7725  0.2257  0.4667
   10MOL    H91 9289   2.795   5.844   1.853 -0.2035 -0.3697  1.4143
   10MOL    H92 9290   2.984   5.803   1.993 -0.0825  1.1364 -0.5314
   10MOL    H93 9291   3.031   5.768   2.242  2.3933  2.4931 -0.3721
   10MOL    H94 9292   2.954   5.788   2.459  1.3429  1.4304  1.0758
   10MOL    H95 9293   2.788   5.840   2.488 -0.4917  1.7663  0.3477
   10MOL    H96 9294   2.677   6.025   2.321  1.7096  4.1434  0.2111
   10MOL    H97 9295   2.645   6.056   2.093 -0.7963 -0.2679  1.5670
   10MOL    H98 9296   2.648   5.870   1.686  0.7465 -0.1414  1.5198
   10MOL    H99 9297   2.551   6.020   1.521  0.6307 -0.0166 -0.1447
   10MOL   H100 9298   2.538   6.499   1.344  1.3235 -0.1029  0.0584
   10MOL   H101 9299   2.419   6.700   1.386 -2.8082 -1.7773 -0.6207
   10MOL   H102 9300   2.081   6.757   1.457 -2.3190  0.3983 -1.9933
   10MOL   H103 9301   2.028   6.934   1.289 -1.4861  2.8213  0.3002
   10MOL   N104 9302   2.954   5.986   2.503 -0.5627 -0.1066  0.1647
   10MOL   C105 9303   3.015   5.980   2.627  0.3271  0.4724  0.6491
   10MOL   C106 9304   3.098   6.083   2.669 -0.8359 -0.5231  0.6782
   10MOL   C107 9305   3.159   6.072   2.800 -0.4021  0.2700 -0.0794
   10MOL   C108 9306   3.144   5.956   2.875  0.3122 -0.6695 -0.3999
   10MOL   N109 9307   3.189   5.941   3.006  0.5326 -0.6926  0.3996
   10MOL   C110 9308   3.142   5.864   3.113 -0.5634 -0.1280 -0.0695
   10MOL   C111 9309   3.009   5.841   3.146 -0.2711  0.3623 -0.0078
   10MOL   C112 9310   2.971   5.773   3.264 -0.1959  0.1108  0.3322
   10MOL   C113 9311   3.071   5.730   3.351 -0.3258  0.6251 -0.3645
   10MOL   N114 9312   3.047   5.658   3.469 -0.1275  0.2961 -0.1213
   10MOL   C115 9313   2.971   5.544   3.467  0.1295 -0.3639  0.2326
   10MOL   C116 9314   2.901   5.501   3.581 -0.9448 -0.0382  0.1804
   10MOL   C117 9315   2.836   5.377   3.586 -0.1088 -0.6594  0.5266
   10MOL   C118 9316   2.842   5.280   3.482  0.5637  0.9380 -0.0162
   10MOL   N119 9317   2.798   5.152   3.491  0.0843  0.1635 -0.5576
   10MOL   C120 9318   2.705   5.102   3.582  0.2283 -0.1064 -0.5989
   10MOL   C121 9319   2.739   4.981   3.650 -0.0679 -0.4064 -0.5250
   10MOL   C122 9320   2.661   4.944   3.765  0.2621  0.2362 -0.5716
   10MOL   C123 9321   2.554   5.019   3.810 -0.0671 -0.0622  0.4502
   10MOL   C124 9322   2.472   4.978   3.929 -0.1586  0.3030  0.1401
   10MOL   C125 9323   2.518   5.130   3.732 -0.3371 -0.1383 -0.4163
   10MOL   C126 9324   2.594   5.177   3.624  0.0074 -0.1155  0.3532
   10MOL   C127 9325   2.919   5.318   3.372  0.3177 -0.0160 -0.2863
   10MOL   C128 9326   2.976   5.445   3.361 -0.1578  0.2287 -0.9639
   10MOL   C129 9327   3.208   5.762   3.323  0.1155  0.7719 -0.3858
   10MOL   C130 9328   3.242   5.827   3.205  0.5496  0.4523  0.3131
   10MOL   C131 9329   3.057   5.852   2.838 -0.1570 -0.6751  0.5837
   10MOL   C132 9330   2.996   5.867   2.713 -0.7913 -0.2700  0.6871
   10MOL   H133 9331   2.958   6.077   2.458 -2.0017  0.0836  0.3912
   10MOL   H134 9332   3.117   6.169   2.606  1.8318 -1.8787 -0.4780
   10MOL   H135 9333   3.220   6.155   2.830  0.0956  0.1569 -0.7698
   10MOL   H136 9334   3.260   6.006   3.035  0.8514 -0.4880 -0.8143
   10MOL   H137 9335   2.928   5.873   3.083  0.4227 -1.2918 -1.8035
   10MOL   H138 9336   2.865   5.757   3.282 -0.0013  0.8029  2.1674
   10MOL   H139 9337   3.118   5.648   3.541  0.7341 -1.8014 -1.2019
   10MOL   H140 9338   2.888   5.577   3.657  1.0180  1.7026 -1.1684
   10MOL   H141 9339   2.788   5.363   3.681 -0.1216 -0.8818  0.4872
   10MOL   H142 9340   2.843   5.094   3.423  0.2730 -1.2410  0.7450
   10MOL   H143 9341   2.827   4.932   3.611  1.1605  0.4309  1.1329
   10MOL   H144 9342   2.681   4.852   3.818  0.5151  0.4534 -0.2892
   10MOL   H145 9343   2.448   5.062   3.993 -1.3450 -0.6040  0.9005
   10MOL   H146 9344   2.526   4.905   3.989 -0.1777  1.6986  1.8888
   10MOL   H147 9345   2.430   5.181   3.768 -0.6619 -0.3742 -0.8691
   10MOL   H148 9346   2.561   5.271   3.583 -2.7069 -2.0471 -2.1008
   10MOL   H149 9347   2.927   5.259   3.282  0.7033  0.9333 -0.8793
   10MOL   H150 9348   3.037   5.459   3.273  0.5796 -0.9551 -0.6565
   10MOL   H151 9349   3.287   5.734   3.390 -0.3191 -3.0817 -1.3493
   10MOL   H152 9350   3.347   5.828   3.181  0.2106 -1.0344 -1.3052
   10MOL   H153 9351   3.055   5.760   2.894 -0.4871  0.1321  1.9134
   10MOL   H154 9352   2.932   5.786   2.684  2.0810 -1.8178 -1.5810
   10MOL   N155 9353   2.344   4.917   3.883 -0.3173  0.3870 -0.6573
   10MOL   C156 9354   2.221   4.903   3.946 -0.5891  0.1261 -0.4357
   10MOL   C157 9355   2.114   4.843   3.882 -0.2156  0.6162 -0.4478
   10MOL   C158 9356   1.987   4.827   3.940  0.4731 -0.3046 -0.7355
   10MOL   C159 9357   1.972   4.869   4.077 -0.8190  0.3613  0.8976
   10MOL   N160 9358   1.850   4.847   4.145  0.2182  0.2886 -0.6964
   10MOL   C161 9359   1.796   4.918   4.251 -0.0953 -0.4341 -0.2172
   10MOL   C162 9360   1.721   4.847   4.346 -0.4682 -0.6637  0.4190
   10MOL   C163 9361   1.669   4.917   4.453  0.6724 -0.0674  0.0623
   10MOL   C164 9362   1.687   5.060   4.467 -0.3983  0.6938 -0.6189
   10MOL   N165 9363   1.628   5.142   4.565  0.8234 -0.6547  0.1052
   10MOL   C166 9364   1.526   5.122   4.665 -0.6655 -0.3792 -0.7459
   10MOL   C167 9365   1.531   5.193   4.782 -0.2718  0.7293  0.6175
   10MOL   C168 9366   1.423   5.180   4.872 -0.4108  0.4712 -0.1828
   10MOL   C169 9367   1.313   5.094   4.846 -0.6189  0.6921 -0.8074
   10MOL   N170 9368   1.208   5.076   4.940  0.2211 -0.2461  0.1804
   10MOL   C171 9369   1.075   5.040   4.905  0.5720  0.6396 -0.4743
   10MOL   C172 9370   1.021   5.073   4.779  0.4126  0.6805 -0.0485
   10MOL   C173 9371   0.886   5.041   4.748  0.1371 -0.2196  0.2387
   10MOL   C174 9372   0.810   4.977   4.844  0.4676  0.2343 -0.0967
   10MOL   C175 9373   0.665   4.933   4.819 -1.0503 -0.9764  0.7338
   10MOL   C176 9374   0.867   4.945   4.968  0.2683 -0.7782 -0.1817
   10MOL   C177 9375   0.999   4.969   4.995 -0.2265 -0.0120 -0.1221
   10MOL   C178 9376   1.315   5.015   4.727 -0.5199  0.4956 -0.1408
   10MOL   C179 9377   1.420   5.032   4.635 -0.1139  0.4744  0.2156
   10MOL   C180 9378   1.763   5.126   4.369 -0.6493 -0.0505 -0.1668
   10MOL   C181 9379   1.813   5.057   4.258 -0.5101 -1.1294 -0.2794
   10MOL   C182 9380   2.089   4.918   4.148 -0.1144  0.9713  0.2406
   10MOL   C183 9381   2.209   4.941   4.081  0.3597  0.5922 -0.3143
   10MOL   H184 9382   2.355   4.921   3.783 -1.3649  0.1667 -0.7923
   10MOL   H185 9383   2.128   4.809   3.780 -2.0043  0.3328 -0.6141
   10MOL   H186 9384   1.907   4.779   3.886  0.4402 -1.7175  0.5297
   10MOL   H187 9385   1.778   4.788   4.106 -0.4102 -0.3058  1.3373
   10MOL   H188 9386   1.702   4.742   4.334  1.5791 -1.1144  1.0601
   10MOL   H189 9387   1.616   4.866   4.532 -0.2207 -1.3633 -1.3452
   10MOL   H190 9388   1.657   5.238   4.563  2.8217 -1.1958  1.6046
   10MOL   H191 9389   1.615   5.259   4.800  1.0913 -0.9613  0.4949
   10MOL   H192 9390   1.425   5.227   4.969 -0.6931 -3.5326  1.8855
   10MOL   H193 9391   1.209   5.085   5.041 -0.2761 -2.6961  0.4414
   10MOL   H194 9392   1.081   5.119   4.702 -3.2695  2.4896 -1.9724
   10MOL   H195 9393   0.856   5.070   4.648  1.9637  2.2318  0.3531
   10MOL   H196 9394   0.604   4.957   4.906 -1.0299 -1.0806  0.7764
   10MOL   H197 9395   0.678   4.827   4.801 -0.3895 -0.9450  1.0318
   10MOL   H198 9396   0.805   4.917   5.052  1.6239 -0.0151  1.0873
   10MOL   H199 9397   1.038   4.946   5.093  0.5294 -0.4647 -0.5262
   10MOL   H200 9398   1.243   4.938   4.704 -2.2504  2.2981 -0.8505
   10MOL   H201 9399   1.424   4.971   4.546  0.1680  1.7228 -0.6373
   10MOL   H202 9400   1.779   5.233   4.367  0.9918 -0.2962 -1.1946
   10MOL   H203 9401   1.868   5.109   4.181  1.4730 -3.9293 -0.8413
   10MOL   H204 9402   2.070   4.943   4.251  1.4277 -3.3421  1.6943
   10MOL   H205 9403   2.293   4.979   4.136 -0.3886  0.8871  0.6513
   10MOL   N206 9404   0.604   4.985   4.697  0.8665  0.7101 -0.0734
   10MOL   C207 9405   0.485   4.936   4.638  0.3985  0.5526  0.6362
   10MOL   C208 9406   0.397   4.843   4.693 -0.4388  0.8185  0.3939
   10MOL   C209 9407   0.270   4.816   4.635  0.1705 -0.5660  0.2440
   10MOL   C210 9408   0.228   4.906   4.529 -0.1309 -0.2944  0.5591
   10MOL   N211 9409   0.101   4.891   4.475 -1.1175 -0.5954  0.1883
   10MOL   C212 9410   0.074   4.779   4.396 -0.1308 -0.3148  0.1612
   10MOL   C213 9411   0.070   4.647   4.448 -0.2235  1.0200  0.8946
   10MOL   C214 9412   0.023   4.546   4.356  0.1942 -0.0720  0.0088
   10MOL   C215 9413   7.980   4.574   4.219  0.3119 -0.3090  1.1363
   10MOL   N216 9414   7.954   4.471   4.122 -0.2616 -0.0239  0.2397
   10MOL   C217 9415   7.861   4.368   4.127  0.8894 -0.9726 -0.0066
   10MOL   C218 9416   7.878   4.271   4.030  0.0543 -0.4437 -0.0506
   10MOL   C219 9417   7.796   4.158   4.026 -0.7549 -0.1025 -0.3391
   10MOL   C220 9418   7.698   4.141   4.125  0.0315  0.5766 -0.1480
   10MOL   N221 9419   7.634   4.019   4.126 -0.9515 -0.2570  0.2798
   10MOL   C222 9420   7.515   3.989   4.192  0.4915 -0.4463 -0.1705
   10MOL   C223 9421   7.506   3.863   4.246 -0.1807 -0.2356 -0.3103
   10MOL   C224 9422   7.398   3.827   4.329 -0.1558  0.3258  0.1888
   10MOL   C225 9423   7.304   3.928   4.356  0.1250  0.7102 -0.2784
   10MOL   C226 9424   7.183   3.895   4.445  0.7246  0.7221  0.0229
   10MOL   C227 9425   7.312   4.053   4.294 -0.2753 -0.3207 -0.1735
   10MOL   C228 9426   7.406   4.081   4.200  1.1525 -0.1502 -0.1929
   10MOL   C229 9427   7.683   4.245   4.225 -0.3587  0.1808 -0.4966
   10MOL   C230 9428   7.763   4.359   4.225  0.9452  0.6011  1.0258
   10MOL   C231 9429   0.002   4.705   4.172  0.0575  0.6758 -0.5677
   10MOL   C232 9430   0.035   4.808   4.259 -0.3598  0.3085 -0.6619
   10MOL   C233 9431   0.315   4.999   4.471 -0.1079  0.5979 -0.0272
   10MOL   C234 9432   0.439   5.013   4.531  0.3645 -0.4498 -0.5120
   10MOL   H235 9433   0.643   5.075   4.672  0.2483  0.5863 -1.5512
   10MOL   H236 9434   0.424   4.775   4.773  0.5721 -0.8065 -1.2833
   10MOL   H237 9435   0.207   4.739   4.676  0.2110 -0.8338 -0.1950
   10MOL   H238 9436   0.059   4.973   4.433 -0.0787 -1.0564 -1.7910
   10MOL   H239 9437   0.081   4.623   4.552  0.3836 -1.5143  0.2895
   10MOL   H240 9438   0.039   4.445   4.391  0.1173  0.0119  0.2857
   10MOL   H241 9439   0.008   4.480   4.029 -0.2856 -0.7560  0.1563
   10MOL   H242 9440   7.943   4.285   3.944  0.5047 -0.8385  0.2259
   10MOL   H243 9441   7.812   4.080   3.953  2.1883 -0.8754  1.0425
   10MOL   H244 9442   7.679   3.939   4.083 -0.4230  0.6817 -0.9246
   10MOL   H245 9443   7.580   3.787   4.224  0.0327 -0.4328  1.0879
   10MOL   H246 9444   7.399   3.733   4.383 -0.1871  1.5151  2.3210
   10MOL   H247 9445   7.106   3.841   4.390  0.3412  0.5679  0.7041
   10MOL   H248 9446   7.136   3.987   4.479  0.8311  0.6126  0.4711
   10MOL   H249 9447   7.240   4.131   4.315 -0.5024 -0.6254  0.1680
   10MOL   H250 9448   7.409   4.185   4.168 -0.2667 -0.3378 -0.9736
   10MOL   H251 9449   7.610   4.235   4.305 -2.1325 -0.4098 -2.1461
   10MOL   H252 9450   7.749   4.424   4.310 -1.4402  1.1184  0.2601
   10MOL   H253 9451   7.970   4.720   4.066 -0.5768  0.7971 -0.4697
   10MOL   H254 9452   0.054   4.904   4.213  4.2104  1.5984  3.4743
   10MOL   H255 9453   0.286   5.062   4.389 -1.0907  2.3702  1.6379
   10MOL   H256 9454   0.499   5.095   4.496 -0.5199  0.2230 -0.4718
   10MOL   N257 9455   7.221   3.805   4.563 -0.2764 -0.1983 -0.0052
   10MOL   C258 9456   7.139   3.761   4.665  0.4687 -0.2194  0.5431
   10MOL   C259 9457   7.192   3.697   4.780  0.3262  0.4021  0.5310
   10MOL   C260 9458   7.114   3.641   4.879  0.4386  0.1726  0.3629
   10MOL   C261 9459   6.977   3.658   4.875 -0.0320  0.0410  0.0472
   10MOL   N262 9460   6.894   3.596   4.973 -0.7693  0.1128  0.6996
   10MOL   C263 9461   6.786   3.650   5.043  0.2996  0.0790 -0.2668
   10MOL   C264 9462   6.707   3.567   5.124 -0.3420 -0.5719  0.2714
   10MOL   C265 9463   6.600   3.624   5.192  0.3898 -0.9269 -0.1033
   10MOL   C266 9464   6.567   3.762   5.180 -0.6689  0.3678 -0.5191
   10MOL   N267 9465   6.459   3.818   5.251  0.2039 -0.0328 -0.0437
   10MOL   C268 9466   6.425   3.949   5.278  0.9698  0.6616  0.3056
   10MOL   C269 9467   6.411   3.980   5.419  0.5552 -0.8693 -1.0311
   10MOL   C270 9468   6.376   4.108   5.460  0.0650 -0.2146 -0.1789
   10MOL   C271 9469   6.362   4.217   5.364 -0.3892  0.3650  0.3477
   10MOL   N272 9470   6.312   4.339   5.410 -0.0885  0.2100  0.0027
   10MOL   C273 9471   6.345   4.414   5.525 -0.6856  0.8125 -0.3532
   10MOL   C274 9472   6.461   4.400   5.608 -0.2525 -0.7856  0.2908
   10MOL   C275 9473   6.485   4.494   5.710  0.4860  0.5285 -0.4033
   10MOL   C276 9474   6.398   4.600   5.735  0.0289  0.6188  0.6641
   10MOL   C277 9475   6.431   4.699   5.847  0.6799  0.0661  0.6362
   10MOL   C278 9476   6.291   4.615   5.654 -0.9885  0.5564  0.0400
   10MOL   C279 9477   6.260   4.525   5.549  1.0112 -0.0771 -0.1080
   10MOL   C280 9478   6.374   4.189   5.223  0.0032 -0.1122 -0.1892
   10MOL   C281 9479   6.412   4.058   5.186 -0.6416  0.3471 -0.1322
   10MOL   C282 9480   6.648   3.844   5.103  0.1384 -0.5996 -0.2998
   10MOL   C283 9481   6.756   3.791   5.030 -1.0789  0.1081  0.0431
   10MOL   C284 9482   6.914   3.724   4.763 -0.0261  0.2899 -0.1518
   10MOL   C285 9483   6.995   3.770   4.659 -0.1846  0.1791  0.0625
   10MOL   H286 9484   7.319   3.782   4.555 -0.8809 -2.6661 -0.9239
   10MOL   H287 9485   7.299   3.686   4.780  0.3553  0.6680  0.9294
   10MOL   H288 9486   7.168   3.582   4.952  3.3938  1.9768 -0.2401
   10MOL   H289 9487   6.920   3.511   5.020  1.7095  0.5587  0.2004
   10MOL   H290 9488   6.724   3.461   5.137 -0.6245 -0.8239 -1.2957
   10MOL   H291 9489   6.553   3.555   5.261 -0.3387  0.9009  1.2785
   10MOL   H292 9490   6.430   3.754   5.322 -2.0716  0.4244 -0.5191
   10MOL   H293 9491   6.407   3.908   5.498 -0.3315  0.1134 -0.1653
   10MOL   H294 9492   6.343   4.120   5.562  0.4698  1.2478 -0.2016
   10MOL   H295 9493   6.272   4.399   5.340 -0.5710 -0.7967 -0.5852
   10MOL   H296 9494   6.530   4.319   5.592 -0.6893 -0.7902 -1.7381
   10MOL   H297 9495   6.571   4.486   5.775  1.1183 -1.9386 -1.4894
   10MOL   H298 9496   6.344   4.765   5.844  0.2049 -0.5450  0.8896
   10MOL   H299 9497   6.516   4.755   5.808  0.4750 -1.9862 -2.9987
   10MOL   H300 9498   6.226   4.700   5.669 -0.4655  1.1983 -1.2756
   10MOL   H301 9499   6.171   4.547   5.494 -0.1770  0.5551  1.9988
   10MOL   H302 9500   6.374   4.272   5.154 -1.3580  2.9267  3.3002
   10MOL   H303 9501   6.419   4.037   5.081  0.2453  0.7965 -0.1710
   10MOL   H304 9502   6.642   3.951   5.089  2.3367 -0.4264 -0.0780
   10MOL   H305 9503   6.817   3.857   4.971 -0.6195  0.4476  0.8839
   10MOL   H306 9504   6.807   3.739   4.761  0.1164  2.8552  4.5060
   10MOL   H307 9505   6.953   3.811   4.568  1.7891  1.0678 -0.4771
   10MOL   N308 9506   6.452   4.649   5.984  0.3805  0.5575  0.4066
   10MOL   C309 9507   6.384   4.547   6.046 -0.2925 -0.1393 -0.3936
   10MOL   C310 9508   6.432   4.512   6.170 -0.0603 -1.2499  0.2916
   10MOL   C311 9509   6.361   4.413   6.238 -0.2793  0.5016 -0.1844
   10MOL   C312 9510   6.237   4.367   6.192  0.0712  0.1760 -0.4069
   10MOL   N313 9511   6.162   4.283   6.276  0.3253 -0.1331  0.0784
   10MOL   C314 9512   6.081   4.173   6.234 -0.2920 -0.0379 -0.1892
   10MOL   C315 9513   5.983   4.122   6.321 -0.0236  0.0613 -0.1375
   10MOL   C316 9514   5.893   4.022   6.274 -0.1804 -0.5415 -0.2642
   10MOL   C317 9515   5.913   3.967   6.147  0.3369 -0.3750 -0.0120
   10MOL   N318 9516   5.815   3.876   6.103  0.4582  0.1063 -0.4754
   10MOL   C319 9517   5.827   3.805   5.986 -0.4860  0.7064 -0.4850
   10MOL   C320 9518   5.732   3.827   5.889 -0.3607  0.2465 -0.0059
   10MOL   C321 9519   5.724   3.757   5.774 -0.4279 -0.3338  0.0851
   10MOL   C322 9520   5.814   3.650   5.757 -0.1460  0.4663 -0.3455
   10MOL   N323 9521   5.800   3.566   5.645 -0.8198  0.0672 -0.1344
   10MOL   C324 9522   5.867   3.444   5.613 -0.2191  0.7949  0.6200
   10MOL   C325 9523   5.912   3.353   5.713 -0.9731 -0.4991 -0.1659
   10MOL   C326 9524   5.984   3.233   5.683 -0.4856 -0.5637  0.3469
   10MOL   C327 9525   6.024   3.216   5.547  0.6876  0.0350  0.5562
   10MOL   C328 9526   6.103   3.098   5.494  0.1537 -0.2510  0.5800
   10MOL   C329 9527   5.991   3.310   5.451 -1.0934 -0.8172  0.3523
   10MOL   C330 9528   5.906   3.416   5.484 -0.9127  0.1947 -0.0436
   10MOL   C331 9529   5.917   3.626   5.852  0.0138 -0.5952  0.3433
   10MOL   C332 9530   5.919   3.708   5.971  0.5153 -0.0411 -0.3716
   10MOL   C333 9531   6.022   4.007   6.064  0.6919  0.1117  0.9639
   10MOL   C334 9532   6.102   4.110   6.110 -0.3526 -0.4930  0.1537
   10MOL   C335 9533   6.183   4.411   6.071  0.3361 -0.4725 -0.3442
   10MOL   C336 9534   6.254   4.505   5.999  0.1935  0.3641 -0.1762
   10MOL   H337 9535   6.549   4.666   6.007  0.8237 -0.6654 -0.4820
   10MOL   H338 9536   6.524   4.553   6.209  0.5143 -0.9233 -1.3693
   10MOL   H339 9537   6.394   4.388   6.338  1.2366 -1.7779 -1.1946
   10MOL   H340 9538   6.136   4.337   6.357 -0.0374  0.9818 -0.7650
   10MOL   H341 9539   5.979   4.164   6.421 -3.4012  0.9442 -0.5792
   10MOL   H342 9540   5.812   3.985   6.335  0.9965 -2.9598 -0.1301
   10MOL   H343 9541   5.722   3.900   6.135  0.3884 -1.4492  0.4879
   10MOL   H344 9542   5.660   3.907   5.903 -0.5450  0.1401 -0.3476
   10MOL   H345 9543   5.648   3.781   5.701  0.3027 -3.2436 -1.7204
   10MOL   H346 9544   5.744   3.611   5.574 -3.1220 -2.2362  0.1383
   10MOL   H347 9545   5.898   3.373   5.818 -0.2672 -0.5367 -0.0572
   10MOL   H348 9546   6.014   3.157   5.753 -0.7224  0.3577  1.4433
   10MOL   H349 9547   6.163   3.109   5.404 -0.8157 -1.8470 -0.2756
   10MOL   H350 9548   6.036   3.013   5.482  1.5268 -1.3172  0.3114
   10MOL   H351 9549   6.035   3.300   5.353  1.5951 -0.1824  1.4309
   10MOL   H352 9550   5.875   3.501   5.425  3.1568  2.3739  0.7880
   10MOL   H353 9551   5.990   3.546   5.840  0.3856 -0.0880 -0.9124
   10MOL   H354 9552   5.991   3.693   6.049  1.1510  2.6495 -0.3691
   10MOL   H355 9553   6.029   3.970   5.963  2.4221 -0.9902  1.4521
   10MOL   H356 9554   6.184   4.148   6.052 -1.4457 -0.1579 -1.1846
   10MOL   H357 9555   6.097   4.360   6.029 -0.3969  1.2353 -0.9519
   10MOL   H358 9556   6.218   4.535   5.901 -0.6312 -1.2617 -0.3937
   10MOL   N359 9557   6.206   3.062   5.591  0.1731 -0.6912 -0.0019
   10MOL   C360 9558   6.337   3.052   5.560 -0.2667  0.0952  0.4580
   10MOL   C361 9559   6.401   2.927   5.602  0.2983  0.6343 -0.0803
   10MOL   C362 9560   6.538   2.907   5.556 -0.1496 -0.0465 -0.1597
   10MOL   C363 9561   6.598   3.003   5.467  0.2257  0.1235 -0.0336
   10MOL   N364 9562   6.726   2.976   5.424  0.0017  0.4839 -0.3014
   10MOL   C365 9563   6.790   3.046   5.322  0.1465 -0.0929 -0.2608
   10MOL   C366 9564   6.922   3.087   5.331  0.5927  0.0161 -0.0045
   10MOL   C367 9565   6.975   3.173   5.232 -0.1915  0.4611 -0.4594
   10MOL   C368 9566   6.907   3.201   5.115 -0.3543  0.6003  0.0766
   10MOL   N369 9567   6.964   3.274   5.004  0.0822 -0.5580 -0.2634
   10MOL   C370 9568   7.097   3.262   4.957 -0.4480  0.1829  0.4456
   10MOL   C371 9569   7.196   3.327   5.027 -0.2219 -0.1561  0.8074
   10MOL   C372 9570   7.331   3.312   4.990 -0.7277  0.5279  0.4015
   10MOL   C373 9571   7.371   3.224   4.887  0.0244 -0.0921 -0.0044
   10MOL   N374 9572   7.508   3.207   4.864  0.0095  0.5976  0.2269
   10MOL   C375 9573   7.614   3.291   4.903  0.1664  0.1295 -0.0086
   10MOL   C376 9574   7.598   3.428   4.906  0.9966 -0.3759 -0.3885
   10MOL   C377 9575   7.697   3.520   4.941 -0.5016 -0.2068 -0.4091
   10MOL   C378 9576   7.826   3.469   4.967 -0.4859  0.9646  0.5721
   10MOL   C379 9577   7.932   3.557   5.031  0.1726  0.9794 -0.3686
   10MOL   C380 9578   7.854   3.331   4.947 -0.0410  0.6445 -0.1749
   10MOL   C381 9579   7.747   3.243   4.917  0.9690 -0.6124 -0.3765
   10MOL   C382 9580   7.272   3.158   4.821 -0.2539  0.4191  0.3386
   10MOL   C383 9581   7.132   3.177   4.845 -0.7528 -0.7144 -0.0558
   10MOL   C384 9582   6.771   3.156   5.102 -0.6888 -0.3567 -0.4453
   10MOL   C385 9583   6.721   3.068   5.203  0.4707 -0.0660  0.2133
   10MOL   C386 9584   6.539   3.123   5.429  0.4152  0.3619  0.2469
   10MOL   C387 9585   6.406   3.146   5.478 -0.0220 -0.2491  0.4044
   10MOL   H388 9586   6.177   2.980   5.642 -0.9068 -0.7535 -0.7105
   10MOL   H389 9587   6.352   2.861   5.672  3.5323  0.8749  2.5306
   10MOL   H390 9588   6.591   2.821   5.596 -0.4936 -0.5200 -0.7139
   10MOL   H391 9589   6.784   2.914   5.478  1.3750  1.6993 -0.3280
   10MOL   H392 9590   6.981   3.066   5.419 -0.2644 -0.3526  0.4880
   10MOL   H393 9591   7.072   3.216   5.254  0.4668 -1.4436  0.4397
   10MOL   H394 9592   6.898   3.305   4.934 -1.7282 -3.2240  0.1981
   10MOL   H395 9593   7.178   3.385   5.116  0.0627 -1.6605  1.8580
   10MOL   H396 9594   7.405   3.357   5.055  1.7624 -2.2008 -0.4517
   10MOL   H397 9595   7.535   3.118   4.824 -0.9118  0.8393 -0.9796
   10MOL   H398 9596   7.498   3.461   4.880  0.8818  0.0209  0.5109
   10MOL   H399 9597   7.674   3.625   4.951  1.0390 -0.0158  1.2932
   10MOL   H400 9598   0.042   3.501   5.020 -0.6605 -0.8357  1.6313
   10MOL   H401 9599   7.917   3.551   5.139  0.9503  0.8165 -0.2684
   10MOL   H402 9600   7.950   3.286   4.969  0.0040  0.5742 -0.5093
   10MOL   H403 9601   7.765   3.137   4.899  1.2192 -1.2685  3.3791
   10MOL   H404 9602   7.300   3.092   4.740  1.3808  0.8462  0.5478
   10MOL   H405 9603   7.063   3.121   4.785 -0.8204 -1.4305  0.6830
   10MOL   H406 9604   6.723   3.179   5.008  0.6093 -1.0192 -1.2993
   10MOL   H407 9605   6.624   3.022   5.189  0.4706 -0.5026  1.5410
   10MOL   H408 9606   6.580   3.199   5.364  0.0853 -1.2650 -1.9038
   10MOL   H409 9607   6.351   3.233   5.445 -2.4406 -1.5070  0.9897
   10MOL   N410 9608   7.939   3.697   4.984 -0.2296  0.2336 -0.2518
   10MOL   C411 9609   7.980   3.805   5.065 -0.6168 -0.3727 -0.0103
   10MOL   C412 9610   0.012   3.930   5.001  0.1996 -0.2409  0.0520
   10MOL   C413 9611   0.043   4.048   5.074 -0.1945  0.0901 -0.8019
   10MOL   C414 9612   0.075   4.042   5.207  0.2328  0.3224  0.4509
   10MOL   N415 9613   0.099   4.151   5.284 -0.0203  0.0785  0.1607
   10MOL   C416 9614   0.095   4.289   5.246  0.3478  0.3531  0.5302
   10MOL   C417 9615   0.165   4.377   5.323 -0.2627 -0.1113  0.5428
   10MOL   C418 9616   0.148   4.516   5.322  0.1510 -0.7483 -0.1292
   10MOL   C419 9617   0.039   4.579   5.255  0.1089 -0.0339 -0.0476
   10MOL   N420 9618   0.010   4.717   5.254  0.1137 -0.4072  0.6499
   10MOL   C421 9619   0.037   4.817   5.348  0.2939  0.1383  0.2961
   10MOL   C422 9620   7.908   4.895   5.394 -0.3938  0.5791 -0.0849
   10MOL   C423 9621   7.930   5.011   5.465  0.3900  0.1318 -0.5301
   10MOL   C424 9622   0.074   5.060   5.494 -0.7853  0.6433 -0.7381
   10MOL   N425 9623   0.087   5.188   5.548 -0.1225  0.2464  0.3479
   10MOL   C426 9624   0.016   5.302   5.500  0.3098  0.4170 -0.0870
   10MOL   C427 9625   7.950   5.309   5.365 -0.6290 -0.7176 -0.9769
   10MOL   C428 9626   7.873   5.421   5.329 -0.2694  0.8598 -0.5755
   10MOL   C429 9627   7.845   5.521   5.424 -0.6100 -0.0511  0.3271
   10MOL   C430 9628   7.756   5.637   5.395  0.6390 -0.6427 -0.1791
   10MOL   C431 9629   7.908   5.522   5.547 -0.9047 -0.5660 -0.0561
   10MOL   C432 9630   0.002   5.410   5.590 -0.0243  0.0888  0.1144
   10MOL   C433 9631   0.181   4.974   5.462 -0.1727  0.0043 -0.0697
   10MOL   C434 9632   0.167   4.857   5.388 -0.7181 -0.6994 -0.3767
   10MOL   C435 9633   7.931   4.490   5.188  0.0067 -0.3134 -0.3674
   10MOL   C436 9634   7.960   4.347   5.182  0.2617 -0.0412 -0.3524
   10MOL   C437 9635   0.061   3.922   5.276  0.6042 -0.2282  0.0050
   10MOL   C438 9636   0.018   3.801   5.205 -0.1729 -0.0505 -0.0366
   10MOL   H439 9637   7.899   3.723   4.896 -0.8342 -0.0075 -0.0440
   10MOL   H440 9638   7.974   3.947   4.896 -3.1370 -2.7051  0.2258
   10MOL   H441 9639   0.045   4.144   5.024  1.9897 -0.6024 -2.0810
   10MOL   H442 9640   0.131   4.143   5.380 -0.3931  0.7072  0.3369
   10MOL   H443 9641   0.241   4.340   5.391  0.1882  0.5807  0.4180
   10MOL   H444 9642   0.220   4.582   5.367  0.8952 -1.1341 -0.7462
   10MOL   H445 9643   7.900   4.729   5.215 -0.0935 -0.7132  1.0397
   10MOL   H446 9644   7.808   4.864   5.367 -0.4841  0.3133  0.5329
   10MOL   H447 9645   7.841   5.070   5.483 -0.6945 -1.6849  0.2099
   10MOL   H448 9646   0.156   5.200   5.621 -0.3579  2.6060  0.2407
   10MOL   H449 9647   7.954   5.218   5.306  1.5305  0.4011 -2.6060
   10MOL   H450 9648   7.823   5.428   5.233 -0.1098  0.8906 -0.6559
   10MOL   H451 9649   7.796   5.729   5.437  3.6626 -0.3130 -3.5961
   10MOL   H452 9650   7.673   5.621   5.463  1.0829  3.0622  1.3452
   10MOL   H453 9651   7.897   5.614   5.603  0.2200 -0.3282 -0.2144
   10MOL   H454 9652   0.050   5.421   5.686 -0.2539 -0.6482  0.3213
   10MOL   H455 9653   0.284   5.002   5.476 -0.6109  0.8402  1.6188
   10MOL   H456 9654   0.252   4.799   5.356 -0.5478 -0.3495 -0.5604
   10MOL   H457 9655   7.844   4.528   5.137  1.3236  0.7928 -1.8317
   10MOL   H458 9656   7.893   4.284   5.126 -1.7404 -0.6785  2.6050
   10MOL   H459 9657   0.092   3.911   5.379 -0.1356 -0.3422  0.2165
   10MOL   H460 9658   7.981   3.711   5.262 -2.0275  0.0291 -0.5097
   10MOL   N461 9659   7.714   5.656   5.258 -0.6212  0.3964  0.3904
   10MOL   C462 9660   7.597   5.591   5.215 -0.1530  0.3845 -0.2506
   10MOL   C463 9661   7.535   5.479   5.285  0.0506 -0.4698  0.1409
   10MOL   C464 9662   7.413   5.425   5.234 -0.8107 -0.5120  0.8299
   10MOL   C465 9663   7.358   5.471   5.110  0.0401  0.4154 -0.0290
   10MOL   N466 9664   7.232   5.416   5.071  0.1291  0.2373  0.4673
   10MOL   C467 9665   7.182   5.286   5.092 -0.4398  0.3169 -0.9966
   10MOL   C468 9666   7.044   5.260   5.094  0.6466 -0.2312  0.3579
   10MOL   C469 9667   6.996   5.132   5.100  0.0164  0.6637 -0.1339
   10MOL   C470 9668   7.090   5.022   5.087  0.5426 -0.8498  0.5283
   10MOL   N471 9669   7.029   4.897   5.071 -0.2699 -0.4575 -0.3400
   10MOL   C472 9670   7.110   4.786   5.045  0.1262  0.3845 -0.6491
   10MOL   C473 9671   7.129   4.688   5.148  0.3197  0.1207  0.0292
   10MOL   C474 9672   7.214   4.579   5.132 -0.5259  0.6529 -0.0991
   10MOL   C475 9673   7.283   4.561   5.014  0.3908 -0.1344  0.4531
   10MOL   N476 9674   7.361   4.451   4.985 -0.5804 -0.6558 -0.2640
   10MOL   C477 9675   7.442   4.366   5.057 -0.7573 -0.4912 -1.1557
   10MOL   C478 9676   7.462   4.234   5.006 -0.6425 -0.2105  0.6216
   10MOL   C479 9677   7.537   4.141   5.076  0.1931 -0.0902  0.1425
   10MOL   C480 9678   7.588   4.177   5.203 -0.4595  0.0155  0.7549
   10MOL   C481 9679   7.663   4.077   5.298  0.5371 -0.4044  0.5793
   10MOL   C482 9680   7.579   4.310   5.250  0.3554 -0.6395 -0.5608
   10MOL   C483 9681   7.510   4.407   5.173  0.2879  0.0083 -0.3094
   10MOL   C484 9682   7.264   4.654   4.907 -0.1455  0.5751 -1.2074
   10MOL   C485 9683   7.181   4.773   4.923  0.2748 -0.8335 -0.7029
   10MOL   C486 9684   7.226   5.048   5.091 -0.5798  0.0199 -1.2590
   10MOL   C487 9685   7.273   5.180   5.087 -0.4277 -0.7106 -0.0060
   10MOL   C488 9686   7.427   5.572   5.046  0.6166 -0.1598  0.1651
   10MOL   C489 9687   7.542   5.631   5.096  0.2316 -0.7695  0.7903
   10MOL   H490 9688   7.746   5.742   5.216  0.2506 -0.2904 -0.3680
   10MOL   H491 9689   7.571   5.432   5.375  1.6580  2.4369  1.1017
   10MOL   H492 9690   7.382   5.332   5.278 -0.8032 -1.1369 -0.4634
   10MOL   H493 9691   7.202   5.463   4.987 -1.7089  0.7286  1.3564
   10MOL   H494 9692   6.975   5.343   5.100 -0.0013 -0.6048 -1.5181
   10MOL   H495 9693   6.890   5.115   5.107 -0.0187  1.4130  1.4092
   10MOL   H496 9694   6.952   4.903   5.005 -0.0539  0.8470 -0.4790
   10MOL   H497 9695   7.082   4.699   5.245  0.7066  0.4068  0.1843
   10MOL   H498 9696   7.228   4.522   5.223  0.2004  1.3359  0.2267
   10MOL   H499 9697   7.361   4.431   4.886  1.1144  0.1949 -0.4631
   10MOL   H500 9698   7.410   4.202   4.917  0.6718 -2.0035  0.4526
   10MOL   H501 9699   7.538   4.043   5.032  0.7843 -0.2504  0.5045
   10MOL   H502 9700   7.604   4.083   5.389  1.0543  0.8932  0.8303
   10MOL   H503 9701   7.758   4.123   5.323  0.7115 -0.6350  0.3440
   10MOL   H504 9702   7.619   4.342   5.345  0.4011  1.6366 -1.2984
   10MOL   H505 9703   7.499   4.510   5.204  0.8784  0.3140 -1.1001
   10MOL   H506 9704   7.311   4.646   4.810 -1.3735  0.0369 -1.7604
   10MOL   H507 9705   7.190   4.851   4.848 -1.0680  0.9971  0.9992
   10MOL   H508 9706   7.299   4.968   5.085 -2.5494 -1.9379  0.4259
   10MOL   H509 9707   7.381   5.188   5.087 -0.4406 -0.3632 -1.4705
   10MOL   H510 9708   7.395   5.621   4.955  0.6901 -1.9408 -0.8435
   10MOL   H511 9709   7.587   5.718   5.049 -0.8052  0.0632  1.3308
   10MOL   N512 9710   7.672   3.939   5.249  0.6305  0.6092 -0.2805
   10MOL   C513 9711   7.557   3.869   5.234  0.2188 -0.4223 -0.5200
   10MOL   C514 9712   7.558   3.736   5.180  0.0870 -0.3559  0.2298
   10MOL   C515 9713   7.435   3.673   5.158  0.0951 -0.4469 -0.1867
   10MOL   C516 9714   7.311   3.732   5.203 -0.6798 -0.1758  0.5087
   10MOL   N517 9715   7.191   3.663   5.193 -0.2291 -0.2827 -0.4735
   10MOL   C518 9716   7.140   3.571   5.286  0.0614  0.8219 -0.2121
   10MOL   C519 9717   7.003   3.552   5.307  0.0462  0.0255 -1.0131
   10MOL   C520 9718   6.956   3.456   5.397  0.0060  0.7661  0.1900
   10MOL   C521 9719   7.048   3.379   5.473 -0.1399  0.0415 -0.3418
   10MOL   N522 9720   6.993   3.290   5.564  0.1092 -0.2727  0.6295
   10MOL   C523 9721   7.057   3.209   5.658  0.7307  0.7013 -0.0471
   10MOL   C524 9722   7.030   3.072   5.669  0.2304  0.2388  0.8875
   10MOL   C525 9723   7.093   2.992   5.765  0.0673  0.1890  0.0255
   10MOL   C526 9724   7.194   3.042   5.845  0.0594 -0.2885  0.5612
   10MOL   N527 9725   7.259   2.967   5.944 -0.0116  0.3142  0.4874
   10MOL   C528 9726   7.259   2.831   5.943  0.0412  1.0117  0.5264
   10MOL   C529 9727   7.358   2.763   5.869  0.2965  0.5082 -0.7196
   10MOL   C530 9728   7.369   2.621   5.872 -0.2482 -0.7031 -0.3273
   10MOL   C531 9729   7.286   2.552   5.961  0.2922 -0.1631 -0.1313
   10MOL   C532 9730   7.296   2.403   5.972 -0.4202  0.3544  0.7633
   10MOL   C533 9731   7.188   2.616   6.035  0.0331  0.1812  0.2114
   10MOL   C534 9732   7.170   2.758   6.024 -0.4006 -0.0627  0.3351
   10MOL   C535 9733   7.231   3.180   5.823  0.1001  0.8087  0.0367
   10MOL   C536 9734   7.164   3.264   5.731  0.2462 -0.1629  0.1778
   10MOL   C537 9735   7.185   3.391   5.447 -0.4884  0.3421 -0.6594
   10MOL   C538 9736   7.230   3.482   5.350 -0.1245  0.0581 -0.0371
   10MOL   C539 9737   7.309   3.855   5.259  0.2497 -0.2994 -0.7020
   10MOL   C540 9738   7.434   3.919   5.283 -0.4862 -0.3719  0.3566
   10MOL   H541 9739   7.759   3.917   5.202  0.7479  1.5656 -0.5280
   10MOL   H542 9740   7.654   3.695   5.150  0.1450  0.5210 -0.8240
   10MOL   H543 9741   7.429   3.567   5.136  1.1298 -0.5729  0.1057
   10MOL   H544 9742   7.111   3.709   5.152  1.2691  0.6213 -2.4199
   10MOL   H545 9743   6.927   3.599   5.248 -1.7375 -0.0132  1.1843
   10MOL   H546 9744   6.849   3.444   5.405  0.0590 -0.3387 -0.7200
   10MOL   H547 9745   6.894   3.303   5.579 -0.3368  1.5392 -3.2718
   10MOL   H548 9746   6.947   3.036   5.609  0.2011 -0.2517  1.2217
   10MOL   H549 9747   7.072   2.886   5.771 -0.8659  0.4308  1.1126
   10MOL   H550 9748   7.350   3.010   5.956  1.0745 -1.2950 -1.5363
   10MOL   H551 9749   7.434   2.820   5.818  1.9033 -0.2418  0.7986
   10MOL   H552 9750   7.448   2.572   5.816 -0.0718  1.5419 -2.1262
   10MOL   H553 9751   7.320   2.355   5.878 -0.1890  0.5743  0.7080
   10MOL   H554 9752   7.206   2.353   6.006 -2.2475  1.3621 -2.4261
   10MOL   H555 9753   7.118   2.558   6.094 -1.2697  0.8232 -0.6801
   10MOL   H556 9754   7.103   2.826   6.077 -0.6316  1.0119 -1.2978
   10MOL   H557 9755   7.312   3.228   5.876 -0.1768  0.1426  1.0842
   10MOL   H558 9756   7.188   3.369   5.723 -1.0514  0.2182  1.1268
   10MOL   H559 9757   7.261   3.336   5.500 -2.0962 -1.1663  0.1206
   10MOL   H560 9758   7.337   3.487   5.338 -0.0915  0.0242  0.2317
   10MOL   H561 9759   7.220   3.893   5.306 -1.0747 -3.4507 -0.5323
   10MOL   H562 9760   7.430   4.011   5.338  1.5984  0.1587 -0.3366
   10MOL   N563 9761   7.420   2.352   6.027 -0.3208 -0.0286 -0.1138
   10MOL   C564 9762   7.448   2.361   6.165 -0.0490 -0.1005  0.0454
   10MOL   C565 9763   7.578   2.345   6.210 -0.0337 -0.6344 -0.1887
   10MOL   C566 9764   7.611   2.349   6.347  0.2889 -1.0048  0.8426
   10MOL   C567 9765   7.509   2.383   6.432 -0.2835 -0.6847 -0.5136
   10MOL   N568 9766   7.531   2.396   6.569  0.4139 -0.0995 -0.5622
   10MOL   C569 9767   7.644   2.449   6.634  0.2072 -0.1516 -0.3283
   10MOL   C570 9768   7.670   2.400   6.764  0.1643 -1.5899 -0.0936
   10MOL   C571 9769   7.776   2.454   6.836  0.3885 -0.2373  0.2414
   10MOL   C572 9770   7.855   2.562   6.793 -0.8404 -0.2735  0.1182
   10MOL   N573 9771   7.956   2.615   6.868  0.1567 -0.5371  0.4930
   10MOL   C574 9772   0.073   2.558   6.943  0.6339  0.4753 -0.6058
   10MOL   C575 9773   0.146   2.640   7.026  0.1359  0.1869 -0.1839
   10MOL   C576 9774   0.246   2.589   7.109  0.4313  0.0935  0.1962
   10MOL   C577 9775   0.286   2.454   7.109 -0.0141  0.0443  0.3747
   10MOL   N578 9776   0.386   2.395   7.190  0.5360 -0.0059  0.1208
   10MOL   C579 9777   0.442   2.455   7.303  0.6319  0.6868  0.1947
   10MOL   C580 9778   0.566   2.420   7.357 -0.3180 -0.3106  0.2521
   10MOL   C581 9779   0.617   2.473   7.480 -0.0282 -0.1094 -0.2246
   10MOL   C582 9780   0.535   2.561   7.552  0.1168 -0.0762  0.0786
   10MOL   C583 9781   0.576   2.615   7.684  0.1935 -0.1608 -0.0355
   10MOL   C584 9782   0.412   2.598   7.492 -0.6538  0.9336  0.5288
   10MOL   C585 9783   0.356   2.537   7.385  0.0655  0.2677  1.2332
   10MOL   C586 9784   0.203   2.367   7.028 -0.4860  0.2143 -0.2459
   10MOL   C587 9785   0.107   2.422   6.937  0.3739 -0.1165  0.5084
   10MOL   C588 9786   7.816   2.623   6.673  0.5574 -0.0174  0.1668
   10MOL   C589 9787   7.713   2.567   6.595 -0.0128  0.4020 -0.0680
   10MOL   C590 9788   7.379   2.397   6.388  0.3105 -0.3061 -0.7562
   10MOL   C591 9789   7.347   2.386   6.255 -0.5577  0.9552 -0.0982
   10MOL   H592 9790   7.503   2.368   5.971 -0.2401 -0.7944 -0.2096
   10MOL   H593 9791   7.652   2.326   6.134  0.9429 -1.9487  1.0724
   10MOL   H594 9792   7.712   2.345   6.383  0.8818 -1.9901 -0.8935
   10MOL   H595 9793   7.455   2.380   6.633  0.4733  0.4738 -0.3507
   10MOL   H596 9794   7.621   2.310   6.799 -2.3169 -1.0585 -2.0180
   10MOL   H597 9795   7.785   2.410   6.934  0.5198 -0.3353  0.1862
   10MOL   H598 9796   7.966   2.712   6.842  2.8998 -0.5639  1.2257
   10MOL   H599 9797   0.114   2.743   7.031 -1.1426  0.0635 -3.9675
   10MOL   H600 9798   0.301   2.665   7.164  0.6502  0.9772 -1.2344
   10MOL   H601 9799   0.384   2.294   7.186  0.8710  0.0406 -2.1343
   10MOL   H602 9800   0.621   2.342   7.306 -1.7623 -3.0977  2.7896
   10MOL   H603 9801   0.715   2.451   7.519 -0.6688 -2.7987 -0.0270
   10MOL   H604 9802   0.533   2.707   7.723  1.5101  0.3661  0.1918
   10MOL   H605 9803   0.682   2.638   7.681  0.7922 -2.6110  0.6292
   10MOL   H606 9804   0.340   2.668   7.534 -1.1435  0.2499  0.8282
   10MOL   H607 9805   0.254   2.559   7.355  0.6865 -0.2948 -1.4280
   10MOL   H608 9806   0.215   2.260   7.034 -1.6384  0.1012  0.1321
   10MOL   H609 9807   0.043   2.356   6.881 -0.5696  1.1376  0.0692
   10MOL   H610 9808   7.872   2.701   6.625  2.6763 -0.8062  1.2999
   10MOL   H611 9809   7.690   2.613   6.500  0.0568 -0.2275 -0.3911
   10MOL   H612 9810   7.302   2.417   6.461 -0.3890 -1.0023 -1.3137
   10MOL   H613 9811   7.243   2.383   6.226 -0.4093 -2.8511 -0.4058
   10MOL   N614 9812   0.549   2.524   7.789  0.5508  0.3176 -0.0732
   10MOL   C615 9813   0.545   2.560   7.922  0.2628  0.0854 -0.1047
   10MOL   C616 9814   0.466   2.487   0.029  0.3540 -0.2634 -0.7500
   10MOL   C617 9815   0.469   2.513   0.170  0.0259  0.8919 -0.5920
   10MOL   C618 9816   0.545   2.624   0.213 -0.4354  0.7880 -0.1356
   10MOL   N619 9817   0.532   2.663   0.352 -0.3228  0.1594  0.2544
   10MOL   C620 9818   0.620   2.738   0.426 -0.5456  0.1593  0.3148
   10MOL   C621 9819   0.759   2.728   0.417  0.5342  0.4955  0.3110
   10MOL   C622 9820   0.838   2.804   0.503  0.3276  0.2398 -0.6103
   10MOL   C623 9821   0.780   2.887   0.602 -0.0754  0.1054 -0.1528
   10MOL   N624 9822   0.856   2.947   0.705  1.0432 -0.0829  0.0430
   10MOL   C625 9823   0.991   2.934   0.729  0.4234  0.9678 -0.1758
   10MOL   C626 9824   1.092   2.949   0.627  0.0546 -0.4487 -0.4807
   10MOL   C627 9825   1.228   2.941   0.662 -0.4277  0.2518 -0.2075
   10MOL   C628 9826   1.271   2.894   0.789 -0.0964 -0.0068 -0.4240
   10MOL   N629 9827   1.405   2.871   0.808 -0.6012  0.2487 -0.3097
   10MOL   C630 9828   1.474   2.795   0.908 -0.5009  0.3959 -0.2722
   10MOL   C631 9829   1.583   2.714   0.871 -0.6073 -0.0651  0.2125
   10MOL   C632 9830   1.668   2.639   0.953 -0.8251  0.3799 -0.1938
   10MOL   C633 9831   1.641   2.649   1.087  0.3714 -0.4759  0.0876
   10MOL   C634 9832   1.711   2.564   1.195 -0.1468  1.1417  0.2662
   10MOL   C635 9833   1.530   2.732   1.136 -0.5944 -0.4412  0.2359
   10MOL   C636 9834   1.451   2.805   1.044  0.2905 -0.1384 -0.1443
   10MOL   C637 9835   1.172   2.883   0.890 -0.3149 -0.3663  0.4572
   10MOL   C638 9836   1.031   2.902   0.861  0.1843  0.1090 -0.0307
   10MOL   C639 9837   0.638   2.903   0.604  0.3799 -0.1326  0.3629
   10MOL   C640 9838   0.562   2.825   0.512 -0.6821 -0.4272  0.8632
   10MOL   C641 9839   0.624   2.700   0.126 -0.2910 -0.2384  0.4210
   10MOL   C642 9840   0.623   2.662   7.973 -0.3823  0.2245 -0.1929
   10MOL   H643 9841   0.483   2.461   7.745  0.3662 -0.0141  0.6813
   10MOL   H644 9842   0.403   2.408   7.971  0.1209 -0.4656  0.0009
   10MOL   H645 9843   0.401   2.458   0.233 -1.6447  1.5354 -1.7978
   10MOL   H646 9844   0.444   2.648   0.399 -0.7166  0.0808 -0.4988
   10MOL   H647 9845   0.809   2.660   0.349  0.9747  1.4415 -0.3254
   10MOL   H648 9846   0.943   2.801   0.482  0.4442 -0.9225  0.1126
   10MOL   H649 9847   0.803   2.986   0.782 -1.3800 -0.8605 -1.1823
   10MOL   H650 9848   1.072   2.981   0.526  0.7948  0.8711 -0.2164
   10MOL   H651 9849   1.295   2.968   0.581 -1.9458 -2.0175 -2.3197
   10MOL   H652 9850   1.456   2.894   0.724 -2.0405  1.5445 -0.8491
   10MOL   H653 9851   1.596   2.701   0.764 -0.5759  0.5498  0.1376
   10MOL   H654 9852   1.746   2.577   0.911 -0.9919  0.3694 -0.4931
   10MOL   H655 9853   1.624   2.510   1.233  1.9303 -1.3762  1.5826
   10MOL   H656 9854   1.745   2.621   1.282 -1.9183  0.8869  1.1637
   10MOL   H657 9855   1.511   2.742   1.242  2.6300  0.4073  0.7781
   10MOL   H658 9856   1.373   2.873   1.073  0.1709 -0.0578 -0.6513
   10MOL   H659 9857   1.193   2.844   0.988  0.1967  1.7563  1.2134
   10MOL   H660 9858   0.963   2.891   0.945  0.0425  0.6934 -0.0674
   10MOL   H661 9859   0.592   2.960   0.684  1.4889  0.9527  0.2503
   10MOL   H662 9860   0.455   2.828   0.508 -0.6441 -1.4667 -2.0680
   10MOL   H663 9861   0.678   2.787   0.160 -1.2893  1.5641 -2.4565
   10MOL   H664 9862   0.687   2.718   7.906  1.6291 -1.3468  0.3766
   10MOL   N665 9863   1.814   2.474   1.152 -0.3101  0.2040 -0.0638
   10MOL   C666 9864   1.888   2.412   1.252 -0.2586 -0.0839  0.7125
   10MOL   C667 9865   1.958   2.495   1.347 -0.1630 -0.0148  0.0639
   10MOL   C668 9866   2.031   2.434   1.454 -0.1095  0.0439  0.6765
   10MOL   C669 9867   2.037   2.297   1.463  0.6420 -0.8039 -0.3525
   10MOL   N670 9868   2.111   2.231   1.561 -1.2210 -0.1955 -0.3461
   10MOL   C671 9869   2.106   2.245   1.700  0.3640  0.2411 -0.6070
   10MOL   C672 9870   2.211   2.192   1.783  0.0614  0.1595 -0.0708
   10MOL   C673 9871   2.218   2.202   1.924 -0.4231 -0.0744 -0.4312
   10MOL   C674 9872   2.115   2.271   1.984 -0.2979  0.2400 -0.3115
   10MOL   N675 9873   2.118   2.283   2.121  0.1053 -0.8918  0.5051
   10MOL   C676 9874   2.029   2.366   2.196 -0.5497 -0.2816  0.4751
   10MOL   C677 9875   1.928   2.313   2.286 -0.0964  0.4493  0.5555
   10MOL   C678 9876   1.844   2.394   2.361 -0.4587 -0.6431  0.7640
   10MOL   C679 9877   1.845   2.534   2.340  0.7069 -0.3628  0.8049
   10MOL   N680 9878   1.751   2.605   2.414 -0.1738  0.2637  0.2949
   10MOL   C681 9879   1.710   2.738   2.411 -0.4674 -0.2436 -0.6311
   10MOL   C682 9880   1.805   2.842   2.418 -0.3681 -0.1784 -0.1914
   10MOL   C683 9881   1.759   2.972   2.416  0.2229 -0.3239  0.2316
   10MOL   C684 9882   1.623   3.011   2.396 -0.4224  0.3468 -0.5611
   10MOL   C685 9883   1.585   3.154   2.386 -0.5207 -0.0573 -0.2718
   10MOL   C686 9884   1.530   2.909   2.389 -0.0143  0.8707 -0.0485
   10MOL   C687 9885   1.573   2.773   2.399  0.2485  0.3087  0.3680
   10MOL   C688 9886   1.943   2.584   2.249 -0.9298 -0.1696  0.4509
   10MOL   C689 9887   2.039   2.509   2.178  0.0618 -0.7107 -0.0092
   10MOL   C690 9888   2.005   2.328   1.909  0.5084 -0.4938  0.0469
   10MOL   C691 9889   2.000   2.303   1.769 -0.3077  0.4327  0.3497
   10MOL   C692 9890   1.981   2.218   1.358 -0.1258  0.3052 -0.4613
   10MOL   C693 9891   1.903   2.272   1.256  0.5914  0.5660  0.2190
   10MOL   H694 9892   1.769   2.400   1.099 -0.2830  0.6652 -0.7331
   10MOL   H695 9893   1.943   2.602   1.348 -0.6952 -0.0460 -2.4288
   10MOL   H696 9894   2.077   2.488   1.536  0.3784  2.2801 -0.9958
   10MOL   H697 9895   2.176   2.160   1.529 -2.2662 -2.2844  2.0493
   10MOL   H698 9896   2.294   2.147   1.730 -0.0650 -1.1607  0.8316
   10MOL   H699 9897   2.298   2.157   1.981 -0.4165 -1.3290 -1.4153
   10MOL   H700 9898   2.156   2.197   2.156  0.4870 -1.2042 -0.6546
   10MOL   H701 9899   1.910   2.207   2.297 -1.6344  0.5851 -0.4448
   10MOL   H702 9900   1.778   2.331   2.419 -0.6475 -1.3746 -0.2214
   10MOL   H703 9901   1.679   2.544   2.452  1.5130 -1.6566  0.4778
   10MOL   H704 9902   1.912   2.830   2.430 -0.5451 -3.1869 -1.1762
   10MOL   H705 9903   1.829   3.054   2.417 -0.4247  0.2969 -1.9180
   10MOL   H706 9904   1.659   3.197   2.452 -0.4874  0.1850 -0.4650
   10MOL   H707 9905   1.489   3.167   2.435 -0.0984 -1.6875  1.0300
   10MOL   H708 9906   1.426   2.936   2.383 -0.0636  0.2089 -2.9168
   10MOL   H709 9907   1.502   2.691   2.401  1.4047 -0.7095 -0.0116
   10MOL   H710 9908   1.963   2.690   2.248 -0.4720 -0.2587 -0.8510
   10MOL   H711 9909   2.123   2.544   2.121 -0.1782 -0.3201 -0.1222
   10MOL   H712 9910   1.917   2.367   1.957 -1.6477 -2.5979 -2.0495
   10MOL   H713 9911   1.910   2.337   1.720 -0.5903  0.3017  0.7757
   10MOL   H714 9912   1.993   2.112   1.372 -2.8988  0.0288  0.1463
   10MOL   H715 9913   1.844   2.210   1.190  0.9963  0.6516 -0.2289
   10MOL   N716 9914   1.582   3.225   2.255 -0.1412  0.0226 -0.2823
   10MOL   C717 9915   1.597   3.365   2.247 -0.7650 -0.0298  0.1561
   10MOL   C718 9916   1.595   3.436   2.366  0.3512  0.0204  0.5092
   10MOL   C719 9917   1.612   3.577   2.359  0.0542 -0.6888  0.6675
   10MOL   C720 9918   1.634   3.649   2.237  0.6178 -0.4169 -1.1193
   10MOL   N721 9919   1.666   3.786   2.258  0.0373  0.8204  0.2934
   10MOL   C722 9920   1.631   3.888   2.168 -0.2793 -0.4582 -0.5853
   10MOL   C723 9921   1.715   3.999   2.159 -0.5673  0.1317 -0.3228
   10MOL   C724 9922   1.703   4.102   2.071  0.6398  0.1724  0.4639
   10MOL   C725 9923   1.602   4.088   1.973  0.1033 -1.0046 -0.6495
   10MOL   N726 9924   1.599   4.196   1.883  1.2197 -0.2619  0.6138
   10MOL   C727 9925   1.573   4.194   1.747  0.0333  0.1205  0.0815
   10MOL   C728 9926   1.579   4.312   1.671  0.2023 -0.5516  0.2039
   10MOL   C729 9927   1.558   4.310   1.536  0.5545  0.4752  0.1563
   10MOL   C730 9928   1.500   4.196   1.476 -0.2321  0.1877  0.3709
   10MOL   N731 9929   1.469   4.213   1.339 -0.4933  0.1747 -0.5297
   10MOL   C732 9930   1.515   4.129   1.234  0.1611  0.5975  0.3482
   10MOL   C733 9931   1.574   4.002   1.249 -0.3636 -0.3200  0.0130
   10MOL   C734 9932   1.617   3.934   1.133  0.1837 -0.1593  0.7180
   10MOL   C735 9933   1.585   3.981   1.003 -0.0722  0.0823  0.1736
   10MOL   C736 9934   1.637   3.906   0.878  0.0127 -0.4556  0.2003
   10MOL   C737 9935   1.516   4.104   0.988  0.6327  0.3877  0.2942
   10MOL   C738 9936   1.474   4.172   1.102  0.1079  0.2876  0.2840
   10MOL   C739 9937   1.492   4.070   1.541  0.1619 -0.2037 -0.0601
   10MOL   C740 9938   1.539   4.073   1.676 -1.1408 -0.5163 -0.2337
   10MOL   C741 9939   1.518   3.975   1.967 -0.1915 -0.8984 -0.2041
   10MOL   C742 9940   1.532   3.877   2.066 -0.2513 -0.1976  0.0458
   10MOL   C743 9941   1.631   3.577   2.119 -0.6857 -0.3764 -0.5717
   10MOL   C744 9942   1.607   3.434   2.123 -0.5531 -0.1875  1.2082
   10MOL   H745 9943   1.622   3.172   2.179 -2.7320 -1.9809 -0.3411
   10MOL   H746 9944   1.577   3.402   2.467 -1.1583  0.6392  0.4665
   10MOL   H747 9945   1.621   3.632   2.451  0.1900  0.6303 -0.1170
   10MOL   H748 9946   1.685   3.823   2.350  0.3528  1.8798 -0.1916
   10MOL   H749 9947   1.789   4.001   2.238 -1.1319 -0.7367  0.2378
   10MOL   H750 9948   1.771   4.185   2.073 -0.3589  1.0136  0.2725
   10MOL   H751 9949   1.640   4.274   1.931  0.1676  0.0611  0.9941
   10MOL   H752 9950   1.588   4.408   1.719  0.7021 -0.2428 -0.5057
   10MOL   H753 9951   1.566   4.408   1.491 -1.5573  0.8797  0.6047
   10MOL   H754 9952   1.447   4.308   1.313 -0.2322  0.8112  1.4859
   10MOL   H755 9953   1.608   3.963   1.344  3.2426  0.6894 -0.7881
   10MOL   H756 9954   1.682   3.849   1.139  0.3338 -0.1443 -0.5600
   10MOL   H757 9955   1.744   3.912   0.899 -0.1275  0.3077  0.7516
   10MOL   H758 9956   1.624   3.955   0.782  1.3879  0.3261  0.4046
   10MOL   H759 9957   1.500   4.140   0.887 -0.6929 -0.8193  0.0523
   10MOL   H760 9958   1.429   4.270   1.103 -2.8506 -1.0336  1.3185
   10MOL   H761 9959   1.452   3.975   1.508  0.1977 -1.1744  2.5519
   10MOL   H762 9960   1.560   3.974   1.714 -3.4671 -1.7518 -2.0391
   10MOL   H763 9961   1.430   3.964   1.904  0.2725 -0.3519 -0.9592
   10MOL   H764 9962   1.466   3.791   2.064  1.9442 -1.9853  1.5762
   10MOL   H765 9963   1.647   3.624   2.023  2.4651 -1.0014 -0.3990
   10MOL   H766 9964   1.591   3.383   2.029 -0.9726  0.8822  0.6932
   10MOL   N767 9965   1.590   3.775   0.864 -0.2935 -0.4534  0.3778
   10MOL   C768 9966   1.460   3.740   0.818  0.0786  0.4234  0.3708
   10MOL   C769 9967   1.415   3.606   0.812  0.3013  0.0065 -0.5320
   10MOL   C770 9968   1.281   3.574   0.775  0.3588  0.4639  0.0185
   10MOL   C771 9969   1.188   3.678   0.763  0.3285  0.5683  0.2213
   10MOL   N772 9970   1.051   3.645   0.750 -0.2025  0.3155 -0.0902
   10MOL   C773 9971   0.948   3.739   0.757 -0.7489  0.4428  0.1723
   10MOL   C774 9972   0.929   3.828   0.647 -0.4410  0.3743 -0.5708
   10MOL   C775 9973   0.827   3.922   0.651 -0.3275 -0.0621 -0.4049
   10MOL   C776 9974   0.744   3.930   0.760  0.2642  0.3623 -0.9925
   10MOL   N777 9975   0.635   4.019   0.759 -1.0455  0.1672  0.0115
   10MOL   C778 9976   0.635   4.158   0.725  0.2608  0.8793 -0.2967
   10MOL   C779 9977   0.750   4.237   0.709  0.0130 -0.7483  0.6040
   10MOL   C780 9978   0.725   4.379   0.705 -0.4213 -0.1126 -0.6974
   10MOL   C781 9979   0.597   4.431   0.693  0.3474  0.0923 -0.7975
   10MOL   N782 9980   0.577   4.570   0.690 -0.1051  0.0751  0.5339
   10MOL   C783 9981   0.526   4.638   0.803  0.4409  0.0521  0.1566
   10MOL   C784 9982   0.457   4.758   0.786 -0.1304  0.7209  0.2330
   10MOL   C785 9983   0.419   4.829   0.904  0.1412 -0.1142  0.5126
   10MOL   C786 9984   0.432   4.778   1.033 -0.9918 -0.3232  0.0495
   10MOL   C787 9985   0.379   4.859   1.151  0.2439 -0.2904  0.0426
   10MOL   C788 9986   0.501   4.654   1.047 -0.1987 -0.3116 -0.0357
   10MOL   C789 9987   0.544   4.581   0.934 -0.0649  0.3276  0.8741
   10MOL   C790 9988   0.487   4.346   0.701 -0.1264 -0.1860 -0.5839
   10MOL   C791 9989   0.505   4.204   0.710  0.0847 -0.4114  0.4143
   10MOL   C792 9990   0.756   3.843   0.870 -0.4887 -0.0954 -0.7619
   10MOL   C793 9991   0.865   3.751   0.871  0.1825  0.5026  0.4058
   10MOL   C794 9992   1.225   3.813   0.778  0.1151  0.3453 -0.0866
   10MOL   C795 9993   1.359   3.840   0.807  0.0854  0.1289 -0.1013
   10MOL   H796 9994   1.665   3.707   0.862 -1.3615 -1.6650  0.9552
   10MOL   H797 9995   1.471   3.515   0.827 -0.9277 -1.0350 -2.0712
   10MOL   H798 9996   1.241   3.473   0.771  0.7493  0.2782  0.7497
   10MOL   H799 9997   1.026   3.547   0.755 -0.5554  0.4268  0.3880
   10MOL   H800 9998   0.991   3.814   0.560  2.0781 -1.8493  1.5147
   10MOL   H801 9999   0.815   3.995   0.572  1.9577  0.4734 -0.3053
   10MOL   H80210000   0.553   4.001   0.815  0.4848 -0.8891  1.9620
   10MOL   H80310001   0.855   4.213   0.714 -0.0529 -0.8786  1.4435
   10MOL   H80410002   0.804   4.451   0.707  1.5467 -2.1744 -1.7348
   10MOL   H80510003   0.542   4.599   0.600  1.5087 -1.0536 -0.4864
   10MOL   H80610004   0.427   4.795   0.688  1.1019 -0.9632 -0.8038
   10MOL   H80710005   0.371   4.925   0.895 -1.3288 -0.9525 -0.8145
   10MOL   H80810006   0.308   4.930   1.109 -2.1313 -1.7564  1.4980
   10MOL   H80910007   0.459   4.914   1.202 -0.4241  0.5262  0.2152
   10MOL   H81010008   0.519   4.624   1.149 -0.2930  1.0108  0.3788
   10MOL   H81110009   0.600   4.489   0.942  0.1464  0.5131  1.5560
   10MOL   H81210010   0.388   4.388   0.705 -0.0456 -0.1465  1.9831
   10MOL   H81310011   0.414   4.145   0.715  0.2536 -0.8913 -1.8694
   10MOL   H81410012   0.696   3.857   0.959 -0.5856  3.1860 -1.2724
   10MOL   H81510013   0.887   3.680   0.950  0.6384  2.7650  2.3784
   10MOL   H81610014   1.149   3.891   0.781  0.2009  0.3963  1.7620
   10MOL   H81710015   1.383   3.944   0.827 -1.9931  0.5844  0.2041
   10MOL   N81810016   0.301   4.774   1.235 -0.1701 -0.4016 -0.4927
   10MOL   C81910017   0.268   4.836   1.358  0.8895  0.1296  0.5097
   10MOL   C82010018   0.135   4.848   1.403  0.4988 -0.7152  0.1058
   10MOL   C82110019   0.115   4.917   1.530 -0.4703  0.3843  0.9091
   10MOL   C82210020   0.219   4.985   1.590  0.1357 -0.9722  0.2842
   10MOL   N82310021   0.198   5.063   1.704  0.3325 -0.3362  0.1197
   10MOL   C82410022   0.088   5.141   1.722  0.0977 -0.5152 -0.6474
   10MOL   C82510023   0.032   5.211   1.611 -0.1611  0.4044 -0.4053
   10MOL   C82610024   7.910   5.303   1.625 -0.7005 -0.5316 -0.4654
   10MOL   C82710025   7.863   5.336   1.754  0.1704  0.4983  0.4006
   10MOL   N82810026   7.760   5.429   1.766  0.2433  0.1029  0.2347
   10MOL   C82910027   7.644   5.429   1.839 -0.1864  0.7052  0.0473
   10MOL   C83010028   7.564   5.542   1.846 -0.0050  0.4452 -0.2775
   10MOL   C83110029   7.427   5.533   1.895  0.1925  0.1487  0.3561
   10MOL   C83210030   7.381   5.415   1.942  0.4078 -0.3046  0.1250
   10MOL   N83310031   7.253   5.406   1.998  0.1250  0.2832 -0.2804
   10MOL   C83410032   7.138   5.337   1.948 -0.9117  0.7014 -0.2772
   10MOL   C83510033   7.147   5.231   1.848 -0.9663 -1.0724  0.7848
   10MOL   C83610034   7.031   5.171   1.798 -0.5231 -0.4536  0.3218
   10MOL   C83710035   6.905   5.213   1.844 -0.0128 -0.5562  0.3955
   10MOL   C83810036   6.782   5.133   1.789 -0.3169  0.3698 -0.3188
   10MOL   C83910037   6.894   5.329   1.922  0.5966 -0.2228 -0.8529
   10MOL   C84010038   7.011   5.383   1.979 -0.1485 -1.0202  0.0683
   10MOL   C84110039   7.460   5.307   1.932 -0.0562 -0.5984  0.0751
   10MOL   C84210040   7.593   5.307   1.881 -0.1509 -0.3088 -0.2759
   10MOL   C84310041   7.920   5.273   1.866 -0.0157  0.0467  0.1321
   10MOL   C84410042   0.034   5.172   1.851  0.1150 -0.4028  0.3121
   10MOL   C84510043   0.349   4.966   1.546 -0.2065 -0.1616  0.1474
   10MOL   C84610044   0.373   4.894   1.432 -0.4289 -0.1734 -0.2547
   10MOL   H84710045   0.226   4.717   1.199  0.0722  0.4929 -2.4720
   10MOL   H84810046   0.056   4.796   1.351 -1.9465  2.3281  0.5563
   10MOL   H84910047   0.014   4.926   1.567 -0.3841 -0.0234  1.2474
   10MOL   H85010048   0.280   5.096   1.753 -0.6564  1.2498  0.7130
   10MOL   H85110049   0.069   5.199   1.510  1.5799  0.7343  0.1676
   10MOL   H85210050   7.865   5.350   1.538 -2.7101 -0.2615  0.6949
   10MOL   H85310051   7.765   5.508   1.704  2.2729 -0.3782 -0.2480
   10MOL   H85410052   7.609   5.639   1.829  1.9778 -0.4965 -0.5626
   10MOL   H85510053   7.371   5.625   1.899  1.1621  0.8753 -1.9410
   10MOL   H85610054   7.237   5.485   2.060 -0.6086  0.4827 -0.7267
   10MOL   H85710055   7.245   5.188   1.830  0.0817  0.5773  2.3019
   10MOL   H85810056   7.039   5.090   1.727 -0.1818  2.2443 -2.8111
   10MOL   H85910057   6.801   5.106   1.686 -0.3614 -0.2205 -0.1761
   10MOL   H86010058   6.703   5.206   1.775 -0.3293  0.3147 -0.5295
   10MOL   H86110059   6.793   5.354   1.952  0.3580 -1.9249 -0.2104
   10MOL   H86210060   6.991   5.466   2.045 -1.0841 -0.3752 -1.0089
   10MOL   H86310061   7.431   5.210   1.969 -0.6981 -0.2916  0.3917
   10MOL   H86410062   7.642   5.211   1.883 -1.5398 -1.0903 -2.5303
   10MOL   H86510063   7.885   5.299   1.964 -0.9186  0.0852 -0.1902
   10MOL   H86610064   0.086   5.129   1.936  0.2034  2.6844  1.8973
   10MOL   H86710065   0.424   5.013   1.609  1.0620 -0.9542 -0.7568
   10MOL   H86810066   0.472   4.870   1.396  0.0949  0.8710  0.4704
   10MOL   N86910067   6.748   5.007   1.859  0.1883  0.0247  0.2163
   10MOL   C87010068   6.637   4.994   1.940 -0.0757  0.2879 -1.2204
   10MOL   C87110069   6.513   5.058   1.904 -0.2499 -0.0643  0.0428
   10MOL   C87210070   6.399   5.042   1.986  0.1809  0.5342 -0.4198
   10MOL   C87310071   6.399   4.947   2.093 -0.4799 -0.4558 -0.0543
   10MOL   N87410072   6.283   4.928   2.173  0.2531  0.0936  0.4964
   10MOL   C87510073   6.150   4.908   2.123 -0.0149  0.1770  0.8042
   10MOL   C87610074   6.034   4.931   2.204 -0.0937  0.0739 -0.4796
   10MOL   C87710075   5.911   4.899   2.154  0.2833  0.2277 -0.1204
   10MOL   C87810076   5.893   4.848   2.024  0.1243 -0.2046  0.1866
   10MOL   N87910077   5.770   4.782   2.002 -0.8665  0.7112 -0.2864
   10MOL   C88010078   5.721   4.727   1.883  0.4296 -0.1780 -0.3651
   10MOL   C88110079   5.758   4.761   1.759  0.2062  0.4717  0.6242
   10MOL   C88210080   5.705   4.695   1.650  0.2762  0.4733  0.7992
   10MOL   C88310081   5.600   4.602   1.661 -0.0112 -0.3049 -0.2867
   10MOL   N88410082   5.537   4.539   1.548  0.4360  0.1564 -0.9551
   10MOL   C88510083   5.577   4.542   1.417  0.2351  0.0004  0.1181
   10MOL   C88610084   5.563   4.662   1.346 -0.3911 -0.1118  0.0661
   10MOL   C88710085   5.605   4.663   1.212  0.5846 -0.4295 -0.3089
   10MOL   C88810086   5.669   4.559   1.157 -0.6653  0.4682 -0.2399
   10MOL   C88910087   5.734   4.573   1.025  0.0016 -0.2148 -1.1496
   10MOL   C89010088   5.687   4.438   1.228  1.0321 -0.1751  0.1270
   10MOL   C89110089   5.643   4.432   1.359 -0.7824 -0.0917 -0.6313
   10MOL   C89210090   5.555   4.570   1.794 -0.1198 -0.1944 -0.3600
   10MOL   C89310091   5.621   4.627   1.903  0.2509  0.2146 -0.0227
   10MOL   C89410092   6.009   4.822   1.945  0.3034  0.4454 -0.3448
   10MOL   C89510093   6.138   4.861   1.994 -0.6732  0.6925  0.6514
   10MOL   C89610094   6.518   4.886   2.128 -0.3837 -0.1865 -0.3460
   10MOL   C89710095   6.638   4.916   2.059  0.2428 -0.3384  0.4399
   10MOL   H89810096   6.830   4.954   1.885  0.4466  0.1257 -0.3874
   10MOL   H89910097   6.507   5.099   1.804 -3.6500  0.3388  0.3577
   10MOL   H90010098   6.303   5.081   1.957  0.3687 -1.4994 -4.1248
   10MOL   H90110099   6.297   4.876   2.258  1.4791  0.3025  0.4195
   10MOL   H90210100   6.043   4.972   2.303 -2.2103 -1.0401  0.2130
   10MOL   H90310101   5.834   4.916   2.227  1.3066  2.0486  0.5572
   10MOL   H90410102   5.720   4.771   2.089 -0.6333  0.7136 -0.1497
   10MOL   H90510103   5.839   4.833   1.752  0.9968 -0.4502  0.1584
   10MOL   H90610104   5.746   4.711   1.551  2.1278 -0.9285  1.3247
   10MOL   H90710105   5.481   4.459   1.574  1.7016 -0.0138  1.4433
   10MOL   H90810106   5.513   4.746   1.391 -1.0396 -0.4227 -0.0656
   10MOL   H90910107   5.588   4.752   1.153  0.5159  0.3352  0.8477
   10MOL   H91010108   5.665   4.540   0.947  1.3449 -0.2096 -2.3462
   10MOL   H91110109   5.822   4.509   1.018  0.8461  0.8789 -0.6888
   10MOL   H91210110   5.750   4.355   1.203  0.0701 -1.4291  1.7402
   10MOL   H91310111   5.671   4.340   1.407  0.1862 -0.7931 -2.4814
   10MOL   H91410112   5.463   4.519   1.819 -0.3409  0.6793  0.6520
   10MOL   H91510113   5.580   4.609   2.001  2.4619  0.9056  1.0552
   10MOL   H91610114   6.009   4.753   1.862  1.7858 -0.1736  0.1520
   10MOL   H91710115   6.226   4.850   1.931 -1.2740  1.0560 -0.2593
   10MOL   H91810116   6.522   4.829   2.220  1.5537  2.9651  1.5973
   10MOL   H91910117   6.738   4.887   2.087 -0.1155 -0.8385  1.2063
   10MOL   N92010118   5.764   4.709   1.002  0.2706  0.6526  0.2030
   10MOL   C92110119   5.868   4.740   0.915  0.1092  0.8398  0.2535
   10MOL   C92210120   5.906   4.658   0.807  0.4765 -0.4613 -0.1053
   10MOL   C92310121   6.030   4.672   0.738  0.5338  0.3110 -0.1433
   10MOL   C92410122   6.110   4.784   0.778  0.0805  0.4091 -0.2654
   10MOL   N92510123   6.225   4.807   0.701  0.3236  0.2287  0.0286
   10MOL   C92610124   6.348   4.853   0.743 -0.5168  0.5139 -0.1477
   10MOL   C92710125   6.441   4.915   0.651 -0.1422 -0.2867  0.5859
   10MOL   C92810126   6.561   4.967   0.703  0.5107 -0.2667  0.4435
   10MOL   C92910127   6.588   4.967   0.840 -0.0463 -0.6208  0.3663
   10MOL   N93010128   6.709   5.021   0.885  0.4227 -0.7832  0.2514
   10MOL   C93110129   6.739   5.084   1.013  0.4623  0.4881 -0.2456
   10MOL   C93210130   6.878   5.097   1.045  0.4512  0.5427  0.1356
   10MOL   C93310131   6.921   5.159   1.164 -0.2757 -0.4205  0.3767
   10MOL   C93410132   6.822   5.230   1.239 -0.3211 -0.0802 -0.6786
   10MOL   N93510133   6.869   5.305   1.346  0.0118  0.9375 -0.2532
   10MOL   C93610134   6.799   5.387   1.435  0.7757  0.4341 -0.1765
   10MOL   C93710135   6.681   5.344   1.509  0.8980  0.3888  0.3146
   10MOL   C93810136   6.619   5.440   1.594  0.5392  0.3816 -0.8269
   10MOL   C93910137   6.662   5.573   1.601  0.6735 -0.8224 -0.2122
   10MOL   C94010138   6.580   5.679   1.668  0.0184 -0.1851  0.0093
   10MOL   C94110139   6.777   5.618   1.534  0.4162 -0.4919 -0.0991
   10MOL   C94210140   6.850   5.520   1.459 -0.4500  0.6364  0.4101
   10MOL   C94310141   6.687   5.230   1.204  0.3390  0.0463 -0.3684
   10MOL   C94410142   6.644   5.154   1.096 -0.5800  0.4842  0.4665
   10MOL   C94510143   6.500   4.903   0.930 -0.1554 -0.6424  0.7608
   10MOL   C94610144   6.381   4.837   0.879 -0.1520 -0.3131  0.7748
   10MOL   C94710145   6.076   4.868   0.896 -0.3038 -0.2681  0.6259
   10MOL   C94810146   5.952   4.849   0.953  0.5329 -0.4952 -0.4404
   10MOL   H94910147   5.746   4.766   1.084 -1.8455 -0.3540  0.4815
   10MOL   H95010148   5.834   4.588   0.766 -0.1087  1.2144 -2.0138
   10MOL   H95110149   6.052   4.605   0.656  0.8604  0.0080  0.1953
   10MOL   H95210150   6.221   4.790   0.602  1.3668 -0.0405  0.0206
   10MOL   H95310151   6.419   4.913   0.545 -1.4794 -2.7098  0.8597
   10MOL   H95410152   6.621   5.019   0.631  1.7250 -1.0613  0.8566
   10MOL   H95510153   6.782   5.028   0.815  0.3447  2.4422  0.3885
   10MOL   H95610154   6.953   5.050   0.984  0.0747 -1.5566  1.2392
   10MOL   H95710155   7.024   5.161   1.197  0.5810 -0.2223 -2.2361
   10MOL   H95810156   6.962   5.342   1.329  0.7318 -0.3070  0.8417
   10MOL   H95910157   6.654   5.240   1.515  2.1064 -0.0787 -1.7143
   10MOL   H96010158   6.543   5.404   1.662  0.9024  0.8234 -0.1710
   10MOL   H96110159   6.626   5.774   1.640  1.8941 -0.6201  1.4875
   10MOL   H96210160   6.609   5.659   1.771 -0.9375 -0.8838  0.1501
   10MOL   H96310161   6.816   5.718   1.539 -1.8972  0.3939  0.7086
   10MOL   H96410162   6.943   5.548   1.412 -1.5611  4.0966  0.1336
   10MOL   H96510163   6.617   5.287   1.263  1.6499  2.2027 -0.8736
   10MOL   H96610164   6.538   5.150   1.077  0.1392 -3.1032 -3.5176
   10MOL   H96710165   6.524   4.906   1.035 -2.5553 -0.5444  1.3364
   10MOL   H96810166   6.323   4.768   0.939 -0.7518 -0.7200 -0.2540
   10MOL   H96910167   6.134   4.952   0.932 -1.2612  1.2240 -1.2270
   10MOL   H97010168   5.915   4.902   1.039 -0.4800 -1.7393 -0.0960
   10MOL   N97110169   6.435   5.678   1.637  0.3954  0.5725  0.1212
   10MOL   C97210170   6.349   5.585   1.697  0.0726 -0.0260  0.2424
   10MOL   C97310171   6.249   5.520   1.619 -0.2554  0.4881 -0.2024
   10MOL   C97410172   6.167   5.422   1.673  0.2885  0.5454  0.1343
   10MOL   C97510173   6.173   5.397   1.807  0.2689 -0.0138 -0.0111
   10MOL   N97610174   6.075   5.317   1.866 -0.0528  0.7505  0.1410
   10MOL   C97710175   5.940   5.303   1.832 -0.1774 -0.4005 -0.5651
   10MOL   C97810176   5.864   5.402   1.776 -0.2253  0.3053  0.8084
   10MOL   C97910177   5.730   5.387   1.728  0.0646 -0.0558 -0.1602
   10MOL   C98010178   5.672   5.264   1.761 -0.1994  0.0362  0.3321
   10MOL   N98110179   5.539   5.239   1.723 -0.1056  0.0502  0.5216
   10MOL   C98210180   5.431   5.326   1.735  0.2684 -0.4340  0.1456
   10MOL   C98310181   5.318   5.283   1.659  0.5143 -0.3948 -0.7212
   10MOL   C98410182   5.214   5.374   1.651  0.4246 -0.4864 -0.0187
   10MOL   C98510183   5.206   5.490   1.727 -0.2326  0.1675  0.1820
   10MOL   N98610184   5.094   5.570   1.724 -0.3106  0.5286 -0.3996
   10MOL   C98710185   5.035   5.633   1.616 -0.5246  0.1795 -0.0866
   10MOL   C98810186   4.910   5.696   1.637 -0.0122 -0.0206  0.3376
   10MOL   C98910187   4.854   5.791   1.546 -0.4336  0.7927  0.5040
   10MOL   C99010188   4.929   5.820   1.431 -0.5154  0.9400 -0.6148
   10MOL   C99110189   4.884   5.924   1.336 -0.1592  0.4629  0.7027
   10MOL   C99210190   5.055   5.766   1.413 -0.4464 -0.3301  0.0060
   10MOL   C99310191   5.102   5.660   1.492 -0.5331  0.2557  0.1333
   10MOL   C99410192   5.314   5.528   1.804  0.2552 -0.3662 -0.3884
   10MOL   C99510193   5.424   5.445   1.803  0.2927  0.0138  0.2769
   10MOL   C99610194   5.745   5.164   1.829  0.3362 -0.5721 -0.1683
   10MOL   C99710195   5.883   5.181   1.857 -0.3098  0.4012 -1.0219
   10MOL   C99810196   6.274   5.448   1.888 -0.5099 -0.3502 -0.3412
   10MOL   C99910197   6.354   5.554   1.836  0.1278  0.4279  0.2200
   10MOL     H110198   6.408   5.691   1.540  0.4528 -4.3750 -0.6839
   10MOL     H210199   6.242   5.545   1.515  0.6942  3.3285  0.3872
   10MOL     H310200   6.095   5.374   1.607  0.9219 -1.8782  1.1656
   10MOL     H410201   6.112   5.259   1.940  0.1180 -0.3682 -0.8070
   10MOL     H510202   5.921   5.493   1.772 -1.2157  0.8558 -2.5178
   10MOL     H610203   5.676   5.463   1.673 -0.4683 -0.9106 -0.8257
   10MOL     H710204   5.514   5.141   1.721  0.3586 -0.0794  1.0267
   10MOL     H810205   5.321   5.192   1.600 -1.0717  0.1547 -1.6665
   10MOL     H910206   5.125   5.330   1.608 -0.9934  1.1300  1.1269
   10MOL    H1010207   5.042   5.592   1.807  1.4348 -1.3082  1.2274
   10MOL    H1110208   4.850   5.679   1.726  0.3461 -2.0280  0.2134
   10MOL    H1210209   4.754   5.828   1.564 -1.1611 -0.7585 -0.2674
   10MOL    H1310210   4.899   6.028   1.365  0.2542 -0.0907  2.5396
   10MOL    H1410211   4.778   5.910   1.312  0.4314 -0.2430 -1.5866
   10MOL    H1510212   5.110   5.790   1.323  0.2806 -0.2208  0.4764
   10MOL    H1610213   5.196   5.611   1.471 -1.5771 -2.3099  1.2127
   10MOL    H1710214   5.307   5.617   1.865 -0.9010 -1.1374  0.6154
   10MOL    H1810215   5.505   5.481   1.866  1.0363 -0.5213 -0.3725
   10MOL    H1910216   5.692   5.073   1.853 -1.3068  0.3054 -0.3632
   10MOL    H2010217   5.932   5.098   1.905  0.4948  0.6567 -1.3862
   10MOL    H2110218   6.292   5.432   1.993  1.1928  1.2875 -0.3535
   10MOL    H2210219   6.426   5.600   1.902 -1.4802  0.6920  1.8339
   10MOL    H2310220   4.932   5.902   1.241 -1.5789 -2.2619  0.5550
   11MOL     N110221   2.918   0.147   1.146 -0.6155  0.1018  0.1795
   11MOL     C210222   2.956   0.026   1.087 -0.1103  0.3880  0.2439
   11MOL     C310223   2.986   0.029   0.951  0.1836 -0.1374 -0.4717
   11MOL     C410224   3.049   7.897   0.891  0.5670 -1.1824  0.1559
   11MOL     C510225   3.076   7.783   0.964 -0.5453  0.1992  0.1061
   11MOL     N610226   3.127   7.678   0.892  0.7426  0.0669  0.4060
   11MOL     C710227   3.147   7.543   0.928  0.4605 -0.6945 -0.0146
   11MOL     C810228   3.273   7.487   0.903  0.5674  0.1812  0.2868
   11MOL     C910229   3.289   7.353   0.933 -0.6446 -0.4989  0.0192
   11MOL    C1010230   3.183   7.274   0.978  0.0741  0.2459  1.0908
   11MOL    N1110231   3.204   7.133   0.983 -0.2578 -0.0514 -0.3082
   11MOL    C1210232   3.124   7.048   1.053 -0.2143 -0.3099  0.0741
   11MOL    C1310233   3.096   6.917   1.007 -0.6987  0.2926 -0.5857
   11MOL    C1410234   3.022   6.829   1.085 -0.0438  0.6249 -0.6732
   11MOL    C1510235   3.006   6.859   1.218  0.4163  0.0190  0.2024
   11MOL    N1610236   2.948   6.762   1.301 -0.4811  0.6751  0.4013
   11MOL    C1710237   2.980   6.624   1.307 -0.5153  1.2314 -1.1554
   11MOL    C1810238   3.101   6.568   1.249  0.2015 -0.5126 -0.5591
   11MOL    C1910239   3.137   6.437   1.276  0.5414 -0.1561  0.5590
   11MOL    C2010240   3.065   6.364   1.374 -0.2441  0.0669  0.1203
   11MOL    C2110241   3.100   6.215   1.392 -0.0721  0.5782 -0.5176
   11MOL    C2210242   2.955   6.413   1.436 -0.0558 -0.4417  0.2608
   11MOL    C2310243   2.913   6.546   1.407 -0.3336 -0.9130  0.3142
   11MOL    C2410244   3.051   6.980   1.274  0.4248 -0.3341  0.0574
   11MOL    C2510245   3.094   7.082   1.185 -0.0156  0.3063 -0.6443
   11MOL    C2610246   3.058   7.334   1.011  1.1059 -0.0653 -0.0219
   11MOL    C2710247   3.042   7.469   0.982  0.5496 -0.2874 -0.2984
   11MOL    C2810248   3.032   7.777   1.099 -0.4786  0.5646  0.0984
   11MOL    C2910249   2.980   7.889   1.162 -0.1003 -0.3858 -0.0412
   11MOL    H3010250   2.961   0.168   1.234 -1.4221 -0.7667  0.7897
   11MOL    H3110251   2.975   0.120   0.894  0.1621 -1.6334 -2.9302
   11MOL    H3210252   3.075   7.890   0.786 -0.2006 -2.5954  0.0437
   11MOL    H3310253   3.173   7.707   0.807 -0.0038  0.6708  0.1964
   11MOL    H3410254   3.352   7.546   0.858 -1.6430  1.2846 -2.2326
   11MOL    H3510255   3.386   7.313   0.911 -0.0727 -0.2291  1.9449
   11MOL    H3610256   3.296   7.111   0.947  0.2945  1.7599 -0.0353
   11MOL    H3710257   3.115   6.897   0.903  0.5517  0.2371 -0.3555
   11MOL    H3810258   2.980   6.744   1.034 -0.3846  2.3610 -3.3923
   11MOL    H3910259   2.866   6.794   1.350  0.0124  0.7190  1.2275
   11MOL    H4010260   3.165   6.630   1.188 -0.1151 -1.1741 -1.5796
   11MOL    H4110261   3.222   6.393   1.225 -1.2715 -0.8388 -2.0030
   11MOL    H4210262   3.145   6.198   1.490  0.9713  0.8942 -0.9364
   11MOL    H4310263   3.188   6.188   1.335 -1.0949 -2.8791 -0.5411
   11MOL    H4410264   2.915   6.341   1.507 -0.8800 -1.5363 -1.2913
   11MOL    H4510265   2.837   6.598   1.463 -0.4143  0.8810 -1.4244
   11MOL    H4610266   3.024   7.007   1.375 -0.1873 -1.0681  0.1003
   11MOL    H4710267   3.113   7.180   1.227 -0.0519  0.3696 -0.7752
   11MOL    H4810268   2.975   7.286   1.061  1.3179 -1.3438 -0.8911
   11MOL    H4910269   2.942   7.507   0.998  0.2535 -1.2717  0.2419
   11MOL    H5010270   3.046   7.686   1.156 -1.5922 -0.0258 -0.5715
   11MOL    H5110271   2.954   7.885   1.267 -2.7472  0.3878 -0.6303
   11MOL    H5210272   2.956   0.214   1.080  0.2536 -1.5279 -1.0191
   11MOL    N5310273   2.997   6.121   1.355  0.2468  0.1501  0.5141
   11MOL    C5410274   2.970   6.013   1.437  0.0643 -0.0526  0.1409
   11MOL    C5510275   3.021   5.986   1.565  0.4583  0.2574  0.4553
   11MOL    C5610276   2.988   5.859   1.623  0.4480 -0.2551 -0.4789
   11MOL    C5710277   2.889   5.777   1.568 -0.2419 -0.4124  0.2859
   11MOL    N5810278   2.849   5.657   1.633 -0.4708 -0.4719  0.1218
   11MOL    C5910279   2.900   5.603   1.749 -0.4783 -0.2423 -0.1833
   11MOL    C6010280   3.029   5.553   1.750 -0.3735  0.7728  0.0697
   11MOL    C6110281   3.092   5.491   1.862  0.3385 -0.0731 -0.0861
   11MOL    C6210282   3.018   5.483   1.986  0.7806  0.2325 -0.1811
   11MOL    N6310283   3.077   5.433   2.104  0.1957 -0.2067  0.2049
   11MOL    C6410284   3.018   5.426   2.228  0.3550  0.6862  0.1952
   11MOL    C6510285   2.899   5.361   2.247  0.6199 -0.3125  0.4829
   11MOL    C6610286   2.834   5.363   2.375 -0.1231  0.2265  0.3860
   11MOL    C6710287   2.895   5.431   2.484  0.6809  1.2489  0.1067
   11MOL    N6810288   2.834   5.435   2.609 -0.9342 -0.6946 -0.5324
   11MOL    C6910289   2.702   5.448   2.645 -0.0819 -0.5651 -0.0822
   11MOL    C7010290   2.599   5.449   2.553 -0.3205 -0.3904  0.4975
   11MOL    C7110291   2.467   5.455   2.593  0.3130 -0.1064 -0.3740
   11MOL    C7210292   2.434   5.461   2.726 -0.4457  0.3425  0.0647
   11MOL    C7310293   2.288   5.463   2.771 -0.0362 -0.9077  0.3563
   11MOL    C7410294   2.539   5.457   2.821 -0.3434  0.5582 -0.3601
   11MOL    C7510295   2.671   5.450   2.784  0.1265 -0.2090  0.5665
   11MOL    C7610296   3.017   5.498   2.461  0.4481  0.8848 -0.5964
   11MOL    C7710297   3.080   5.493   2.339 -0.7247  0.6455 -0.0400
   11MOL    C7810298   2.883   5.529   1.983  0.0145 -0.1223  0.0570
   11MOL    C7910299   2.822   5.588   1.865  0.2084  0.7049  0.7368
   11MOL    C8010300   2.833   5.811   1.444 -0.1759  0.2137  0.9347
   11MOL    C8110301   2.879   5.923   1.375 -0.1636  0.2905 -0.5578
   11MOL    H8210302   2.926   6.151   1.290  1.4750 -0.8362 -1.3191
   11MOL    H8310303   3.091   6.046   1.621  2.2341  1.1794 -2.5873
   11MOL    H8410304   3.026   5.836   1.721 -1.0343  0.3605  0.2526
   11MOL    H8510305   2.836   5.583   1.566 -0.0249  0.2959 -0.8208
   11MOL    H8610306   3.081   5.562   1.656 -1.6613  1.1856 -0.6184
   11MOL    H8710307   3.192   5.450   1.862  1.9022  3.5707  0.0639
   11MOL    H8810308   3.177   5.420   2.111  0.1851 -0.3175  0.1480
   11MOL    H8910309   2.851   5.308   2.166 -1.3205 -1.3069  2.2338
   11MOL    H9010310   2.742   5.310   2.391  0.3781 -0.8360 -0.1721
   11MOL    H9110311   2.898   5.452   2.685 -1.3906 -1.0768 -0.0608
   11MOL    H9210312   2.611   5.458   2.446  0.3613  0.8085  0.6627
   11MOL    H9310313   2.389   5.454   2.518  1.0049  1.3409 -1.1452
   11MOL    H9410314   2.258   5.358   2.781  0.2890 -1.3733 -2.9762
   11MOL    H9510315   2.229   5.495   2.685 -1.6082 -0.7338  1.4613
   11MOL    H9610316   2.522   5.465   2.927 -2.4062  2.1114 -0.7806
   11MOL    H9710317   2.758   5.448   2.848  0.6802  1.2560 -0.1130
   11MOL    H9810318   3.060   5.557   2.540 -0.1507  3.6217 -2.2734
   11MOL    H9910319   3.169   5.550   2.318 -0.5045  0.2305 -0.2438
   11MOL   H10010320   2.829   5.509   2.074  0.3285 -0.3660  0.1915
   11MOL   H10110321   2.719   5.617   1.880  0.0255 -0.1226  1.0470
   11MOL   H10210322   2.749   5.752   1.410  0.2697 -0.3099  0.7417
   11MOL   H10310323   2.835   5.936   1.277 -0.5389 -0.9807 -0.5651
   11MOL   N10410324   2.256   5.538   2.888  0.4627 -0.0665 -0.6632
   11MOL   C10510325   2.273   5.677   2.908  0.1863  0.2033  0.1260
   11MOL   C10610326   2.256   5.740   3.032  1.1847 -0.7214 -0.7318
   11MOL   C10710327   2.276   5.881   3.044  0.1284 -0.2779 -0.4620
   11MOL   C10810328   2.309   5.965   2.938  0.4255 -0.7864 -0.6657
   11MOL   N10910329   2.325   6.101   2.946 -0.1079  0.4695 -0.3020
   11MOL   C11010330   2.333   6.187   2.842  0.3021  0.5565 -0.4979
   11MOL   C11110331   2.225   6.208   2.752 -0.2486 -0.5314 -0.2407
   11MOL   C11210332   2.238   6.292   2.643  0.0027 -0.1341 -0.0733
   11MOL   C11310333   2.365   6.347   2.609 -0.8656 -0.7082  0.0309
   11MOL   N11410334   2.399   6.410   2.487  0.3334  0.3316 -0.7268
   11MOL   C11510335   2.330   6.395   2.368  0.2052 -0.2641 -0.7747
   11MOL   C11610336   2.398   6.341   2.253 -0.5112 -0.3238  0.5509
   11MOL   C11710337   2.325   6.340   2.132 -0.6556  0.2916 -0.3122
   11MOL   C11810338   2.188   6.379   2.116 -0.2298 -0.4746  0.8966
   11MOL   N11910339   2.139   6.376   1.987 -0.5413 -0.4880 -0.8110
   11MOL   C12010340   2.072   6.480   1.918 -0.4934  0.1600  0.2580
   11MOL   C12110341   2.021   6.597   1.978 -0.6863  0.4102  0.2784
   11MOL   C12210342   1.962   6.697   1.895  0.6040 -0.1680 -0.0925
   11MOL   C12310343   1.933   6.670   1.757 -0.7829  0.6997  0.7967
   11MOL   C12410344   1.839   6.777   1.689  0.3403 -0.2646  0.5875
   11MOL   C12510345   1.988   6.558   1.695 -0.3108  0.6299  0.1231
   11MOL   C12610346   2.064   6.468   1.776  0.3083  0.4721  0.2151
   11MOL   C12710347   2.126   6.430   2.235 -0.2908 -0.1617  0.2945
   11MOL   C12810348   2.196   6.441   2.354  0.2209  0.0871  0.0477
   11MOL   C12910349   2.471   6.327   2.702  0.3280 -0.4757  0.0901
   11MOL   C13010350   2.454   6.247   2.819  0.3972 -0.5332 -0.1872
   11MOL   C13110351   2.316   5.903   2.814  0.2760 -0.3180 -0.8088
   11MOL   C13210352   2.298   5.762   2.799 -0.0202  0.7780  0.3257
   11MOL   H13310353   2.267   5.496   2.979  2.4803  0.2930 -0.7000
   11MOL   H13410354   2.232   5.683   3.120  0.4110 -2.3045 -1.9284
   11MOL   H13510355   2.290   5.924   3.142  0.8408 -0.0771 -0.6566
   11MOL   H13610356   2.384   6.133   3.021 -2.4219 -1.0217  2.2829
   11MOL   H13710357   2.127   6.166   2.766  0.1037 -1.4672 -0.5583
   11MOL   H13810358   2.146   6.315   2.591 -0.6149 -0.3823  0.9019
   11MOL   H13910359   2.500   6.417   2.481  0.2835 -0.8959 -3.4732
   11MOL   H14010360   2.504   6.321   2.250 -0.6087 -0.9287  0.9485
   11MOL   H14110361   2.383   6.294   2.054 -1.6044 -1.3710 -0.0652
   11MOL   H14210362   2.181   6.313   1.920  1.1119 -1.7249  1.3056
   11MOL   H14310363   2.028   6.621   2.083  1.1643  1.6223 -0.0963
   11MOL   H14410364   1.925   6.789   1.937 -1.6271 -0.5521 -1.1743
   11MOL   H14510365   1.895   6.869   1.709 -2.0435  1.0103  1.6157
   11MOL   H14610366   1.743   6.789   1.740  0.9011 -0.2090  1.6518
   11MOL   H14710367   1.958   6.532   1.595  1.7537 -1.0813 -0.0774
   11MOL   H14810368   2.107   6.388   1.718 -0.2457  0.1598  0.2352
   11MOL   H14910369   2.026   6.472   2.226  0.0394  0.9766  1.8178
   11MOL   H15010370   2.145   6.490   2.435 -0.1703 -1.4076  0.7073
   11MOL   H15110371   2.565   6.377   2.684  0.8890 -0.8827  1.7969
   11MOL   H15210372   2.539   6.229   2.882 -0.3908 -0.2027  0.9767
   11MOL   H15310373   2.338   5.968   2.731  2.6168 -0.0090  0.0434
   11MOL   H15410374   2.313   5.719   2.701  2.3024  0.3805  0.8485
   11MOL   N15510375   1.824   6.771   1.543  0.1611  0.4927 -0.0666
   11MOL   C15610376   1.771   6.879   1.466  0.9305  0.0713  0.2460
   11MOL   C15710377   1.737   6.845   1.331 -0.8968  0.3424 -0.3810
   11MOL   C15810378   1.670   6.935   1.250 -0.2812 -0.1041  0.0654
   11MOL   C15910379   1.632   7.065   1.300 -0.9360 -0.1505  0.5492
   11MOL   N16010380   1.572   7.172   1.226  0.2220 -0.3569  0.2765
   11MOL   C16110381   1.610   7.213   1.098  0.2621 -0.0991 -0.1660
   11MOL   C16210382   1.722   7.160   1.031  0.3044 -0.3785 -0.2386
   11MOL   C16310383   1.764   7.215   0.908  0.4201  1.0163  0.6825
   11MOL   C16410384   1.683   7.311   0.843  0.2254 -0.9245 -0.2625
   11MOL   N16510385   1.739   7.369   0.728 -0.1700  0.3876 -0.4192
   11MOL   C16610386   1.734   7.502   0.690 -0.1970 -0.5150 -0.2411
   11MOL   C16710387   1.853   7.571   0.668  1.0022 -0.7535 -0.3905
   11MOL   C16810388   1.848   7.706   0.626 -0.4293 -0.4393 -0.4731
   11MOL   C16910389   1.723   7.777   0.619  0.6114 -0.0251  0.2207
   11MOL   N17010390   1.716   7.907   0.582  0.3541  0.7615 -0.3360
   11MOL   C17110391   1.808   7.977   0.510  0.0568 -0.3972 -0.2164
   11MOL   C17210392   1.818   0.128   0.543  0.2579 -0.6442  0.1589
   11MOL   C17310393   1.909   0.208   0.473 -1.0461 -0.4010  0.9433
   11MOL   C17410394   1.976   0.152   0.354  0.1056  0.0147 -0.8134
   11MOL   C17510395   2.076   0.248   0.283  1.0146  0.6013  0.3206
   11MOL   C17610396   1.958   0.019   0.315 -0.4225  0.2692  0.2628
   11MOL   C17710397   1.871   7.923   0.395 -0.1531 -0.0576 -0.1706
   11MOL   C17810398   1.604   7.702   0.637  0.4448  0.8384  0.3286
   11MOL   C17910399   1.607   7.562   0.667  0.1771 -0.2650 -0.4114
   11MOL   C18010400   1.569   7.367   0.913 -0.2983  0.2371  0.7052
   11MOL   C18110401   1.537   7.322   1.044 -0.9600 -0.6867 -0.2052
   11MOL   C18210402   1.666   7.097   1.432  0.0325 -0.1309 -0.9816
   11MOL   C18310403   1.733   7.006   1.516  0.3463  0.5535  0.7097
   11MOL   H18410404   1.838   6.679   1.503 -3.3224  0.2493 -0.9346
   11MOL   H18510405   1.756   6.745   1.296  1.7893  0.8538 -0.4766
   11MOL   H18610406   1.646   6.908   1.148  0.1307  1.2255 -0.3896
   11MOL   H18710407   1.506   7.234   1.273 -1.4212 -2.4350  0.7740
   11MOL   H18810408   1.798   7.093   1.070  1.4300  0.4504 -0.9438
   11MOL   H18910409   1.856   7.183   0.862 -1.0819  0.0513 -1.7544
   11MOL   H19010410   1.830   7.327   0.715 -0.9214 -1.0052 -1.2360
   11MOL   H19110411   1.954   7.534   0.679  0.9111 -0.6895  0.6395
   11MOL   H19210412   1.943   7.754   0.606  1.2729 -2.2169  2.9159
   11MOL   H19310413   1.624   7.948   0.592  1.1343  3.3037 -2.8261
   11MOL   H19410414   1.758   0.173   0.620 -0.2940  0.7787 -1.0654
   11MOL   H19510415   1.937   0.309   0.495  0.6970 -0.7024  0.2301
   11MOL   H19610416   2.120   0.201   0.195 -0.9627 -0.6267 -0.0572
   11MOL   H19710417   2.159   0.262   0.351  0.8285  2.4649  0.1944
   11MOL   H19810418   2.025   7.965   0.238 -0.3580  0.3970  0.2595
   11MOL   H19910419   1.846   7.819   0.377 -1.4785 -0.3434  2.9462
   11MOL   H20010420   1.509   7.753   0.635  0.2440  0.4451 -0.4086
   11MOL   H20110421   1.518   7.501   0.675  0.3667 -0.7241 -1.6926
   11MOL   H20210422   1.523   7.456   0.874  2.4131  1.2401 -0.3295
   11MOL   H20310423   1.467   7.379   1.102 -0.0645  0.4763 -0.2604
   11MOL   H20410424   1.632   7.191   1.472  0.2950 -0.8022  0.8738
   11MOL   H20510425   1.748   7.030   1.620  1.7896  1.3854  0.3256
   11MOL   N20610426   2.030   0.382   0.256  0.5441  0.3380 -0.5776
   11MOL   C20710427   1.941   0.412   0.155  0.0896 -0.2018  0.0556
   11MOL   C20810428   1.880   0.314   0.078  0.4337  0.4344  0.0889
   11MOL   C20910429   1.794   0.348   7.947  0.2979  0.0752 -0.2168
   11MOL   C21010430   1.760   0.484   7.930 -0.1585 -1.2113  0.6701
   11MOL   N21110431   1.671   0.538   7.832  0.0550  0.4219  0.1521
   11MOL   C21210432   1.553   0.614   7.849  0.2598  0.2606 -0.1562
   11MOL   C21310433   1.486   0.617   7.972 -0.5152 -0.6870 -0.4668
   11MOL   C21410434   1.368   0.686   0.011  0.1783  0.4209 -0.4298
   11MOL   C21510435   1.316   0.768   7.892 -0.0671  0.2145  0.5784
   11MOL   N21610436   1.198   0.835   7.912  0.5812 -0.2291 -0.1106
   11MOL   C21710437   1.166   0.906   0.049 -0.0329 -0.3987 -0.2260
   11MOL   C21810438   1.032   0.926   0.084  0.2002 -0.0992  0.0646
   11MOL   C21910439   0.995   1.004   0.199  0.5485 -0.0177  0.2870
   11MOL   C22010440   1.098   1.058   0.280 -0.2322  0.2529 -0.0956
   11MOL   N22110441   1.068   1.142   0.384 -0.0441  0.0802  0.1063
   11MOL   C22210442   1.084   1.285   0.381 -0.2410  0.4325  0.1914
   11MOL   C22310443   1.066   1.351   0.264 -0.4370 -0.3469 -0.0407
   11MOL   C22410444   1.082   1.491   0.272 -0.4718  0.5598 -0.0258
   11MOL   C22510445   1.117   1.559   0.394 -1.0651 -0.0253 -0.0230
   11MOL   C22610446   1.158   1.704   0.394  0.4984 -0.4742  0.2042
   11MOL   C22710447   1.139   1.484   0.513 -0.1580 -0.0572  0.7790
   11MOL   C22810448   1.123   1.347   0.503  0.0760  0.6632  0.5797
   11MOL   C22910449   1.233   1.041   0.245  0.5654  0.0651  0.1315
   11MOL   C23010450   1.265   0.964   0.135  0.2393 -0.8920  0.3826
   11MOL   C23110451   1.374   0.762   7.764 -0.0308  0.8572  0.7334
   11MOL   C23210452   1.495   0.691   7.740 -0.0880  0.1287  0.6087
   11MOL   C23310453   1.832   0.573   0.022 -0.2246 -0.3112 -0.3263
   11MOL   C23410454   1.923   0.542   0.126 -0.4501 -0.0021  0.4077
   11MOL   H23510455   2.079   0.457   0.302  0.6502  0.7537 -1.3528
   11MOL   H23610456   1.897   0.208   0.091 -2.0621 -0.1818 -1.1478
   11MOL   H23710457   1.750   0.277   7.879  1.3271  0.1460 -0.9684
   11MOL   H23810458   1.721   0.547   7.745 -0.0584  0.1715  0.0594
   11MOL   H23910459   1.542   0.580   0.075 -0.5664  0.5316  0.1075
   11MOL   H24010460   1.325   0.687   0.111  0.3850  1.7733 -0.3470
   11MOL   H24110461   1.122   0.828   7.845 -0.4055  1.0263  0.8427
   11MOL   H24210462   0.951   0.887   0.024  1.3190 -3.1271  0.4430
   11MOL   H24310463   0.893   1.028   0.224 -0.6235 -4.2796 -0.0801
   11MOL   H24410464   1.115   1.118   0.470  1.7758 -0.9955 -1.1441
   11MOL   H24510465   1.024   1.306   0.175 -2.2128 -0.8726  1.0318
   11MOL   H24610466   1.070   1.556   0.186 -1.4086  2.5518  1.5541
   11MOL   H24710467   1.128   1.758   0.304 -0.2371 -0.2481  0.5853
   11MOL   H24810468   1.267   1.713   0.392  0.3727  1.0663 -0.1273
   11MOL   H24910469   1.184   1.539   0.594  2.7296  0.6090 -1.1629
   11MOL   H25010470   1.148   1.290   0.591  3.6271  1.6359  0.2772
   11MOL   H25110471   1.323   1.070   0.298  0.1651 -0.4754  1.1242
   11MOL   H25210472   1.369   0.955   0.105  0.6168 -2.2018  2.0413
   11MOL   H25310473   1.328   0.814   7.681 -3.0551 -1.4417  0.8771
   11MOL   H25410474   1.531   0.689   7.638  2.1918 -0.9679  1.3902
   11MOL   H25510475   1.822   0.679   0.005 -0.5268 -0.0801  1.2636
   11MOL   H25610476   1.965   0.625   0.180 -0.5211 -1.4519  2.7388
   11MOL   N25710477   1.122   1.789   0.510 -0.4329 -0.0558 -0.5188
   11MOL   C25810478   0.999   1.849   0.533  0.1071 -0.5050  1.2479
   11MOL   C25910479   0.982   1.948   0.637  0.0562 -0.2759 -0.0387
   11MOL   C26010480   0.861   2.020   0.651 -0.2448  0.1992  1.0228
   11MOL   C26110481   0.757   1.999   0.555 -0.3028 -0.2156 -0.5248
   11MOL   N26210482   0.633   2.067   0.562 -0.0125 -0.2565  0.0629
   11MOL   C26310483   0.542   2.089   0.464 -0.7192 -0.4065  0.8209
   11MOL   C26410484   0.576   2.103   0.329  0.2307 -0.8090 -0.4337
   11MOL   C26510485   0.477   2.139   0.236 -0.2438 -0.8262 -0.4610
   11MOL   C26610486   0.346   2.158   0.278 -0.1037  0.4184  0.1428
   11MOL   N26710487   0.253   2.209   0.191  0.8731  0.2355  0.3263
   11MOL   C26810488   0.235   2.189   0.056 -0.0737  0.4398 -0.0448
   11MOL   C26910489   0.286   2.077   7.967  0.5688  0.0665 -0.6245
   11MOL   C27010490   0.265   2.058   7.834  1.0848  0.6037 -0.0274
   11MOL   C27110491   0.196   2.150   7.756  0.4350  0.3138  0.3828
   11MOL   N27210492   0.178   2.133   7.620 -0.0132 -0.4749  0.0442
   11MOL   C27310493   0.270   2.110   7.515 -0.7361 -0.1504  0.6098
   11MOL   C27410494   0.221   2.069   7.385  0.0201 -0.0187  0.5300
   11MOL   C27510495   0.316   2.036   7.283  0.8846  0.1321 -0.2354
   11MOL   C27610496   0.453   2.047   7.305 -1.4196  0.0805  0.2675
   11MOL   C27710497   0.557   2.014   7.199 -0.6932 -0.5241  0.0457
   11MOL   C27810498   0.503   2.091   7.431 -0.1002 -0.3644  0.4266
   11MOL   C27910499   0.409   2.123   7.536 -0.3643  0.4368 -0.1801
   11MOL   C28010500   0.128   2.252   7.829  0.1963 -0.0061  0.4301
   11MOL   C28110501   0.151   2.274   7.964 -0.3095  0.2654 -0.0336
   11MOL   C28210502   0.311   2.154   0.407  0.2348  0.3570  0.0455
   11MOL   C28310503   0.407   2.117   0.500 -1.5194  0.0450  0.0972
   11MOL   C28410504   0.776   1.902   0.453 -0.1828  1.2221  0.4071
   11MOL   C28510505   0.895   1.831   0.439 -0.3556  0.3808 -0.1117
   11MOL   H28610506   1.193   1.806   0.580 -2.2037  1.8710  0.8897
   11MOL   H28710507   1.062   1.976   0.704 -1.2824  2.7463  0.4132
   11MOL   H28810508   0.844   2.107   0.713 -0.8266  0.7822  0.0625
   11MOL   H28910509   0.605   2.079   0.658  3.2253 -0.3920  1.0982
   11MOL   H29010510   0.680   2.090   0.302  1.3963  1.4492  2.7184
   11MOL   H29110511   0.511   2.153   0.134  1.1771  0.1071  0.1300
   11MOL   H29210512   0.192   2.279   0.230 -0.5148 -1.1519  0.7135
   11MOL   H29310513   0.357   2.011   0.031 -0.5218  0.8546  2.3168
   11MOL   H29410514   0.319   1.983   7.779  1.4886 -1.1245  2.5865
   11MOL   H29510515   0.083   2.149   7.591  0.0210  0.3990  0.4316
   11MOL   H29610516   0.115   2.062   7.365  0.1871  1.2762 -0.9072
   11MOL   H29710517   0.284   2.002   7.185 -0.9542  4.2223 -1.1768
   11MOL   H29810518   0.616   1.925   7.219 -1.6265 -1.6851 -2.1587
   11MOL   H29910519   0.630   2.095   7.197  0.2301 -1.3317  0.8889
   11MOL   H30010520   0.603   2.124   7.453 -0.4292  1.8273 -1.2240
   11MOL   H30110521   0.446   2.146   7.635 -0.8584 -2.3405  0.6931
   11MOL   H30210522   0.069   2.330   7.782  0.4993  0.5518  0.9702
   11MOL   H30310523   0.111   2.364   0.026 -1.4909 -0.0989 -0.3420
   11MOL   H30410524   0.211   2.176   0.443  0.2977 -1.4805  1.4216
   11MOL   H30510525   0.383   2.112   0.606 -1.3370  4.1603  0.4356
   11MOL   H30610526   0.700   1.887   0.378  0.9202  1.7468 -0.8287
   11MOL   H30710527   0.901   1.750   0.368 -0.3042 -0.0613  0.3903
   11MOL   N30810528   0.505   1.999   7.059 -0.3201 -0.1926  0.3021
   11MOL   C30910529   0.566   2.071   6.951  0.4755 -0.3146  0.1161
   11MOL   C31010530   0.623   2.200   6.975 -0.4959 -0.0707  0.5870
   11MOL   C31110531   0.676   2.275   6.871  0.5828 -0.3641  0.1713
   11MOL   C31210532   0.673   2.224   6.738 -0.5722 -0.6168  0.5531
   11MOL   N31310533   0.724   2.302   6.630  0.1824  0.1989  0.9139
   11MOL   C31410534   0.694   2.301   6.494  0.8927  0.0592  0.0233
   11MOL   C31510535   0.788   2.355   6.404  0.1099 -0.0491  0.5388
   11MOL   C31610536   0.759   2.364   6.268  0.2109 -0.4938 -0.0425
   11MOL   C31710537   0.642   2.305   6.213 -1.0970  0.0046 -0.7073
   11MOL   N31810538   0.615   2.293   6.075 -0.2926  0.5907 -0.2699
   11MOL   C31910539   0.514   2.218   6.009  0.7668 -0.8648 -0.2663
   11MOL   C32010540   0.418   2.284   5.920  0.2685 -0.2174  0.5707
   11MOL   C32110541   0.313   2.207   5.860 -0.5797 -0.1016  0.4137
   11MOL   C32210542   0.298   2.074   5.882  0.7819  0.1931  0.6206
   11MOL   N32310543   0.184   2.004   5.835  0.4538  0.0862  0.4511
   11MOL   C32410544   0.074   1.997   5.916 -0.7349  0.6303 -0.1356
   11MOL   C32510545   7.952   1.912   5.881  0.0966  0.0926 -0.2455
   11MOL   C32610546   7.839   1.897   5.968 -0.3878 -0.3293  0.6791
   11MOL   C32710547   7.828   1.972   6.091  0.1339  0.1405 -0.1017
   11MOL   C32810548   7.700   1.962   6.174  0.0664 -0.1105  0.1683
   11MOL   C32910549   7.930   2.057   6.120  0.1419  0.0149  0.0647
   11MOL   C33010550   0.058   2.066   6.035 -0.2915  0.0168  0.3458
   11MOL   C33110551   0.384   2.011   5.973  0.1022 -0.6550 -0.2096
   11MOL   C33210552   0.490   2.083   6.037  0.3522 -1.1085 -0.1797
   11MOL   C33310553   0.547   2.261   6.307  0.3432 -0.5783 -0.1966
   11MOL   C33410554   0.572   2.259   6.446  0.3994 -0.1772  0.6101
   11MOL   C33510555   0.633   2.093   6.715  0.5391  0.6042 -0.1687
   11MOL   C33610556   0.568   2.021   6.815 -0.3613 -0.6566 -0.3317
   11MOL   H33710557   0.482   1.904   7.033  1.2625 -0.5468  0.1343
   11MOL   H33810558   0.621   2.243   7.074  1.4247  0.2184  0.5248
   11MOL   H33910559   0.719   2.371   6.893  0.6123 -0.0707 -1.1065
   11MOL   H34010560   0.771   2.385   6.661 -0.6718  0.7615  0.7168
   11MOL   H34110561   0.882   2.382   6.450  0.0500 -1.6977  1.6916
   11MOL   H34210562   0.837   2.403   6.203  0.3594 -1.6117 -0.5570
   11MOL   H34310563   0.655   2.368   6.020 -1.1623  1.0315 -0.3058
   11MOL   H34410564   0.434   2.384   5.885 -1.3294  0.2056  1.0006
   11MOL   H34510565   0.254   2.251   5.781 -1.2247 -0.1069  0.8921
   11MOL   H34610566   0.206   1.918   5.786  1.8537 -0.0245  1.2599
   11MOL   H34710567   7.966   1.853   5.792  0.3717  1.0989 -0.8796
   11MOL   H34810568   7.760   1.833   5.932  0.8994 -0.6169 -1.7746
   11MOL   H34910569   7.680   1.856   6.159 -2.9433  0.3316  0.6333
   11MOL   H35010570   7.617   2.020   6.131  0.0942  1.7868  2.5874
   11MOL   H35110571   7.921   2.117   6.210  0.6111 -0.0907  0.1831
   11MOL   H35210572   0.132   2.133   6.076 -1.6837  1.2730  0.8692
   11MOL   H35310573   0.357   1.909   5.995 -1.9209 -0.6972 -2.7004
   11MOL   H35410574   0.558   2.041   6.110  0.7072 -0.1684  0.0462
   11MOL   H35510575   0.452   2.228   6.269 -0.2892  0.5270  0.3871
   11MOL   H35610576   0.499   2.218   6.515 -0.0360 -0.7824 -0.1984
   11MOL   H35710577   0.637   2.056   6.613 -1.2609 -0.2546  0.0661
   11MOL   H35810578   0.519   1.933   6.775  0.0243 -1.2505  0.4861
   11MOL   N35910579   7.720   2.005   6.312 -0.0459 -0.1689  0.8178
   11MOL   C36010580   7.670   1.913   6.404 -0.2609  0.8371 -0.4773
   11MOL   C36110581   7.597   1.970   6.511 -0.3817 -0.7447  0.4857
   11MOL   C36210582   7.554   1.894   6.616 -0.0464  0.1148  0.3226
   11MOL   C36310583   7.584   1.759   6.621  0.4129  0.8654  0.3705
   11MOL   N36410584   7.542   1.691   6.739  0.4241  0.1730 -0.4865
   11MOL   C36510585   7.546   1.551   6.759 -0.0567 -0.1460 -0.5510
   11MOL   C36610586   7.506   1.458   6.662 -0.3499 -0.3639  1.0243
   11MOL   C36710587   7.505   1.324   6.699 -0.6400 -0.5297  0.1892
   11MOL   C36810588   7.554   1.278   6.826  0.3743 -0.0152  0.8065
   11MOL   N36910589   7.553   1.147   6.866 -0.4873  0.3079  0.2461
   11MOL   C37010590   7.637   1.079   6.955  0.5624 -0.1408  0.6180
   11MOL   C37110591   7.583   0.966   7.022 -0.2423  0.2325  0.1269
   11MOL   C37210592   7.658   0.890   7.110 -0.3738  0.3104  0.4449
   11MOL   C37310593   7.792   0.932   7.146  0.8170 -0.6435 -0.2465
   11MOL   N37410594   7.869   0.870   7.246  0.5952 -0.1042 -0.1646
   11MOL   C37510595   7.804   0.801   7.346  0.3625 -0.0932  0.2888
   11MOL   C37610596   7.766   0.862   7.472 -0.6813  0.2359 -0.4801
   11MOL   C37710597   7.722   0.777   7.576 -0.6438 -0.3845  0.4898
   11MOL   C37810598   7.696   0.641   7.549  0.4132 -0.0423  0.2955
   11MOL   C37910599   7.647   0.554   7.666 -0.2736 -0.8623 -0.0421
   11MOL   C38010600   7.720   0.586   7.419  0.1421 -0.0019 -0.9894
   11MOL   C38110601   7.779   0.665   7.322  0.2905 -0.3968  0.1133
   11MOL   C38210602   7.850   1.038   7.071  0.2964 -0.4826 -0.4985
   11MOL   C38310603   7.767   1.117   6.987 -0.2473  0.4550  0.0793
   11MOL   C38410604   7.582   1.375   6.918  0.2540 -0.4811 -0.4281
   11MOL   C38510605   7.593   1.511   6.878  0.3395  0.9757  0.3480
   11MOL   C38610606   7.652   1.698   6.511 -0.3379 -0.3465 -0.4182
   11MOL   C38710607   7.699   1.780   6.405 -0.5665 -0.2405 -0.1845
   11MOL   H38810608   7.704   2.102   6.332  0.0143 -0.4312  2.2260
   11MOL   H38910609   7.578   2.076   6.506 -1.0812 -0.9023 -0.1157
   11MOL   H39010610   7.483   1.926   6.691 -0.7457  0.6615 -0.5560
   11MOL   H39110611   7.548   1.739   6.828 -1.9072 -1.0435  0.3655
   11MOL   H39210612   7.465   1.488   6.566 -1.3834 -0.1855  1.5087
   11MOL   H39310613   7.476   1.250   6.625 -0.5879 -0.7494  0.3868
   11MOL   H39410614   7.501   1.085   6.805  0.1951 -0.7215  0.6908
   11MOL   H39510615   7.482   0.934   7.004 -0.7863  1.7503  0.4378
   11MOL   H39610616   7.606   0.811   7.161 -1.9069 -0.0578 -1.6350
   11MOL   H39710617   7.925   0.947   7.279  1.1780 -0.8827  0.6894
   11MOL   H39810618   7.781   0.968   7.483 -0.2635 -0.0274  1.8716
   11MOL   H39910619   7.695   0.818   7.672 -3.0983  0.6847 -0.6394
   11MOL   H40010620   7.649   0.450   7.635 -1.7243 -1.3948  1.5867
   11MOL   H40110621   7.546   0.581   7.698 -0.1222 -2.0864  1.5243
   11MOL   H40210622   7.701   0.480   7.408  0.0301  0.0602 -1.3935
   11MOL   H40310623   7.801   0.622   7.226  0.3889  1.2742 -0.6308
   11MOL   H40410624   7.956   1.050   7.087  0.3617 -2.7853  1.0007
   11MOL   H40510625   7.815   1.192   6.925  0.9153  0.1101  0.5508
   11MOL   H40610626   7.601   1.335   7.017 -0.6918 -0.4819 -0.2380
   11MOL   H40710627   7.633   1.576   6.955  1.0655 -1.9925  2.5644
   11MOL   H40810628   7.682   1.594   6.514  1.6973  0.2374  0.3906
   11MOL   H40910629   7.759   1.732   6.329  0.1453  0.2739  0.0527
   11MOL   N41010630   7.735   0.565   7.778  0.3596  0.1283 -0.0261
   11MOL   C41110631   7.684   0.623   7.892  1.2312  0.1997  0.0364
   11MOL   C41210632   7.574   0.557   7.950  0.4465  0.4901 -0.0197
   11MOL   C41310633   7.527   0.610   0.086 -0.2082 -0.2265 -0.2269
   11MOL   C41410634   7.556   0.748   0.124  0.3555  0.3219 -0.1138
   11MOL   N41510635   7.485   0.793   0.235 -0.4273 -0.0210  0.0823
   11MOL   C41610636   7.532   0.880   0.335 -0.4002  1.1856 -0.2768
   11MOL   C41710637   7.446   0.954   0.411 -0.4118 -0.8306 -0.2836
   11MOL   C41810638   7.484   1.055   0.505  0.3092  0.2096  0.1407
   11MOL   C41910639   7.616   1.068   0.536 -0.2379 -0.5974  0.1892
   11MOL   N42010640   7.652   1.160   0.635  0.4464  0.8560  0.3648
   11MOL   C42110641   7.784   1.182   0.677  0.9401 -0.4061  0.2480
   11MOL   C42210642   7.836   1.084   0.765  0.1360  0.3497 -0.3184
   11MOL   C42310643   7.968   1.104   0.814  0.5969  0.2346 -0.2705
   11MOL   C42410644   0.059   1.216   0.762 -0.1786  0.7818 -0.2689
   11MOL   N42510645   0.186   1.242   0.811  0.2519 -0.4723 -0.0704
   11MOL   C42610646   0.272   1.170   0.899 -0.2073 -0.3590 -0.0437
   11MOL   C42710647   0.346   1.240   0.994 -0.3422  0.7545  0.1861
   11MOL   C42810648   0.429   1.179   1.087 -0.0803  0.1228  0.0222
   11MOL   C42910649   0.438   1.038   1.092  0.0854 -0.1724 -0.6144
   11MOL   C43010650   0.524   0.965   1.186  0.2424  0.2816  0.1607
   11MOL   C43110651   0.360   0.963   1.000  0.7645  0.4121  0.1828
   11MOL   C43210652   0.286   1.030   0.905  0.4468 -0.1727 -0.0369
   11MOL   C43310653   0.010   1.300   0.665 -0.1904  0.0742  0.0941
   11MOL   C43410654   7.858   1.281   0.620  0.1271  0.2730 -0.1142
   11MOL   C43510655   7.712   0.985   0.471  0.1689 -0.3312  0.3813
   11MOL   C43610656   7.667   0.889   0.373 -0.2601  0.0667 -0.0278
   11MOL   C43710657   7.664   0.808   0.067 -0.6865  0.1215  0.6797
   11MOL   C43810658   7.727   0.747   7.942 -0.1491 -0.7310 -0.3103
   11MOL   H43910659   7.818   0.616   7.755 -0.4415  1.3153 -0.3113
   11MOL   H44010660   7.527   0.465   7.919  1.0236  0.1061  0.2551
   11MOL   H44110661   7.447   0.562   0.141 -0.8683  0.8920 -0.1770
   11MOL   H44210662   7.398   0.745   0.252  0.1850 -0.8815  0.8613
   11MOL   H44310663   7.340   0.946   0.397 -0.3460  0.6218 -1.6757
   11MOL   H44410664   7.409   1.111   0.560  0.7943 -0.0637  1.0804
   11MOL   H44510665   7.592   1.241   0.629 -0.8419 -0.2111 -2.6521
   11MOL   H44610666   7.786   0.993   0.797 -1.0451  0.8459 -0.7378
   11MOL   H44710667   0.033   1.030   0.877 -1.4061 -0.6835  0.2124
   11MOL   H44810668   0.229   1.327   0.777  0.7557 -0.7444 -0.1192
   11MOL   H44910669   0.331   1.347   0.990 -0.3989  0.7476  0.2232
   11MOL   H45010670   0.492   1.235   1.155 -0.3984  0.4337  0.0600
   11MOL   H45110671   0.558   0.867   1.152 -0.6053 -0.6979  2.0455
   11MOL   H45210672   0.468   0.946   1.278 -1.3529  1.2910 -0.5794
   11MOL   H45310673   0.373   0.855   0.997 -1.6261  0.1166 -0.8506
   11MOL   H45410674   0.244   0.969   0.826  0.2907  0.0210 -0.1029
   11MOL   H45510675   0.072   1.386   0.647  0.1713  0.0771  1.3048
   11MOL   H45610676   7.823   1.353   0.548 -0.5071 -1.8376 -1.9575
   11MOL   H45710677   7.815   0.983   0.501  0.1889 -1.2052  0.2707
   11MOL   H45810678   7.745   0.827   0.332 -0.3563  1.5437 -2.5109
   11MOL   H45910679   7.697   0.904   0.102 -2.6923  1.5995 -1.3159
   11MOL   H46010680   7.803   0.803   7.888  0.2850  0.4487  1.4731
   11MOL   N46110681   0.645   1.033   1.225  0.4386 -0.5643 -0.1067
   11MOL   C46210682   0.776   0.981   1.249 -0.4168 -0.8998  0.0577
   11MOL   C46310683   0.807   0.850   1.233  0.1334  0.1130 -0.2897
   11MOL   C46410684   0.944   0.813   1.245 -0.2672  0.3314  0.2075
   11MOL   C46510685   1.050   0.905   1.270 -0.1493 -0.1148 -0.6855
   11MOL   N46610686   1.183   0.852   1.279  0.2910  0.1480  0.2781
   11MOL   C46710687   1.309   0.911   1.281 -0.3448 -0.1557  0.7402
   11MOL   C46810688   1.335   1.027   1.203 -0.0943 -0.1743  0.2109
   11MOL   C46910689   1.465   1.079   1.211 -0.1893  0.1382  0.6013
   11MOL   C47010690   1.568   1.021   1.294 -0.5554 -0.3829 -0.2485
   11MOL   N47110691   1.697   1.075   1.300  0.3852  0.2276  0.9288
   11MOL   C47210692   1.735   1.210   1.286 -0.8495  0.5859  0.1832
   11MOL   C47310693   1.872   1.227   1.253 -0.6796  0.1107 -0.4786
   11MOL   C47410694   1.930   1.358   1.246  0.6247 -0.1493  0.8597
   11MOL   C47510695   1.837   1.468   1.275 -0.0480 -0.4955 -0.1568
   11MOL   N47610696   1.886   1.597   1.281  0.0696  0.5448 -0.1560
   11MOL   C47710697   1.859   1.691   1.174 -0.2648  0.1423 -0.1511
   11MOL   C47810698   1.747   1.672   1.082 -0.6272  0.0526 -0.2653
   11MOL   C47910699   1.735   1.765   0.975 -0.5115  0.7775  0.3254
   11MOL   C48010700   1.818   1.880   0.958 -0.1539  0.2855  0.4627
   11MOL   C48110701   1.804   1.970   0.842  0.4189  0.3988 -0.0827
   11MOL   C48210702   1.923   1.897   1.051 -0.0985  0.3840 -0.5079
   11MOL   C48310703   1.941   1.804   1.153  0.5127  0.5341  0.1174
   11MOL   C48410704   1.704   1.443   1.317  0.1305 -0.5025 -0.6864
   11MOL   C48510705   1.657   1.314   1.329 -0.4476 -0.3089 -0.8807
   11MOL   C48610706   1.537   0.909   1.369 -0.3703  0.2863 -0.4913
   11MOL   C48710707   1.408   0.848   1.361 -0.1424 -0.0930  0.0407
   11MOL   C48810708   1.017   1.043   1.294  0.1263 -0.0572  0.0931
   11MOL   C48910709   0.882   1.078   1.274 -0.0865  0.2334  0.0664
   11MOL   H49010710   0.641   1.127   1.261 -0.4146 -1.3591  1.9078
   11MOL   H49110711   0.737   0.773   1.206 -1.3387  1.2387  0.2269
   11MOL   H49210712   0.966   0.708   1.231  0.4046  0.6244 -0.9466
   11MOL   H49310713   1.182   0.751   1.271  2.2853  0.0524  1.0482
   11MOL   H49410714   1.258   1.080   1.148 -0.4148 -1.4607 -0.6232
   11MOL   H49510715   1.489   1.165   1.149  0.6151 -0.4084  0.1477
   11MOL   H49610716   1.769   1.004   1.294 -0.5587 -0.6371 -0.2496
   11MOL   H49710717   1.943   1.150   1.225 -1.5737 -1.3971  1.2857
   11MOL   H49810718   2.037   1.368   1.235  0.6661  0.7141  2.0103
   11MOL   H49910719   1.974   1.607   1.328  0.7032  0.5456 -1.3202
   11MOL   H50010720   1.679   1.589   1.099 -0.5996 -0.0915 -0.8452
   11MOL   H50110721   1.656   1.760   0.902 -0.5748 -1.3636  0.4994
   11MOL   H50210722   1.696   1.980   0.836  0.2642 -0.5480  0.8960
   11MOL   H50310723   1.855   1.929   0.755 -0.1557 -1.9782  0.6761
   11MOL   H50410724   1.990   1.982   1.043  1.0048 -0.5314 -0.9971
   11MOL   H50510725   2.036   1.819   1.201  0.9226 -1.6244  0.0501
   11MOL   H50610726   1.634   1.522   1.341  1.8451  0.8594 -0.1158
   11MOL   H50710727   1.557   1.300   1.368 -0.1667  0.0395 -0.0375
   11MOL   H50810728   1.618   0.872   1.430 -1.0848 -0.7504 -0.1387
   11MOL   H50910729   1.373   0.760   1.413 -0.7363 -0.7655 -1.4759
   11MOL   H51010730   1.087   1.122   1.321 -0.4617  0.2939  0.5970
   11MOL   H51110731   0.848   1.179   1.296  2.8524  1.3527 -0.2322
   11MOL   N51210732   1.863   2.102   0.861 -0.1554 -0.1540 -0.3512
   11MOL   C51310733   1.805   2.211   0.799 -0.6957  0.9854  0.0768
   11MOL   C51410734   1.888   2.319   0.776  0.0308  0.1629 -0.7642
   11MOL   C51510735   1.830   2.430   0.712  0.2777  0.0498 -0.1896
   11MOL   C51610736   1.701   2.433   0.649  0.0589  0.0712  0.2016
   11MOL   N51710737   1.668   2.539   0.568 -0.1685 -0.6922 -0.4017
   11MOL   C51810738   1.547   2.570   0.502 -0.0956  0.8490 -0.8137
   11MOL   C51910739   1.432   2.545   0.576  0.4626  0.1025  0.1947
   11MOL   C52010740   1.302   2.562   0.515  0.8549 -0.4506  0.1839
   11MOL   C52110741   1.297   2.615   0.383  0.0133  0.5171  0.6457
   11MOL   N52210742   1.178   2.626   0.310  0.1607  0.8551 -0.5860
   11MOL   C52310743   1.131   2.732   0.233  0.2910  0.3214 -0.0611
   11MOL   C52410744   1.185   2.861   0.251  0.5452  0.7695  0.7217
   11MOL   C52510745   1.128   2.971   0.183  0.1175  1.3162  0.4568
   11MOL   C52610746   1.032   2.946   0.083 -0.0945  0.4683  0.1721
   11MOL   N52710747   0.981   3.054   0.017 -0.3901  0.3423 -0.6687
   11MOL   C52810748   0.896   3.038   7.892 -0.4864  0.1142  1.0303
   11MOL   C52910749   0.773   2.977   7.914  0.0901  0.3822  0.0164
   11MOL   C53010750   0.681   2.966   7.810  0.4320 -0.7484 -0.6293
   11MOL   C53110751   0.706   3.002   7.678 -0.0950 -0.0687  0.6594
   11MOL   C53210752   0.604   2.987   7.566 -0.4587 -0.2939  0.5016
   11MOL   C53310753   0.832   3.060   7.647  0.2115  0.7160 -0.0655
   11MOL   C53410754   0.921   3.084   7.761  0.0946 -0.4703  0.3543
   11MOL   C53510755   0.986   2.812   0.067  0.2279  0.4022 -0.1618
   11MOL   C53610756   1.029   2.704   0.145 -0.7705  0.4364 -0.1992
   11MOL   C53710757   1.418   2.656   0.315  0.7496 -0.0834  0.3904
   11MOL   C53810758   1.544   2.625   0.376 -0.1988  0.0984  0.2587
   11MOL   C53910759   1.615   2.321   0.674 -0.1914  0.1889 -0.6993
   11MOL   C54010760   1.669   2.211   0.745 -0.2306 -0.2357 -0.3129
   11MOL   H54110761   1.960   2.109   0.886 -0.3269 -0.5295  0.4364
   11MOL   H54210762   1.985   2.315   0.824  0.3054 -0.6672 -1.3679
   11MOL   H54310763   1.900   2.512   0.710  1.6271 -1.0591  0.6549
   11MOL   H54410764   1.752   2.589   0.541 -1.6973  2.6924  0.8670
   11MOL   H54510765   1.440   2.511   0.678 -3.1024  0.3752  0.6251
   11MOL   H54610766   1.211   2.535   0.567 -0.7274  2.7254 -0.8033
   11MOL   H54710767   1.110   2.554   0.331  1.1776  0.0439 -0.0244
   11MOL   H54810768   1.268   2.874   0.318  1.9669 -1.7276 -0.4779
   11MOL   H54910769   1.169   3.070   0.193  1.5535  0.9992 -1.8287
   11MOL   H55010770   1.038   3.136   0.004  0.1945  0.2906  1.4108
   11MOL   H55110771   0.739   2.962   0.034  1.6404 -2.2130  0.1884
   11MOL   H55210772   0.577   2.947   7.832  0.3903 -1.8612 -1.7513
   11MOL   H55310773   0.592   2.880   7.546  0.0778 -0.3346  0.3948
   11MOL   H55410774   0.644   3.035   7.477 -0.4239 -0.4789  0.4170
   11MOL   H55510775   0.853   3.098   7.548 -3.2245  0.8608 -0.7888
   11MOL   H55610776   1.010   3.143   7.742  0.7303 -0.9178  1.8519
   11MOL   H55710777   0.903   2.791   0.000 -0.5732  1.9650  0.3048
   11MOL   H55810778   0.988   2.606   0.129  0.4996  0.2563 -2.5793
   11MOL   H55910779   1.415   2.698   0.216  1.7555  1.7084  1.0980
   11MOL   H56010780   1.639   2.638   0.326  0.3098 -1.5183  0.7836
   11MOL   H56110781   1.518   2.313   0.628 -2.4076  1.1131  3.6226
   11MOL   H56210782   1.601   2.128   0.759  2.2145 -2.3593 -0.5180
   11MOL   N56310783   0.471   3.028   7.599  0.1045 -0.8608 -0.5285
   11MOL   C56410784   0.367   2.991   7.522 -0.3872  0.1290  0.2323
   11MOL   C56510785   0.378   2.999   7.381  0.2242  0.0762  0.3465
   11MOL   C56610786   0.270   2.941   7.310 -0.2732  0.1593 -0.3101
   11MOL   C56710787   0.155   2.894   7.377  0.2533 -0.7356 -0.2235
   11MOL   N56810788   0.044   2.844   7.311  0.5316  0.0491  0.0628
   11MOL   C56910789   7.937   2.917   7.231  0.4116 -0.1990 -0.4248
   11MOL   C57010790   7.963   3.054   7.195  0.4346  0.0568  0.3733
   11MOL   C57110791   7.874   3.117   7.110  0.5674 -0.6283 -0.2316
   11MOL   C57210792   7.763   3.049   7.060  0.8333  0.8045  0.0095
   11MOL   N57310793   7.680   3.110   6.965 -0.6654  0.4372  0.1357
   11MOL   C57410794   7.612   3.058   6.852 -0.2683  0.7866 -0.8300
   11MOL   C57510795   7.656   2.941   6.796 -0.1945 -0.8252 -0.4256
   11MOL   C57610796   7.597   2.892   6.683 -0.2173  0.0378  0.2621
   11MOL   C57710797   7.494   2.961   6.617 -0.2359 -0.2157  0.3170
   11MOL   N57810798   7.439   2.918   6.494  0.5709 -0.7910 -0.5223
   11MOL   C57910799   7.519   2.855   6.397 -0.4510 -0.0008  0.6319
   11MOL   C58010800   7.460   2.753   6.325 -0.6586  0.6624  0.0565
   11MOL   C58110801   7.537   2.674   6.236  0.4614 -0.4675  0.2298
   11MOL   C58210802   7.672   2.701   6.218 -0.5762  0.2903  0.4453
   11MOL   C58310803   7.757   2.616   6.125 -0.6148 -0.2357 -0.0214
   11MOL   C58410804   7.733   2.812   6.284 -0.3323 -0.6625 -0.8145
   11MOL   C58510805   7.654   2.890   6.370 -0.5714 -0.3453 -0.4446
   11MOL   C58610806   7.450   3.081   6.672  0.1442 -0.1474 -0.9019
   11MOL   C58710807   7.507   3.129   6.787 -0.5462 -0.6158  0.3040
   11MOL   C58810808   7.734   2.913   7.103  0.0860  0.5558  0.0091
   11MOL   C58910809   7.824   2.849   7.194  0.0707 -0.0904  0.1872
   11MOL   C59010810   0.153   2.890   7.517 -0.6905  0.4329  0.7264
   11MOL   C59110811   0.259   2.939   7.584 -0.3962  0.0389  0.0167
   11MOL   H59210812   0.462   3.062   7.693  0.0578  0.7595 -1.1056
   11MOL   H59310813   0.469   3.038   7.338 -0.5308  1.5019 -0.0013
   11MOL   H59410814   0.257   2.959   7.205 -0.1680  1.8891 -0.0448
   11MOL   H59510815   0.003   2.757   7.343 -0.6974  0.7005  0.2888
   11MOL   H59610816   0.072   3.097   7.236  0.7303 -0.7562  0.5816
   11MOL   H59710817   7.898   3.220   7.090  0.4911 -0.7990 -1.2376
   11MOL   H59810818   7.670   3.211   6.971 -2.3241  0.3075 -0.0400
   11MOL   H59910819   7.751   2.903   6.830  0.2167 -0.3563 -1.0389
   11MOL   H60010820   7.625   2.797   6.639 -0.3433  0.7147 -1.3450
   11MOL   H60110821   7.371   2.982   6.456  0.5854 -0.3620  0.1566
   11MOL   H60210822   7.359   2.720   6.345 -0.8527  1.3098  0.1587
   11MOL   H60310823   7.490   2.599   6.173  0.0050 -0.4290  0.5210
   11MOL   H60410824   7.800   2.532   6.180 -0.0887  0.9507  1.4141
   11MOL   H60510825   7.820   2.687   6.073 -2.3503 -0.7465 -2.9475
   11MOL   H60610826   7.835   2.846   6.276  0.5703 -2.5362  1.7996
   11MOL   H60710827   7.696   2.972   6.427  0.7710 -1.6797  0.5269
   11MOL   H60810828   7.374   3.145   6.627  0.0569  0.2211 -0.2338
   11MOL   H60910829   7.482   3.226   6.827  2.2914  0.8677 -1.3532
   11MOL   H61010830   7.661   2.852   7.051  0.1642 -0.3347  0.9442
   11MOL   H61110831   7.809   2.744   7.214  0.6474 -0.0261  0.9885
   11MOL   H61210832   0.069   2.845   7.568  0.8046 -3.9039 -0.4147
   11MOL   H61310833   0.259   2.937   7.692 -1.6275 -0.1350  0.0262
   11MOL   N61410834   7.695   2.555   6.012  0.4276  0.5463  0.0812
   11MOL   C61510835   7.768   2.466   5.932 -0.0449 -0.7236 -0.1931
   11MOL   C61610836   7.707   2.415   5.820 -0.5999  0.0064 -0.3147
   11MOL   C61710837   7.774   2.334   5.733 -0.3113  0.0288  1.3988
   11MOL   C61810838   7.909   2.289   5.762  0.4138  0.7782  0.6539
   11MOL   N61910839   0.009   2.220   5.669  0.5431 -0.7183  0.1470
   11MOL   C62010840   7.945   2.173   5.543 -0.5404 -0.1418 -0.1796
   11MOL   C62110841   7.959   2.258   5.429  0.4090  0.2922  0.0541
   11MOL   C62210842   7.933   2.208   5.303  0.7869 -0.1379  0.3239
   11MOL   C62310843   7.903   2.075   5.280  0.0008 -0.5799 -0.0544
   11MOL   N62410844   7.890   2.013   5.159  0.6126  0.2313 -0.1158
   11MOL   C62510845   7.917   2.048   5.027  0.5522 -0.2514 -0.6081
   11MOL   C62610846   0.024   2.144   4.996  1.0724  0.1653 -0.3542
   11MOL   C62710847   0.056   2.176   4.869  0.4628 -0.0756  0.5481
   11MOL   C62810848   0.000   2.107   4.760 -0.0139  0.1247  0.7213
   11MOL   N62910849   0.049   2.135   4.631  0.5381 -0.0203  0.6409
   11MOL   C63010850   0.174   2.203   4.614 -0.5517 -0.2306  0.2451
   11MOL   C63110851   0.177   2.332   4.560  0.1079  0.1004 -0.1435
   11MOL   C63210852   0.299   2.407   4.549 -0.9889 -0.2606  0.2386
   11MOL   C63310853   0.421   2.342   4.584  0.5332  0.3204 -0.0635
   11MOL   C63410854   0.547   2.418   4.591  0.4222  0.0341 -0.1488
   11MOL   C63510855   0.419   2.210   4.623  0.5741 -0.2006  0.2848
   11MOL   C63610856   0.297   2.138   4.640  0.3288  0.0890  0.1668
   11MOL   C63710857   7.881   2.012   4.787 -0.4473  0.0753 -0.3400
   11MOL   C63810858   7.848   1.983   4.922  0.6318  0.4276 -0.4562
   11MOL   C63910859   7.888   1.993   5.397  0.5236 -0.0213  0.5688
   11MOL   C64010860   7.914   2.037   5.525  0.3631  0.1815 -0.2944
   11MOL   C64110861   7.965   2.326   5.887 -0.1992  0.6650  0.4023
   11MOL   C64210862   7.902   2.419   5.966  0.6410  0.6733  0.1028
   11MOL   H64310863   7.599   2.580   5.993  0.9090  3.3993  1.1723
   11MOL   H64410864   7.603   2.434   5.802 -0.5588 -0.4935 -1.1019
   11MOL   H64510865   7.722   2.301   5.644  4.0481  3.3562 -2.6319
   11MOL   H64610866   0.062   2.157   5.728  0.0999 -0.6786  0.5923
   11MOL   H64710867   0.017   2.358   5.438 -0.6914  0.6684  0.9258
   11MOL   H64810868   7.934   2.275   5.219 -2.0018 -1.5694 -0.9082
   11MOL   H64910869   7.833   1.930   5.160 -0.9706  1.2852 -1.0787
   11MOL   H65010870   0.077   2.206   5.066 -1.3736 -0.6606  2.3021
   11MOL   H65110871   0.126   2.256   4.852  1.7524 -0.7878  2.3450
   11MOL   H65210872   0.015   2.074   4.557 -3.2514 -0.5090  2.6746
   11MOL   H65310873   0.080   2.374   4.536 -1.5777 -2.6136  1.6081
   11MOL   H65410874   0.285   2.507   4.511 -0.3286 -0.0034  0.6489
   11MOL   H65510875   0.551   2.477   4.499 -1.8171 -0.2574 -0.4577
   11MOL   H65610876   0.631   2.349   4.585  2.8849  2.7402  1.7023
   11MOL   H65710877   0.514   2.166   4.649  0.3585 -0.4764  0.6038
   11MOL   H65810878   0.290   2.038   4.680 -2.5767 -0.1482 -0.8300
   11MOL   H65910879   7.844   1.950   4.707  0.4324  1.3446 -1.7411
   11MOL   H66010880   7.781   1.898   4.927 -0.6800  1.4917  0.5376
   11MOL   H66110881   7.870   1.888   5.377  1.2596 -0.0323 -0.0876
   11MOL   H66210882   7.915   1.968   5.609  1.7249  0.0319 -0.4177
   11MOL   H66310883   0.085   2.304   5.916 -0.7764 -0.1316  1.8595
   11MOL   H66410884   7.950   2.449   6.058 -1.3821 -0.0880  1.4632
   11MOL   N66510885   0.555   2.521   4.701 -0.3009  0.0293 -0.4165
   11MOL   C66610886   0.515   2.483   4.825  0.0246  0.4597 -0.0859
   11MOL   C66710887   0.457   2.571   4.912 -0.3361  0.1995 -0.3369
   11MOL   C66810888   0.433   2.535   5.048 -0.0117 -0.3109 -0.0693
   11MOL   C66910889   0.458   2.401   5.099 -0.2133  0.5110 -0.6690
   11MOL   N67010890   0.445   2.365   5.232  0.2365  0.2552 -0.1139
   11MOL   C67110891   0.443   2.445   5.347  0.1650  0.4767 -0.0744
   11MOL   C67210892   0.529   2.553   5.355 -0.1963 -0.3433 -0.7269
   11MOL   C67310893   0.537   2.625   5.473 -0.1810 -0.4869  0.0310
   11MOL   C67410894   0.451   2.594   5.580 -0.1103 -0.4425  0.1692
   11MOL   N67510895   0.460   2.676   5.693 -0.0140 -0.4734  0.1224
   11MOL   C67610896   0.377   2.681   5.805 -0.7990  0.0420  0.3843
   11MOL   C67710897   0.233   2.672   5.788 -0.0580 -0.5068 -0.5296
   11MOL   C67810898   0.152   2.658   5.901 -0.2390  0.8179  0.0697
   11MOL   C67910899   0.210   2.662   6.030  0.2106  0.3014 -0.6320
   11MOL   N68010900   0.131   2.659   6.147  0.4653  0.0167 -0.2575
   11MOL   C68110901   0.130   2.559   6.243 -0.0140  0.1765 -0.2542
   11MOL   C68210902   0.180   2.436   6.225 -0.0218  0.2486 -0.2770
   11MOL   C68310903   0.179   2.337   6.326 -0.1022  0.5665 -0.4172
   11MOL   C68410904   0.132   2.371   6.454 -0.0522  0.2406  0.5857
   11MOL   C68510905   0.158   2.272   6.562 -0.0814  0.2043  0.5868
   11MOL   C68610906   0.079   2.506   6.477 -0.0654  0.5218 -0.1274
   11MOL   C68710907   0.078   2.600   6.366  0.2247  0.1864 -0.6628
   11MOL   C68810908   0.352   2.665   6.043 -0.4625 -0.8658  0.1630
   11MOL   C68910909   0.435   2.684   5.928 -0.2282  0.2155  0.2331
   11MOL   C69010910   0.354   2.490   5.567  0.6542 -0.1043  0.1433
   11MOL   C69110911   0.354   2.413   5.452  0.0205 -0.4490  0.8682
   11MOL   C69210912   0.520   2.310   5.011  0.3374  0.2553  0.5181
   11MOL   C69310913   0.551   2.349   4.873 -0.2842 -0.1052 -0.3413
   11MOL   H69410914   0.497   2.600   4.677 -0.3731  0.4921  1.2225
   11MOL   H69510915   0.430   2.669   4.877  2.2235  1.7136  1.7458
   11MOL   H69610916   0.372   2.594   5.115  1.3294 -1.2854  2.0492
   11MOL   H69710917   0.427   2.268   5.257  1.8368  0.7128  2.9339
   11MOL   H69810918   0.593   2.590   5.278  1.2219 -0.5662  0.3262
   11MOL   H69910919   0.605   2.708   5.479  1.5476 -1.9947  2.4889
   11MOL   H70010920   0.539   2.738   5.705  3.0132 -3.8834 -1.0842
   11MOL   H70110921   0.189   2.679   5.689 -1.6233  0.3013  0.2049
   11MOL   H70210922   0.045   2.655   5.894 -0.2094  1.4261 -0.7281
   11MOL   H70310923   0.112   2.750   6.185 -0.8778  0.6225 -2.2552
   11MOL   H70410924   0.226   2.410   6.131 -1.5168  0.8693 -1.1871
   11MOL   H70510925   0.230   2.242   6.318  0.1639  0.5079  1.6546
   11MOL   H70610926   0.156   2.326   6.656 -2.0308  1.7509 -0.3079
   11MOL   H70710927   0.263   2.243   6.553 -0.3531 -0.1483 -1.8143
   11MOL   H70810928   0.058   2.548   6.574 -1.2627 -2.4219  0.9347
   11MOL   H70910929   0.042   2.699   6.391 -2.9595 -0.8109 -1.0231
   11MOL   H71010930   0.392   2.668   6.143  2.6338  0.3628 -1.0583
   11MOL   H71110931   0.542   2.678   5.941 -0.6097 -5.4780  2.2744
   11MOL   H71210932   0.283   2.466   5.646  0.2775  0.2223 -0.0912
   11MOL   H71310933   0.287   2.327   5.448  2.0841 -2.0386 -0.8365
   11MOL   H71410934   0.553   2.216   5.051 -1.9720 -0.4239  0.9045
   11MOL   H71510935   0.603   2.285   4.805 -1.0896 -0.2471 -0.8306
   11MOL   N71610936   0.067   2.155   6.559  0.0279 -0.2135 -0.1301
   11MOL   C71710937   0.083   2.051   6.654 -0.4307 -0.3240 -0.3857
   11MOL   C71810938   0.165   2.061   6.765 -0.2526 -0.8365  0.2169
   11MOL   C71910939   0.171   1.958   6.859 -0.9726  0.2342  0.3737
   11MOL   C72010940   0.098   1.840   6.848 -0.0197 -0.3589 -0.3280
   11MOL   N72110941   0.109   1.733   6.939 -0.8655 -0.0170  0.6620
   11MOL   C72210942   0.228   1.697   6.998  0.0986  0.6105 -0.3193
   11MOL   C72310943   0.223   1.664   7.138 -0.1992 -0.2000 -0.5527
   11MOL   C72410944   0.343   1.646   7.204 -0.1456  0.5307  0.2931
   11MOL   C72510945   0.466   1.655   7.138  0.7477  0.2302  0.1345
   11MOL   N72610946   0.586   1.631   7.210  1.5995  0.3416  0.1471
   11MOL   C72710947   0.718   1.636   7.167 -0.0644 -0.1352  0.8994
   11MOL   C72810948   0.808   1.544   7.221  0.2204 -0.1233  0.2415
   11MOL   C72910949   0.941   1.549   7.188  0.3295  0.3087  0.8271
   11MOL   C73010950   0.987   1.650   7.101 -0.7480 -0.1647  0.1304
   11MOL   N73110951   1.117   1.639   7.062 -0.3829 -0.8810 -0.3390
   11MOL   C73210952   1.206   1.746   7.039 -0.0351 -0.1261  0.0623
   11MOL   C73310953   1.204   1.822   6.925 -0.6128  0.0075 -0.1475
   11MOL   C73410954   1.313   1.915   6.897 -0.0517  0.1463  0.8914
   11MOL   C73510955   1.424   1.924   6.980  0.3098  0.3046 -0.7071
   11MOL   C73610956   1.532   2.028   6.961  0.1175  0.6679  0.3238
   11MOL   C73710957   1.419   1.847   7.098 -0.1100 -0.5734 -0.4259
   11MOL   C73810958   1.313   1.762   7.126 -0.0745 -0.2262  0.0484
   11MOL   C73910959   0.898   1.746   7.051 -0.1277  0.2397 -0.7782
   11MOL   C74010960   0.763   1.729   7.076 -0.2386  0.8707 -0.2146
   11MOL   C74110961   0.469   1.679   6.996  0.5348  0.1533  0.2829
   11MOL   C74210962   0.346   1.693   6.925 -0.6536 -0.0876  0.1515
   11MOL   C74310963   0.013   1.832   6.739  0.4184  0.3765  0.4386
   11MOL   C74410964   0.011   1.934   6.644 -0.7637  0.4065  0.5409
   11MOL   H74510965   0.007   2.148   6.479  0.8876  0.3816 -0.8393
   11MOL   H74610966   0.237   2.140   6.779  1.7962 -2.5134 -0.6605
   11MOL   H74710967   0.240   1.970   6.941 -0.4857  1.1067 -0.1557
   11MOL   H74810968   0.053   1.653   6.912 -2.1391  0.9878  0.2748
   11MOL   H74910969   0.128   1.658   7.190  0.1863 -0.6754  0.1141
   11MOL   H75010970   0.340   1.632   7.311 -0.8576 -0.2022  0.1894
   11MOL   H75110971   0.571   1.596   7.303 -3.8858  1.8828 -0.0181
   11MOL   H75210972   0.776   1.463   7.284  0.3274 -1.0339 -0.8508
   11MOL   H75310973   0.996   1.473   7.241 -0.1276 -0.4724  0.1765
   11MOL   H75410974   1.166   1.567   7.114 -0.0124 -0.3065  0.1042
   11MOL   H75510975   1.117   1.825   6.861 -0.6212  0.3718 -0.1216
   11MOL   H75610976   1.309   1.985   6.816 -2.0052 -0.7239  0.2007
   11MOL   H75710977   1.480   2.120   6.989 -2.0175 -0.9199  1.7947
   11MOL   H75810978   1.562   2.027   6.856 -2.8265 -0.3189 -0.5667
   11MOL   H75910979   1.486   1.865   7.181  0.7577 -0.6058 -1.1087
   11MOL   H76010980   1.314   1.705   7.218 -1.5401  1.7544  1.3338
   11MOL   H76110981   0.923   1.808   6.966  2.5565  0.2895 -0.0148
   11MOL   H76210982   0.701   1.810   7.042 -0.3652  0.5827 -0.6872
   11MOL   H76310983   0.565   1.685   6.947  0.1713 -0.2464 -0.4882
   11MOL   H76410984   0.337   1.703   6.818  1.0613 -3.8357 -0.4096
   11MOL   H76510985   7.944   1.739   6.721 -0.0947  0.7530 -0.0652
   11MOL   H76610986   7.936   1.921   6.553  0.4739 -0.1116 -0.1725
   11MOL   N76710987   1.649   2.008   7.046 -0.4926  0.7561  0.3928
   11MOL   C76810988   1.682   2.102   7.146  0.4629 -0.3920  0.0891
   11MOL   C76910989   1.664   2.240   7.126 -0.3127  0.4472  0.4494
   11MOL   C77010990   1.694   2.328   7.226  0.0727  0.1630  0.2105
   11MOL   C77110991   1.750   2.284   7.345 -0.4722 -0.6944  0.5833
   11MOL   N77210992   1.777   2.377   7.444 -0.0190 -0.4665 -0.0589
   11MOL   C77310993   1.840   2.368   7.566  0.2830 -0.0384  0.1626
   11MOL   C77410994   1.789   2.462   7.659  0.4411  0.5698  0.0392
   11MOL   C77510995   1.845   2.468   7.785  0.5484  0.4265  0.4074
   11MOL   C77610996   1.956   2.389   7.825 -0.3180 -0.6123  0.0520
   11MOL   N77710997   2.010   2.387   7.958  0.1300  0.0336 -0.5124
   11MOL   C77810998   1.997   2.485   0.075 -0.8356 -0.1453 -0.3790
   11MOL   C77910999   1.949   2.441   0.198 -0.0251  0.3158 -0.0851
   11MOL   C78011000   1.934   2.536   0.303  0.0021  0.8342 -0.4059
   11MOL   C78111001   1.967   2.673   0.278 -0.6388  0.5079  0.5224
   11MOL   N78211002   1.966   2.778   0.376  0.3288  0.7649  0.2349
   11MOL   C78311003   1.992   2.757   0.513  0.1215  0.5682  0.2076
   11MOL   C78411004   1.908   2.830   0.601 -0.5429 -0.0304 -0.3231
   11MOL   C78511005   1.937   2.814   0.742 -0.5160  0.1622 -0.5005
   11MOL   C78611006   2.033   2.720   0.783  0.2865  0.5330  0.5382
   11MOL   C78711007   2.049   2.693   0.931 -0.1292  0.5259 -0.1611
   11MOL   C78811008   2.121   2.651   0.688  0.0035  0.1076  0.5001
   11MOL   C78911009   2.101   2.671   0.553  0.1973  0.2281  0.1611
   11MOL   C79011010   2.010   2.713   0.155 -0.5993 -0.0863  0.0651
   11MOL   C79111011   2.029   2.617   0.052 -0.0925 -0.1952  0.5533
   11MOL   C79211012   2.014   2.301   7.728  0.0421 -0.2574  0.2745
   11MOL   C79311013   1.954   2.291   7.597  0.8253  0.6030 -0.3765
   11MOL   C79411014   1.764   2.150   7.370  0.2685 -0.3056 -0.6569
   11MOL   C79511015   1.734   2.060   7.271 -0.4823 -0.1561  0.2248
   11MOL   H79611016   1.645   1.912   7.077  0.0457  0.7731  0.5082
   11MOL   H79711017   1.639   2.282   7.030  1.8674  0.8066  0.0192
   11MOL   H79811018   1.672   2.431   7.203  1.4155  0.4770  0.2940
   11MOL   H79911019   1.731   2.465   7.425 -1.0125 -0.6225  1.5064
   11MOL   H80011020   1.709   2.530   7.632 -0.1204 -1.2305 -2.9780
   11MOL   H80111021   1.789   2.531   7.852 -0.2203  0.1891 -0.0078
   11MOL   H80211022   2.076   2.312   7.976  1.3639  1.1752 -0.2720
   11MOL   H80311023   1.928   2.338   0.221 -0.2977  0.2939 -0.4315
   11MOL   H80411024   1.904   2.494   0.398  0.0593 -0.0003 -0.7568
   11MOL   H80511025   1.927   2.868   0.351  1.2450  0.9991 -0.3622
   11MOL   H80611026   1.842   2.903   0.555  2.7148  3.5321  0.3598
   11MOL   H80711027   1.883   2.866   0.820 -0.1832 -1.7981  1.0781
   11MOL   H80811028   1.993   2.602   0.956 -1.6067  1.9925  2.0177
   11MOL   H80911029   2.000   2.774   0.985  0.4909 -0.3219  1.7038
   11MOL   H81011030   2.202   2.588   0.720  1.0863  0.6081 -1.2036
   11MOL   H81111031   2.175   2.624   0.490  0.3215 -0.5365  0.8740
   11MOL   H81211032   2.032   2.817   0.140 -0.6085 -0.3478 -1.8262
   11MOL   H81311033   2.066   2.650   7.938  0.0163 -0.3161  0.5544
   11MOL   H81411034   2.098   2.241   7.759  1.0603  2.3722  2.9164
   11MOL   H81511035   2.006   2.228   7.527  0.5378  0.5807 -0.5677
   11MOL   H81611036   1.811   2.116   7.462  1.2308  0.9722 -0.6586
   11MOL   H81711037   1.765   1.957   7.278  1.5923  0.3856 -0.6320
   11MOL   N81811038   2.184   2.693   0.982 -0.1959  0.2859  0.8803
   11MOL   C81911039   2.197   2.769   1.100  0.6743  0.0962  0.0840
   11MOL   C82011040   2.202   2.709   1.226  0.4358 -0.2682  0.5897
   11MOL   C82111041   2.209   2.786   1.346 -1.0066  0.3342  0.6359
   11MOL   C82211042   2.216   2.925   1.339 -0.0687  0.9437 -0.0918
   11MOL   N82311043   2.200   3.004   1.448  0.4337 -0.7891  0.6228
   11MOL   C82411044   2.239   2.988   1.582 -1.1103  0.2261 -0.7846
   11MOL   C82511045   2.177   3.061   1.690  0.6090 -0.0553  0.6597
   11MOL   C82611046   2.220   3.042   1.824 -0.6480  1.0596  0.2938
   11MOL   C82711047   2.339   2.970   1.849  1.2090  0.2302  1.0868
   11MOL   N82811048   2.391   2.969   1.977 -0.5037 -0.5583  0.1948
   11MOL   C82911049   2.450   2.867   2.057  0.4426  0.1769  0.0612
   11MOL   C83011050   2.470   2.892   2.196 -0.0370  0.9026 -0.2252
   11MOL   C83111051   2.525   2.791   2.277  0.2116 -0.2374  0.2025
   11MOL   C83211052   2.548   2.661   2.220  0.1920 -1.0872  0.0182
   11MOL   N83311053   2.620   2.573   2.297  0.2167 -0.0923  0.2633
   11MOL   C83411054   2.581   2.441   2.331  0.3080  0.2733 -0.3544
   11MOL   C83511055   2.459   2.385   2.287  0.2460  0.1432 -0.0440
   11MOL   C83611056   2.440   2.245   2.308  0.2892  0.1934  0.3215
   11MOL   C83711057   2.534   2.161   2.375 -0.3236  0.4373 -0.3165
   11MOL   C83811058   2.507   2.012   2.390 -0.3364 -0.4375  0.2827
   11MOL   C83911059   2.643   2.226   2.438 -0.4859 -0.2095  0.2326
   11MOL   C84011060   2.670   2.361   2.410  0.0698 -0.0615  0.1185
   11MOL   C84111061   2.524   2.641   2.085  0.3273  0.2110  0.4787
   11MOL   C84211062   2.468   2.736   2.006  0.3187  0.6032 -0.1972
   11MOL   C84311063   2.406   2.907   1.746 -0.7724 -0.3275  0.5692
   11MOL   C84411064   2.360   2.918   1.613  0.6205  0.4339 -0.0331
   11MOL   C84511065   2.226   2.981   1.211  0.3627 -0.0656  0.4363
   11MOL   C84611066   2.219   2.908   1.092 -0.1410 -0.1891  0.1340
   11MOL   H84711067   2.220   2.601   1.006 -2.2622 -0.6944  0.3501
   11MOL   H84811068   2.190   2.603   1.240  0.0943 -0.3698 -0.4378
   11MOL   H84911069   2.216   2.741   1.444  1.0713 -1.6042 -0.3489
   11MOL   H85011070   2.138   3.082   1.436  0.2385 -0.7837  1.6231
   11MOL   H85111071   2.091   3.126   1.684 -0.3011 -1.1509  1.6081
   11MOL   H85211072   2.179   3.092   1.911 -2.8244  1.1086 -0.7129
   11MOL   H85311073   2.381   3.060   2.019  0.5921  0.0497 -0.8457
   11MOL   H85411074   2.455   2.992   2.233 -0.0196  1.2908 -1.2390
   11MOL   H85511075   2.536   2.801   2.384  0.2338  0.2890  0.1502
   11MOL   H85611076   2.645   2.626   2.379  2.3326 -1.5735  0.6129
   11MOL   H85711077   2.389   2.449   2.236 -0.0671 -1.0012 -1.0704
   11MOL   H85811078   2.348   2.204   2.270  1.3416  0.6678 -2.8724
   11MOL   H85911079   2.582   1.964   2.453 -0.4304 -1.6204 -0.4833
   11MOL   H86011080   2.538   1.963   2.298  0.7454 -1.3980  1.1460
   11MOL   H86111081   2.720   2.174   2.493 -1.9685 -2.0139  0.6377
   11MOL   H86211082   2.768   2.396   2.438  0.3291  0.2638 -1.1546
   11MOL   H86311083   2.554   2.545   2.048 -0.0866  0.1794  0.2296
   11MOL   H86411084   2.462   2.714   1.901  0.1237  1.6797 -0.4220
   11MOL   H86511085   2.498   2.854   1.767  1.0797  1.4390 -2.6085
   11MOL   H86611086   2.419   2.868   1.538  1.2604 -2.7299  2.4981
   11MOL   H86711087   2.229   3.089   1.214  1.4391 -0.1003  0.7712
   11MOL   H86811088   2.227   2.949   0.993  0.3296 -2.2291 -0.7045
   11MOL   N86911089   2.364   1.983   2.435 -0.2026  0.1111 -0.6103
   11MOL   C87011090   2.260   1.943   2.348  0.5721  0.8525  0.5411
   11MOL   C87111091   2.260   1.958   2.207 -0.6611 -0.4361  0.2780
   11MOL   C87211092   2.153   1.907   2.128  0.1552  0.1029  0.6113
   11MOL   C87311093   2.041   1.837   2.182  0.3568  0.1334 -0.0427
   11MOL   N87411094   1.936   1.791   2.098  0.1355 -0.1093  0.7377
   11MOL   C87511095   1.887   1.849   1.981  0.0597 -0.6510  0.3604
   11MOL   C87611096   1.770   1.928   1.989 -0.4676  0.0614  0.1622
   11MOL   C87711097   1.734   2.016   1.884 -0.6771  0.0938  0.6361
   11MOL   C87811098   1.805   2.011   1.756  0.9292  0.1179 -0.2071
   11MOL   N87911099   1.765   2.085   1.648 -0.3712 -0.3029  1.2109
   11MOL   C88011100   1.659   2.169   1.624  0.0134 -0.1392  0.5851
   11MOL   C88111101   1.675   2.303   1.575  0.2902  0.3561 -0.6455
   11MOL   C88211102   1.564   2.391   1.562  0.1759 -0.2716  0.1762
   11MOL   C88311103   1.429   2.348   1.578 -0.1579  0.3260 -0.4096
   11MOL   N88411104   1.320   2.436   1.570 -0.1492 -0.0779  0.3276
   11MOL   C88511105   1.315   2.570   1.524  0.7910 -0.4197 -0.2610
   11MOL   C88611106   1.281   2.607   1.390 -0.3445 -0.6739  0.5009
   11MOL   C88711107   1.266   2.744   1.360  0.1141 -0.3769  0.2450
   11MOL   C88811108   1.299   2.842   1.452  0.9807  0.0073 -0.4875
   11MOL   C88911109   1.285   2.993   1.416  0.3376 -0.1826 -0.2396
   11MOL   C89011110   1.345   2.804   1.578 -0.2816  0.0059  0.7806
   11MOL   C89111111   1.348   2.671   1.618  0.6777 -0.4743  0.1763
   11MOL   C89211112   1.414   2.217   1.638  0.3860 -0.3692 -0.7978
   11MOL   C89311113   1.524   2.129   1.647 -0.1196  0.7413  0.1323
   11MOL   C89411114   1.906   1.913   1.741  0.6569  0.3686  0.3201
   11MOL   C89511115   1.951   1.845   1.854 -0.1339  0.1822 -0.5299
   11MOL   C89611116   2.044   1.819   2.325 -0.2546  0.1956 -0.3884
   11MOL   C89711117   2.146   1.873   2.400  0.0958  0.0534 -0.1995
   11MOL   H89811118   2.339   2.008   2.530 -0.8766  0.8315 -0.9701
   11MOL   H89911119   2.340   2.012   2.159 -0.0610 -1.2236  0.3905
   11MOL   H90011120   2.149   1.920   2.021 -1.9221 -0.3083  0.6128
   11MOL   H90111121   1.860   1.771   2.161  2.1379 -1.6423  2.7273
   11MOL   H90211122   1.732   1.926   2.091  0.8335  0.9600  0.6797
   11MOL   H90311123   1.652   2.081   1.907  0.1589  1.7889 -1.0123
   11MOL   H90411124   1.849   2.115   1.599 -1.1641 -0.2534 -0.1409
   11MOL   H90511125   1.772   2.343   1.551  2.2419 -2.4497  2.1362
   11MOL   H90611126   1.580   2.488   1.517  0.7156 -1.3799 -2.1147
   11MOL   H90711127   1.229   2.406   1.604 -0.5976 -1.2843 -1.7764
   11MOL   H90811128   1.271   2.530   1.315 -0.6039  0.0819 -0.2576
   11MOL   H90911129   1.246   2.777   1.259  0.7431  2.9721  1.1522
   11MOL   H91011130   1.190   3.004   1.363  0.4803  0.0254 -0.4594
   11MOL   H91111131   1.362   3.013   1.341  1.2842 -3.1082 -0.0883
   11MOL   H91211132   1.375   2.883   1.646  1.3465 -0.4210  0.5642
   11MOL   H91311133   1.372   2.658   1.722  0.5744  0.1922  0.2848
   11MOL   H91411134   1.318   2.174   1.659 -0.1218 -0.2561 -2.7225
   11MOL   H91511135   1.512   2.029   1.685  0.6789  1.2113  1.6164
   11MOL   H91611136   1.948   1.896   1.642 -1.0335 -4.3452  0.2957
   11MOL   H91711137   2.040   1.784   1.847 -1.3882 -1.5981 -1.2682
   11MOL   H91811138   1.957   1.771   2.366  0.9476 -1.7262 -0.0419
   11MOL   H91911139   2.147   1.853   2.506  1.8010  2.0009  0.1733
   11MOL   N92011140   1.293   3.090   1.530  0.2358 -0.3691  0.2952
   11MOL   C92111141   1.212   3.206   1.527  0.1882 -0.4238 -0.0831
   11MOL   C92211142   1.159   3.256   1.652 -0.2112 -0.4177 -0.0041
   11MOL   C92311143   1.058   3.353   1.647 -0.5419  0.3407 -0.7916
   11MOL   C92411144   1.025   3.415   1.529  0.0801 -0.2506 -0.4604
   11MOL   N92511145   0.918   3.506   1.525  0.0436 -0.1222  0.5123
   11MOL   C92611146   0.821   3.519   1.423  0.3754  0.0654  0.2409
   11MOL   C92711147   0.799   3.410   1.336 -0.2248  0.2334 -0.1769
   11MOL   C92811148   0.708   3.423   1.227 -0.0195 -0.1999 -0.3945
   11MOL   C92911149   0.652   3.547   1.195 -0.3429 -1.1369 -0.2494
   11MOL   N93011150   0.561   3.567   1.084 -0.1865 -0.1347 -0.2263
   11MOL   C93111151   0.510   3.464   0.999 -0.0424  0.1915 -0.5472
   11MOL   C93211152   0.460   3.341   1.057  0.0083  0.7055  0.1025
   11MOL   C93311153   0.404   3.241   0.977 -0.3138  0.6777 -0.2594
   11MOL   C93411154   0.396   3.263   0.838  0.6920 -0.3624  0.4771
   11MOL   N93511155   0.347   3.172   0.747  0.7537  0.2463 -0.1675
   11MOL   C93611156   0.309   3.033   0.766 -0.6997 -0.2069  0.5092
   11MOL   C93711157   0.358   2.932   0.857  0.4419  0.1708  0.2383
   11MOL   C93811158   0.311   2.797   0.862 -0.8219 -0.9139 -0.4223
   11MOL   C93911159   0.219   2.756   0.768  0.8327 -0.1889  0.3779
   11MOL   C94011160   0.170   2.611   0.775  0.3624 -0.2610 -0.1693
   11MOL   C94111161   0.171   2.856   0.671  0.0062 -0.4933  0.0033
   11MOL   C94211162   0.223   2.988   0.667  0.6953 -0.3592 -0.7253
   11MOL   C94311163   0.435   3.385   0.780  0.1831  0.0854 -0.4352
   11MOL   C94411164   0.491   3.486   0.861  0.0004 -0.0248  0.1383
   11MOL   C94511165   0.684   3.656   1.279  0.0873  0.8707  0.1534
   11MOL   C94611166   0.764   3.644   1.396 -0.5532  0.0128 -0.0148
   11MOL   C94711167   1.095   3.381   1.405 -0.0583 -0.2692 -0.0344
   11MOL   C94811168   1.172   3.265   1.406  0.0794  0.4134 -0.4536
   11MOL   H94911169   1.321   3.056   1.620 -1.9890 -1.1748  0.7250
   11MOL   H95011170   1.188   3.205   1.742  1.2606 -0.7309 -0.6323
   11MOL   H95111171   0.998   3.374   1.734  1.1859 -0.1778  0.5533
   11MOL   H95211172   0.917   3.573   1.600  0.9933  2.2251 -1.4791
   11MOL   H95311173   0.843   3.312   1.348  1.9152  0.9573 -1.8057
   11MOL   H95411174   0.687   3.336   1.167 -0.6195 -0.3803  0.0763
   11MOL   H95511175   0.544   3.664   1.062 -0.4726  0.3058  1.8359
   11MOL   H95611176   0.448   3.331   1.164 -0.5509  3.0598  0.2913
   11MOL   H95711177   0.367   3.145   1.012 -0.9149  0.5700 -1.1749
   11MOL   H95811178   0.316   3.215   0.661  0.2757  0.7195  0.2406
   11MOL   H95911179   0.419   2.964   0.940 -1.6196  0.5208  1.6455
   11MOL   H96011180   0.343   2.730   0.940 -0.5053  1.9106  1.9701
   11MOL   H96111181   0.244   2.538   0.808 -1.5635 -0.1740  4.7278
   11MOL   H96211182   0.160   2.585   0.669 -0.2868 -1.6006  0.2026
   11MOL   H96311183   0.093   2.819   0.605  0.7174 -0.9330 -0.5932
   11MOL   H96411184   0.192   3.047   0.582  3.3608  1.6282 -0.3680
   11MOL   H96511185   0.418   3.425   0.681 -0.1655  0.1337 -0.3593
   11MOL   H96611186   0.530   3.578   0.818 -1.3388 -0.6543 -2.5475
   11MOL   H96711187   0.645   3.753   1.252  1.2313  0.9390 -1.3579
   11MOL   H96811188   0.786   3.722   1.467  2.7062  0.4128 -1.3358
   11MOL   H96911189   1.063   3.432   1.315 -1.4845  0.4688  0.8748
   11MOL   H97011190   1.207   3.224   1.313  0.1802 -1.2211  0.2788
   11MOL   N97111191   0.050   2.608   0.848  0.0573  0.1093  0.1013
   11MOL   C97211192   0.004   2.496   0.913  0.7395 -0.3524  0.0991
   11MOL   C97311193   7.880   2.509   1.006 -0.2885 -0.4603 -0.3173
   11MOL   C97411194   7.827   2.400   1.080  0.3439  0.0496 -0.0820
   11MOL   C97511195   7.892   2.274   1.070  0.8037 -0.0282 -0.2927
   11MOL   N97611196   7.841   2.168   1.147  0.5052 -0.2282 -0.3943
   11MOL   C97711197   7.897   2.107   1.259  0.2604 -0.3581  0.0750
   11MOL   C97811198   0.054   2.114   1.277  0.1591  0.1373 -0.1899
   11MOL   C97911199   0.111   2.062   1.396 -0.2724  0.2916 -0.1085
   11MOL   C98011200   0.028   2.003   1.496 -0.4524  0.3658 -0.1717
   11MOL   N98111201   0.095   1.969   1.619  0.0458 -0.8771 -0.5266
   11MOL   C98211202   0.024   1.944   1.741 -0.1365  0.3467  0.1958
   11MOL   C98311203   0.071   1.845   1.825 -0.1436  0.0891  0.0595
   11MOL   C98411204   0.016   1.835   1.954  0.6945 -0.7134 -0.4131
   11MOL   C98511205   7.894   1.917   2.001  0.2124 -0.8885  0.0198
   11MOL   N98611206   7.836   1.909   2.129 -0.4938 -0.7093  0.4216
   11MOL   C98711207   7.857   1.805   2.216  0.2787  0.6044 -0.8037
   11MOL   C98811208   7.910   1.818   2.349 -0.2794 -0.0116 -0.7868
   11MOL   C98911209   7.928   1.698   2.429  0.3418 -0.1866  0.0061
   11MOL   C99011210   7.873   1.577   2.377  0.4449  0.0885 -0.3093
   11MOL   C99111211   7.872   1.454   2.465 -0.0326 -0.7736  0.4153
   11MOL   C99211212   7.818   1.566   2.254  0.1267  0.0682  0.3743
   11MOL   C99311213   7.811   1.681   2.174  0.4792 -0.0447 -0.0130
   11MOL   C99411214   7.850   2.019   1.915 -0.3292  0.0035 -0.0564
   11MOL   C99511215   7.904   2.031   1.782  0.3321  0.1993  0.1487
   11MOL   C99611216   7.871   1.991   1.470  0.0890  0.4631 -0.0098
   11MOL   C99711217   7.820   2.042   1.355  0.3789 -0.7440 -0.3278
   11MOL   C99811218   0.021   2.260   0.985  0.3553 -0.4731  0.2926
   11MOL   C99911219   0.063   2.369   0.900  0.7954 -0.3463 -0.4229
   11MOL     H111220   7.969   2.687   0.848  2.2889  1.9469  0.2224
   11MOL     H211221   7.824   2.600   1.025  0.9635  0.0280  1.2085
   11MOL     H311222   7.734   2.422   1.130  0.0290 -0.0868 -0.6092
   11MOL     H411223   7.741   2.164   1.137  0.4102 -0.3245  0.5125
   11MOL     H511224   0.120   2.159   1.204  0.4057 -1.8808 -1.2301
   11MOL     H611225   0.218   2.063   1.413  0.0655 -0.3991 -2.0115
   11MOL     H711226   0.168   2.031   1.649  0.4358 -1.6751  0.1929
   11MOL     H811227   0.159   1.784   1.808  1.0108  1.8566 -0.3609
   11MOL     H911228   0.070   1.770   2.020  0.9514  0.7067  0.8027
   11MOL    H1011229   7.800   1.995   2.167 -1.3246 -0.6189 -0.5348
   11MOL    H1111230   7.944   1.913   2.387 -2.8598 -0.0141  1.5895
   11MOL    H1211231   7.962   1.706   2.531  0.7373 -1.9250  0.0214
   11MOL    H1311232   7.931   1.378   2.413 -0.2572 -0.7715  0.1580
   11MOL    H1411233   7.768   1.430   2.484  0.1409 -0.1449  2.2168
   11MOL    H1511234   7.788   1.471   2.210 -0.6103  0.2629  0.4471
   11MOL    H1611235   7.791   1.674   2.068  3.1972 -0.7104 -0.5246
   11MOL    H1711236   7.768   2.083   1.945 -0.8340 -0.3898 -0.5859
   11MOL    H1811237   7.874   2.112   1.719 -0.0505  1.2189  1.6197
   11MOL    H1911238   7.800   1.945   1.537 -1.0808 -3.2774 -3.5370
   11MOL    H2011239   7.712   2.040   1.355  0.2882  1.8324 -1.7308
   11MOL    H2111240   0.072   2.165   0.981 -1.8430 -1.7443  1.2740
   11MOL    H2211241   0.144   2.342   0.834  1.7231 -0.0512  0.5599
   11MOL    H2311242   7.920   1.476   2.560  0.4235  1.4105 -0.2861
   12MOL     N111243   7.534   7.975   3.336 -0.1375 -0.0222 -0.0261
   12MOL     C211244   7.492   0.065   3.225 -0.3402  0.2345 -0.4886
   12MOL     C311245   7.375   0.146   3.239  0.2259 -0.2996  0.0814
   12MOL     C411246   7.332   0.230   3.134 -0.1120  0.1344 -0.4516
   12MOL     C511247   7.421   0.253   3.025  0.8834 -0.5257 -0.3701
   12MOL     N611248   7.385   0.348   2.934  0.0209  0.0192 -0.2504
   12MOL     C711249   7.463   0.443   2.860  0.3521 -0.0981  0.5770
   12MOL     C811250   7.602   0.472   2.882 -0.5626  0.7790 -0.4240
   12MOL     C911251   7.665   0.580   2.814  0.2106  0.3373 -0.4581
   12MOL    C1011252   7.590   0.649   2.715 -0.6364 -0.1606  0.0799
   12MOL    N1111253   7.657   0.747   2.634  0.5671 -0.6441  0.2265
   12MOL    C1211254   7.618   0.879   2.599 -0.9551  0.6021 -0.6139
   12MOL    C1311255   7.513   0.951   2.663  0.2299 -0.8413 -0.5384
   12MOL    C1411256   7.488   1.084   2.619  0.0277  0.4532  0.2654
   12MOL    C1511257   7.556   1.135   2.514 -1.0810 -0.0054  0.6632
   12MOL    N1611258   7.542   1.271   2.476 -0.1072  0.2410  0.3217
   12MOL    C1711259   7.424   1.351   2.470  0.0589 -0.5492 -0.3193
   12MOL    C1811260   7.437   1.494   2.449  0.8223  0.2341 -0.0372
   12MOL    C1911261   7.331   1.573   2.423  0.4587 -0.8715 -0.0024
   12MOL    C2011262   7.202   1.517   2.400 -0.9459 -0.2478 -0.1798
   12MOL    C2111263   7.096   1.618   2.359 -0.6283  0.2123  0.1639
   12MOL    C2211264   7.185   1.379   2.418 -0.2306 -0.3023 -0.2823
   12MOL    C2311265   7.291   1.299   2.454  0.7936  0.5049  0.1361
   12MOL    C2411266   7.670   1.066   2.459  0.2052  0.5680 -0.0994
   12MOL    C2511267   7.698   0.937   2.497  0.2893  0.6895  0.0506
   12MOL    C2611268   7.457   0.619   2.689 -0.4456 -0.1310 -0.9655
   12MOL    C2711269   7.394   0.517   2.762 -0.3715  0.2174  0.6978
   12MOL    C2811270   7.534   0.168   3.008 -0.1914 -0.4982 -0.5293
   12MOL    C2911271   7.568   0.074   3.106 -0.4235 -0.2251 -0.2837
   12MOL    H3011272   7.634   7.970   3.346 -0.2835 -1.8013  0.6128
   12MOL    H3111273   7.314   0.138   3.328  3.0269 -0.3886  2.0654
   12MOL    H3211274   7.238   0.282   3.135 -0.7661 -1.0541  1.6056
   12MOL    H3311275   7.288   0.373   2.943 -0.7274 -1.9324 -2.4795
   12MOL    H3411276   7.667   0.417   2.948 -1.6176  0.2632  0.2046
   12MOL    H3511277   7.769   0.601   2.833  0.2055 -0.2039  0.1437
   12MOL    H3611278   7.754   0.757   2.659  0.8891 -1.0797 -0.8272
   12MOL    H3711279   7.458   0.899   2.740  1.3093 -0.7514  0.3064
   12MOL    H3811280   7.418   1.147   2.673  0.4742  2.1792 -1.1402
   12MOL    H3911281   7.615   1.313   2.420  0.4089 -0.3328  0.5590
   12MOL    H4011282   7.535   1.537   2.432  0.7559  0.9445  1.2632
   12MOL    H4111283   7.347   1.676   2.395  1.2763 -1.5832 -2.3380
   12MOL    H4211284   7.088   1.675   2.451  0.1753  0.4532  0.0883
   12MOL    H4311285   7.003   1.565   2.336  0.0469  0.5357 -3.7661
   12MOL    H4411286   7.083   1.343   2.413 -0.2403 -0.0789 -1.8969
   12MOL    H4511287   7.265   1.196   2.475 -2.5897  1.2318 -0.2712
   12MOL    H4611288   7.744   1.114   2.396 -0.1325  1.3128  0.0580
   12MOL    H4711289   7.772   0.881   2.442  1.0294  2.3578 -0.6905
   12MOL    H4811290   7.404   0.663   2.606  0.8393  1.9988 -0.6979
   12MOL    H4911291   7.293   0.497   2.728 -0.0160 -0.1215 -0.1863
   12MOL    H5011292   7.608   0.175   2.929  1.1501 -0.7492  0.6870
   12MOL    H5111293   7.663   0.026   3.093 -0.9049 -0.9061 -1.3793
   12MOL    H5211294   7.490   0.013   3.424 -0.1576 -0.1238 -0.0127
   12MOL    N5311295   7.134   1.704   2.242 -0.3335 -0.2036  0.1080
   12MOL    C5411296   7.039   1.802   2.205 -0.8704  0.7339  0.4048
   12MOL    C5511297   7.011   1.810   2.069 -0.1013  0.2120 -0.6718
   12MOL    C5611298   6.900   1.887   2.034 -0.0179 -0.1811  0.3036
   12MOL    C5711299   6.823   1.959   2.132 -0.1598  0.1078 -0.8907
   12MOL    N5811300   6.715   2.032   2.085 -0.1121 -0.2723 -0.2330
   12MOL    C5911301   6.679   2.160   2.115  0.1079 -0.0234 -0.1395
   12MOL    C6011302   6.748   2.245   2.199  0.1815  0.2349  0.6692
   12MOL    C6111303   6.679   2.367   2.229 -0.0605  0.0930  0.1630
   12MOL    C6211304   6.562   2.408   2.164 -0.7468  0.2016  0.0265
   12MOL    N6311305   6.501   2.529   2.196 -0.0259 -0.4617  0.2265
   12MOL    C6411306   6.572   2.649   2.236  0.7140  0.1829 -0.3860
   12MOL    C6511307   6.514   2.739   2.327 -0.0626 -0.4451 -0.4555
   12MOL    C6611308   6.590   2.851   2.369 -0.0195 -0.0776 -0.0776
   12MOL    C6711309   6.717   2.874   2.321  0.2082 -0.3480  0.4796
   12MOL    N6811310   6.808   2.972   2.378 -0.0039 -0.6720  0.2463
   12MOL    C6911311   6.821   2.999   2.513  0.1272  0.0234 -1.4770
   12MOL    C7011312   6.791   2.903   2.615 -0.3804  0.2074  0.3998
   12MOL    C7111313   6.815   2.932   2.752  0.1540 -0.2875 -0.1508
   12MOL    C7211314   6.857   3.063   2.795  0.3952  0.2671 -0.4803
   12MOL    C7311315   6.877   3.088   2.946 -0.2474  0.6654 -0.0125
   12MOL    C7411316   6.866   3.162   2.693  0.1266 -0.2936  0.6375
   12MOL    C7511317   6.860   3.124   2.559  0.0910  0.2117 -0.1138
   12MOL    C7611318   6.765   2.801   2.210  0.6443 -0.2269 -0.4693
   12MOL    C7711319   6.691   2.685   2.176 -0.1303 -0.0368 -0.1890
   12MOL    C7811320   6.494   2.319   2.079 -0.6941  0.0227 -0.0495
   12MOL    C7911321   6.553   2.195   2.064  0.5252  0.3283  0.5068
   12MOL    C8011322   6.858   1.955   2.267 -0.3824  0.2041  0.2718
   12MOL    C8111323   6.964   1.874   2.306 -0.4472  0.6061  0.0585
   12MOL    H8211324   7.159   1.648   2.162 -2.0571 -0.4433 -0.2811
   12MOL    H8311325   7.072   1.755   1.998 -0.4356  0.3389 -1.0652
   12MOL    H8411326   6.866   1.899   1.933 -1.0222 -0.6682  0.5700
   12MOL    H8511327   6.647   1.982   2.029 -1.0827  0.4075  0.3076
   12MOL    H8611328   6.832   2.214   2.259  0.9687  1.1405  0.0521
   12MOL    H8711329   6.728   2.432   2.301  1.3965 -0.7210 -0.0715
   12MOL    H8811330   6.400   2.526   2.189 -0.0648 -1.5886  1.0197
   12MOL    H8911331   6.411   2.728   2.357  0.5113 -0.6101  1.5462
   12MOL    H9011332   6.566   2.914   2.454  0.9940  3.1292 -2.0719
   12MOL    H9111333   6.878   3.012   2.318  0.5908 -1.5425  0.3553
   12MOL    H9211334   6.755   2.804   2.592  0.4972  0.8512 -4.1745
   12MOL    H9311335   6.802   2.855   2.826 -1.7924 -0.3382 -0.5048
   12MOL    H9411336   6.818   3.176   2.974  0.7985  1.8240 -1.3731
   12MOL    H9511337   6.984   3.100   2.959 -0.2647 -1.2066  2.0963
   12MOL    H9611338   6.899   3.263   2.713 -0.3308  0.3789 -1.8845
   12MOL    H9711339   6.868   3.197   2.480 -1.2050 -0.2895 -0.7123
   12MOL    H9811340   6.860   2.824   2.165  0.4621  0.0174 -0.7318
   12MOL    H9911341   6.729   2.636   2.088  0.4738 -0.1110  0.1045
   12MOL   H10011342   6.395   2.347   2.045 -1.3432 -0.0684  1.7108
   12MOL   H10111343   6.502   2.117   2.010  3.2223 -1.0972 -0.0189
   12MOL   H10211344   6.799   2.011   2.338 -3.6610 -1.7702 -0.7816
   12MOL   H10311345   7.006   1.870   2.406  0.4972 -0.5814 -0.3720
   12MOL   N10411346   6.862   2.966   3.027 -0.3068 -0.0928 -0.1705
   12MOL   C10511347   6.748   2.938   3.099  0.1987  0.2844  0.5357
   12MOL   C10611348   6.740   2.815   3.168  0.1741 -0.1270 -0.9646
   12MOL   C10711349   6.626   2.786   3.241 -0.7394 -0.2685  0.2201
   12MOL   C10811350   6.516   2.875   3.258  0.4496 -0.1939  0.3938
   12MOL   N10911351   6.404   2.839   3.335  0.1037 -0.4110 -0.1329
   12MOL   C11011352   6.292   2.920   3.365 -0.1164  0.9294 -0.6664
   12MOL   C11111353   6.225   2.999   3.268 -0.0668  0.4312 -0.5877
   12MOL   C11211354   6.111   3.069   3.301  0.2860 -0.0387  0.5296
   12MOL   C11311355   6.061   3.070   3.434 -0.3983 -0.4400 -0.1633
   12MOL   N11411356   5.952   3.156   3.461  0.3344 -0.4104 -0.0699
   12MOL   C11511357   5.885   3.176   3.583  0.0003 -0.5166 -0.3198
   12MOL   C11611358   5.745   3.163   3.598  0.6533  0.5889 -0.7648
   12MOL   C11711359   5.683   3.204   3.716  0.5504 -0.1895  0.6580
   12MOL   C11811360   5.756   3.262   3.823 -0.0146 -0.7398  1.3564
   12MOL   N11911361   5.687   3.292   3.938 -0.2167 -0.2618  0.0571
   12MOL   C12011362   5.716   3.410   4.017 -0.0730 -0.1448 -0.2516
   12MOL   C12111363   5.693   3.423   4.157  0.1160 -0.0269  0.7254
   12MOL   C12211364   5.705   3.543   4.219 -0.1276 -0.7916  0.3406
   12MOL   C12311365   5.746   3.655   4.148 -0.1287  0.3300  1.1416
   12MOL   C12411366   5.763   3.787   4.223 -0.1474 -0.5127  0.2764
   12MOL   C12511367   5.757   3.648   4.011  0.1995  0.0815  1.2123
   12MOL   C12611368   5.758   3.523   3.950  0.5121 -0.7167  0.1077
   12MOL   C12711369   5.898   3.269   3.814  0.6619  0.5263 -0.0709
   12MOL   C12811370   5.958   3.232   3.693 -0.5971  0.4598  0.3519
   12MOL   C12911371   6.122   2.988   3.530  0.2603 -0.4193  0.2404
   12MOL   C13011372   6.243   2.917   3.496 -0.2052 -0.6373 -0.2183
   12MOL   C13111373   6.531   3.001   3.194 -0.0169  0.4303  1.1546
   12MOL   C13211374   6.643   3.030   3.110  0.8156  0.1707  0.4454
   12MOL   H13311375   6.921   2.890   2.994 -1.5262 -1.1090 -0.0397
   12MOL   H13411376   6.819   2.742   3.174 -1.8000 -2.1906  0.9375
   12MOL   H13511377   6.623   2.692   3.295  0.2483 -0.9834 -0.9458
   12MOL   H13611378   6.409   2.762   3.400 -1.0546 -1.4700 -1.2992
   12MOL   H13711379   6.254   2.988   3.164  1.9144 -2.0803  0.1968
   12MOL   H13811380   6.063   3.131   3.226  2.5499  1.0473 -0.0648
   12MOL   H13911381   5.946   3.221   3.384  1.1130  0.5603  0.6760
   12MOL   H14011382   5.687   3.137   3.511  2.7238 -0.3157 -1.9183
   12MOL   H14111383   5.577   3.203   3.738  0.6077  0.3275  0.9701
   12MOL   H14211384   5.612   3.227   3.959  1.1944 -1.0426  2.9399
   12MOL   H14311385   5.660   3.338   4.216  0.7481 -0.2216  0.8019
   12MOL   H14411386   5.695   3.548   4.326  0.2550  1.8343  0.2885
   12MOL   H14511387   5.846   3.832   4.169  0.9693 -0.6912  1.8167
   12MOL   H14611388   5.791   3.768   4.327 -0.9571  0.9447  0.7633
   12MOL   H14711389   5.771   3.735   3.949 -0.3713 -0.3167  0.5057
   12MOL   H14811390   5.774   3.512   3.844 -0.6576 -0.9687 -0.0477
   12MOL   H14911391   5.956   3.298   3.900  0.5990  1.2957 -0.2875
   12MOL   H15011392   6.063   3.256   3.681 -0.1746 -0.5382  1.9491
   12MOL   H15111393   6.082   2.979   3.630  1.1266 -2.4133  0.4259
   12MOL   H15211394   6.292   2.860   3.573  1.4833  1.7323  0.5041
   12MOL   H15311395   6.461   3.083   3.200 -1.0273 -0.4802  2.0752
   12MOL   H15411396   6.644   3.120   3.051 -0.0068  0.4030  0.7810
   12MOL   N15511397   5.656   3.881   4.223 -0.0539  0.4303 -0.5456
   12MOL   C15611398   5.666   4.003   4.287 -0.3361  0.6071  0.1335
   12MOL   C15711399   5.787   4.049   4.349 -0.7591  0.8182 -0.0370
   12MOL   C15811400   5.785   4.166   4.419  0.4531  0.3666 -0.1902
   12MOL   C15911401   5.669   4.240   4.438  0.4153 -0.7558  0.1369
   12MOL   N16011402   5.664   4.361   4.510  0.1054 -0.6663 -0.0582
   12MOL   C16111403   5.775   4.425   4.566 -0.0210  0.1862 -0.2160
   12MOL   C16211404   5.850   4.359   4.667  0.3001 -0.2153 -0.1327
   12MOL   C16311405   5.974   4.402   4.715  0.2779 -0.3601 -0.2872
   12MOL   C16411406   6.013   4.534   4.673  0.2138 -1.1333  0.1838
   12MOL   N16511407   6.135   4.580   4.716 -0.1520 -0.2433  0.2823
   12MOL   C16611408   6.218   4.681   4.663 -0.4471 -0.0973 -0.3331
   12MOL   C16711409   6.235   4.703   4.522 -0.4552  0.1896  0.0570
   12MOL   C16811410   6.340   4.783   4.475  0.2520 -0.1107 -0.2571
   12MOL   C16911411   6.415   4.856   4.568 -0.7134  0.0753 -1.0576
   12MOL   N17011412   6.526   4.931   4.531 -0.0463  0.0861 -0.2923
   12MOL   C17111413   6.552   4.994   4.412  0.5938  0.4995 -0.0230
   12MOL   C17211414   6.455   5.043   4.327 -0.3328 -0.0170 -0.0122
   12MOL   C17311415   6.491   5.128   4.224 -0.0319 -0.2932 -0.4848
   12MOL   C17411416   6.630   5.147   4.200  0.3724 -0.1140  0.5131
   12MOL   C17511417   6.675   5.237   4.083  0.3935  0.3841 -0.0340
   12MOL   C17611418   6.729   5.078   4.276  0.5177 -0.0010 -0.6195
   12MOL   C17711419   6.688   4.999   4.377 -0.1228 -0.6879 -0.4098
   12MOL   C17811420   6.388   4.838   4.709  0.5347 -0.4476  0.9809
   12MOL   C17911421   6.289   4.758   4.757 -0.0324  0.5162  0.7446
   12MOL   C18011422   5.941   4.603   4.576 -0.1536  0.0033  0.2542
   12MOL   C18111423   5.821   4.550   4.518 -0.3460  0.5531 -0.3830
   12MOL   C18211424   5.554   4.192   4.378  0.8335  0.7431  0.3724
   12MOL   C18311425   5.545   4.078   4.297  0.4023  0.1258  0.5918
   12MOL   H18411426   5.576   3.871   4.161  0.0208 -1.5381 -0.3666
   12MOL   H18511427   5.880   3.995   4.333 -0.3631  1.0912  1.2448
   12MOL   H18611428   5.875   4.212   4.457  0.0627  0.4273  0.6902
   12MOL   H18711429   5.591   4.422   4.476 -2.4383 -3.5671 -0.1146
   12MOL   H18811430   5.807   4.268   4.707  2.0895 -0.0126  2.3394
   12MOL   H18911431   6.036   4.347   4.784 -0.0087  1.8331  1.7860
   12MOL   H19011432   6.162   4.543   4.807 -0.7218  1.3848  1.1293
   12MOL   H19111433   6.169   4.637   4.468  0.1024 -0.6296  0.3657
   12MOL   H19211434   6.370   4.787   4.371  0.7166  1.9849 -0.0677
   12MOL   H19311435   6.585   4.950   4.610 -0.7052 -2.5950  0.8742
   12MOL   H19411436   6.353   5.018   4.349  0.4217 -1.4774  1.9289
   12MOL   H19511437   6.427   5.173   4.150  0.5944 -0.3222 -1.0571
   12MOL   H19611438   6.783   5.238   4.068  0.5704  1.7650  1.1692
   12MOL   H19711439   6.661   5.342   4.109  2.1817  0.6214  0.0653
   12MOL   H19811440   6.834   5.094   4.253  0.8898  0.4314  1.2948
   12MOL   H19911441   6.761   4.955   4.443  0.4846 -1.4437 -1.5594
   12MOL   H20011442   6.443   4.891   4.786  1.3446 -2.9584  2.1890
   12MOL   H20111443   6.284   4.743   4.864  1.1079  0.1681  0.7523
   12MOL   H20211444   5.977   4.700   4.545  0.5969 -0.4532 -0.3114
   12MOL   H20311445   5.769   4.616   4.450  0.5929  2.0921  0.3435
   12MOL   H20411446   5.466   4.251   4.397  1.0209  0.4766  2.2115
   12MOL   H20511447   5.451   4.041   4.258  2.3617 -1.3918 -2.8704
   12MOL   N20611448   6.608   5.206   3.959 -0.5851  0.1345 -0.1561
   12MOL   C20711449   6.610   5.069   3.921  0.1660 -0.0636  0.1800
   12MOL   C20811450   6.485   5.002   3.913 -0.0714  0.1007  0.3760
   12MOL   C20911451   6.475   4.863   3.873 -0.3362  0.0174 -0.2977
   12MOL   C21011452   6.594   4.798   3.833  0.2578  0.2124  0.3646
   12MOL   N21111453   6.590   4.663   3.795 -0.0826 -0.0873  0.1809
   12MOL   C21211454   6.651   4.603   3.682  0.0333  0.4979  1.1114
   12MOL   C21311455   6.601   4.484   3.628  0.3292 -0.0920 -0.3325
   12MOL   C21411456   6.674   4.411   3.532  0.4949  0.2295 -0.6767
   12MOL   C21511457   6.782   4.466   3.469 -0.2258 -0.2507  0.4912
   12MOL   N21611458   6.848   4.406   3.362 -0.0203  0.0933 -0.1557
   12MOL   C21711459   6.925   4.289   3.375  0.3683 -0.9135 -0.5981
   12MOL   C21811460   7.013   4.248   3.276  0.5425 -0.3953  0.2741
   12MOL   C21911461   7.101   4.138   3.306  0.0381  0.0917  0.7519
   12MOL   C22011462   7.104   4.083   3.436  0.6476 -0.1492  0.0007
   12MOL   N22111463   7.195   3.982   3.465  0.3933  0.2355 -0.0430
   12MOL   C22211464   7.247   3.889   3.372  0.7758  0.4415 -0.4358
   12MOL   C22311465   7.179   3.829   3.265 -0.3714  0.1392 -0.9876
   12MOL   C22411466   7.228   3.731   3.178  0.2670  0.9142  0.1625
   12MOL   C22511467   7.365   3.709   3.190 -0.4556  0.8925 -0.4483
   12MOL   C22611468   7.432   3.614   3.094  0.2062 -0.0567  0.0001
   12MOL   C22711469   7.439   3.759   3.298 -0.2131  0.4681  0.4103
   12MOL   C22811470   7.380   3.847   3.392  0.6474 -0.1089  0.9112
   12MOL   C22911471   7.015   4.132   3.536 -1.3139 -0.0233 -0.0963
   12MOL   C23011472   6.923   4.225   3.501  0.7741 -0.5491 -0.2224
   12MOL   C23111473   6.815   4.601   3.512 -0.1481 -0.1640 -0.7806
   12MOL   C23211474   6.752   4.670   3.615  0.2156 -0.2589  0.7094
   12MOL   C23311475   6.715   4.865   3.851  0.1749 -0.1384 -0.7631
   12MOL   C23411476   6.726   5.003   3.888  0.3826  0.0864  0.4449
   12MOL   H23511477   6.512   5.237   3.957 -0.6682 -0.0705  0.5387
   12MOL   H23611478   6.403   5.066   3.943 -0.7611 -0.2902 -0.6789
   12MOL   H23711479   6.375   4.822   3.868 -0.0236 -0.5839 -1.7832
   12MOL   H23811480   6.501   4.615   3.806 -1.2634  1.6116 -1.6968
   12MOL   H23911481   6.520   4.430   3.674  0.6586  1.1558  1.7476
   12MOL   H24011482   6.632   4.318   3.496  2.5669 -0.6871 -0.7925
   12MOL   H24111483   6.866   4.463   3.280  0.3715  1.1845  0.6802
   12MOL   H24211484   7.011   4.297   3.180 -0.7104 -3.3153 -1.2488
   12MOL   H24311485   7.162   4.109   3.222 -1.0726  1.0366 -0.3997
   12MOL   H24411486   7.202   3.949   3.560  0.5755 -1.2958 -0.5895
   12MOL   H24511487   7.080   3.863   3.240 -0.4169 -1.2340 -2.8185
   12MOL   H24611488   7.176   3.704   3.087 -2.5900  1.7075  1.5103
   12MOL   H24711489   7.368   3.540   3.046 -0.5656  0.8610 -0.4100
   12MOL   H24811490   7.502   3.551   3.148  1.7611  1.0296 -0.7223
   12MOL   H24911491   7.542   3.728   3.295 -1.5231 -4.2668 -1.3062
   12MOL   H25011492   7.428   3.902   3.471  0.8498  1.8531 -0.5335
   12MOL   H25111493   7.006   4.083   3.631 -2.4242  1.9216  0.8387
   12MOL   H25211494   6.852   4.258   3.576  1.9295  0.0644  0.6238
   12MOL   H25311495   6.901   4.650   3.469  1.2538  0.4718  2.6427
   12MOL   H25411496   6.782   4.772   3.632  0.2929 -0.0584 -0.5983
   12MOL   H25511497   6.809   4.816   3.833 -0.0485 -0.8710  0.0629
   12MOL   H25611498   6.821   5.053   3.902  0.5285 -0.7610  2.6925
   12MOL   N25711499   7.506   3.680   2.988 -0.4338  0.5823  0.2189
   12MOL   C25811500   7.583   3.595   2.906  0.2201 -0.1587  0.2730
   12MOL   C25911501   7.618   3.464   2.944 -0.2544 -0.9191 -0.0725
   12MOL   C26011502   7.700   3.389   2.859  0.0106  0.3883 -0.3623
   12MOL   C26111503   7.741   3.434   2.733  0.3253  0.3959  0.4628
   12MOL   N26211504   7.810   3.354   2.644  0.2390 -0.0870 -0.2218
   12MOL   C26311505   7.817   3.354   2.503 -0.2499  0.2657  0.3371
   12MOL   C26411506   7.932   3.305   2.442  0.4582  0.3034  0.3731
   12MOL   C26511507   7.938   3.300   2.298  0.3459 -0.0976  0.3042
   12MOL   C26611508   7.830   3.349   2.221 -0.0755  0.5687  0.4094
   12MOL   N26711509   7.826   3.355   2.079 -0.6966  0.2008 -0.6908
   12MOL   C26811510   7.879   3.275   1.976  0.0787 -0.7610  0.8250
   12MOL   C26911511   7.910   3.141   1.992 -0.8557 -0.2147 -0.1976
   12MOL   C27011512   7.945   3.060   1.885  0.2420  0.2150  0.1642
   12MOL   C27111513   7.972   3.122   1.759  0.8039  0.3549 -0.5096
   12MOL   N27211514   0.041   3.045   1.656  0.5359  0.7526 -0.2058
   12MOL   C27311515   0.154   2.968   1.667 -0.5093 -0.4330  0.3894
   12MOL   C27411516   0.247   2.988   1.766  0.1262 -0.3321  0.7186
   12MOL   C27511517   0.360   2.901   1.783  0.2305  0.2664 -0.5024
   12MOL   C27611518   0.382   2.793   1.694 -0.6820  0.0574  0.1249
   12MOL   C27711519   0.500   2.706   1.713 -0.3983  0.5417 -0.2267
   12MOL   C27811520   0.281   2.769   1.590  0.0156 -0.8175 -0.4082
   12MOL   C27911521   0.173   2.863   1.574  0.2648  0.6435  0.4914
   12MOL   C28011522   7.949   3.258   1.741  0.4963 -0.9346  0.4158
   12MOL   C28111523   7.905   3.334   1.847  0.3714 -0.4772 -0.4484
   12MOL   C28211524   7.713   3.397   2.288 -0.3291  0.1785  0.7551
   12MOL   C28311525   7.704   3.386   2.431 -0.1808 -1.0853  0.3276
   12MOL   C28411526   7.707   3.567   2.698  0.0331 -0.0536  0.6729
   12MOL   C28511527   7.627   3.645   2.781  0.7064  0.3596 -0.1066
   12MOL   H28611528   7.478   3.767   2.944 -0.6068  0.7098  0.5772
   12MOL   H28711529   7.589   3.419   3.038 -1.0736  0.5920  0.4074
   12MOL   H28811530   7.728   3.292   2.899 -0.3458  0.3134 -0.2935
   12MOL   H28911531   7.831   3.267   2.690  0.6544 -0.9085 -1.9365
   12MOL   H29011532   0.040   3.288   2.500 -0.0291 -0.9110  0.7820
   12MOL   H29111533   0.048   3.285   2.245  0.2017  2.6480 -0.8014
   12MOL   H29211534   7.773   3.438   2.057 -2.9250  0.0395  3.5785
   12MOL   H29311535   7.893   3.093   2.087  2.8534  0.6467  0.9758
   12MOL   H29411536   7.959   2.955   1.901  2.3806 -0.0768 -3.1077
   12MOL   H29511537   7.955   3.011   1.590 -0.4767 -1.0728  1.7161
   12MOL   H29611538   0.239   3.070   1.836  0.0585 -0.6936  1.1432
   12MOL   H29711539   0.432   2.938   1.856 -0.7143  0.4354  0.3607
   12MOL   H29811540   0.451   2.609   1.720 -1.7620  1.3454  1.6068
   12MOL   H29911541   0.543   2.724   1.811 -1.7331  1.2381  0.2516
   12MOL   H30011542   0.303   2.688   1.522  0.6242  0.9683 -2.4198
   12MOL   H30111543   0.108   2.843   1.490  4.1524 -0.5851 -2.3352
   12MOL   H30211544   7.968   3.312   1.650 -2.9507 -0.9318 -0.3542
   12MOL   H30311545   7.876   3.437   1.833 -0.7163 -0.6618  0.3868
   12MOL   H30411546   7.624   3.418   2.231  0.4044  1.9574  0.2138
   12MOL   H30511547   7.614   3.419   2.480  0.7920  1.9088  0.1754
   12MOL   H30611548   7.734   3.607   2.601 -0.3626  1.7610  1.2920
   12MOL   H30711549   7.598   3.738   2.734 -2.5847 -0.5429 -0.0029
   12MOL   N30811550   0.599   2.714   1.605  0.1071 -0.0560 -0.6322
   12MOL   C30911551   0.696   2.617   1.599 -0.7628  0.4494 -0.2215
   12MOL   C31011552   0.700   2.493   1.667 -0.6750 -0.1274  0.3320
   12MOL   C31111553   0.803   2.396   1.641  0.4497 -0.8493  0.0369
   12MOL   C31211554   0.918   2.436   1.561  0.6009 -0.0678 -0.1152
   12MOL   N31311555   1.029   2.354   1.536  0.2138  1.1091 -0.6534
   12MOL   C31411556   1.053   2.224   1.587 -0.6441  0.2797  0.0799
   12MOL   C31511557   1.046   2.195   1.726  0.3439  0.1049 -0.3971
   12MOL   C31611558   1.085   2.076   1.782  0.2925  0.5050  0.1127
   12MOL   C31711559   1.142   1.978   1.697 -0.3769  0.1212 -0.5053
   12MOL   N31811560   1.184   1.854   1.749 -0.1887 -0.3673 -0.0766
   12MOL   C31911561   1.278   1.834   1.852 -0.0959 -0.5160  0.1331
   12MOL   C32011562   1.302   1.697   1.883 -0.1634 -0.8126 -0.3294
   12MOL   C32111563   1.387   1.660   1.994 -0.1834 -0.3269 -0.7182
   12MOL   C32211564   1.450   1.766   2.061 -0.1427  0.3575  0.4421
   12MOL   N32311565   1.528   1.719   2.173  0.6925 -0.3596  0.0477
   12MOL   C32411566   1.560   1.786   2.297  0.1521 -0.7216 -0.4515
   12MOL   C32511567   1.474   1.884   2.360  0.5415 -0.0612 -0.0307
   12MOL   C32611568   1.501   1.931   2.490 -0.1128 -0.6121  0.4220
   12MOL   C32711569   1.616   1.883   2.550 -0.5334  0.3181  0.1512
   12MOL   C32811570   1.655   1.954   2.679  0.3030 -0.2590 -0.7289
   12MOL   C32911571   1.705   1.784   2.487  1.0710 -0.0860 -0.8926
   12MOL   C33011572   1.675   1.745   2.362  0.0826  0.7593  0.3992
   12MOL   C33111573   1.435   1.901   2.026  0.3453 -0.0935  0.1878
   12MOL   C33211574   1.355   1.936   1.918 -0.5001  0.4681  0.2273
   12MOL   C33311575   1.144   2.002   1.560  0.6691  0.0399  0.5151
   12MOL   C33411576   1.105   2.123   1.501  0.2005 -0.0234 -0.8516
   12MOL   C33511577   0.922   2.567   1.503  0.1230 -0.0778  0.2624
   12MOL   C33611578   0.812   2.654   1.530  0.1161  0.9354  1.0910
   12MOL   H33711579   0.628   2.809   1.587 -1.5218  0.7337  0.7571
   12MOL   H33811580   0.626   2.452   1.734 -0.2478 -3.4330 -1.1273
   12MOL   H33911581   0.805   2.301   1.691 -1.2997 -0.4478  0.9094
   12MOL   H34011582   1.072   2.371   1.446  0.1491 -0.0638 -0.9171
   12MOL   H34111583   0.999   2.274   1.784  2.3502  1.0774 -0.0550
   12MOL   H34211584   1.085   2.067   1.889  0.3483  0.1412  0.0847
   12MOL   H34311585   1.199   1.777   1.685  0.7039  0.0980 -0.4269
   12MOL   H34411586   1.245   1.616   1.841 -2.6040  1.6536 -1.9412
   12MOL   H34511587   1.384   1.556   2.026 -1.1664  0.7078  2.8152
   12MOL   H34611588   1.554   1.622   2.170  0.4921 -0.3717 -2.1606
   12MOL   H34711589   1.383   1.920   2.315 -0.8385 -2.6061  0.6214
   12MOL   H34811590   1.442   2.009   2.535 -0.1643  0.4020 -1.3345
   12MOL   H34911591   1.578   1.949   2.756  0.6065  0.2450 -0.3848
   12MOL   H35011592   1.667   2.061   2.662 -0.8364 -0.0551 -0.3086
   12MOL   H35111593   1.803   1.764   2.527  0.6089  0.3180  0.4748
   12MOL   H35211594   1.739   1.668   2.322 -0.6885 -0.7273  1.9672
   12MOL   H35311595   1.485   1.978   2.083  1.0903  0.1596 -0.8052
   12MOL   H35411596   1.348   2.039   1.886  0.0459 -0.2219 -2.2209
   12MOL   H35511597   1.169   1.924   1.490  1.1383 -0.3923  1.1470
   12MOL   H35611598   1.107   2.132   1.394 -0.7025 -0.8248 -0.9373
   12MOL   H35711599   1.017   2.602   1.466  0.3552 -0.4715  0.4830
   12MOL   H35811600   0.821   2.750   1.482  0.4853  0.7189  0.7215
   12MOL   N35911601   1.785   1.916   2.734  0.2433 -0.0602  0.0323
   12MOL   C36011602   1.902   1.990   2.715 -0.8011  0.3035 -0.0433
   12MOL   C36111603   1.996   2.016   2.817  0.7160 -0.0554 -0.5154
   12MOL   C36211604   2.108   2.097   2.795  0.1823  0.5111 -0.2871
   12MOL   C36311605   2.138   2.153   2.672  0.3578  0.5018 -0.2623
   12MOL   N36411606   2.253   2.226   2.661  0.3406 -0.0997  0.1145
   12MOL   C36511607   2.255   2.358   2.620 -0.2127 -0.5333 -0.6339
   12MOL   C36611608   2.386   2.412   2.631  0.1790  0.0687 -0.6238
   12MOL   C36711609   2.406   2.551   2.597 -0.6951 -0.5428 -0.6876
   12MOL   C36811610   2.294   2.633   2.558  0.1275  0.4050 -0.6712
   12MOL   N36911611   2.316   2.771   2.564  0.0301 -0.2353  0.0655
   12MOL   C37011612   2.264   2.876   2.488  0.2550 -0.5201  0.0608
   12MOL   C37111613   2.208   2.850   2.361 -0.0039 -0.0365 -0.3095
   12MOL   C37211614   2.149   2.954   2.278  0.1485 -0.1957  0.4464
   12MOL   C37311615   2.122   3.078   2.338  0.3764 -0.1828  0.0230
   12MOL   N37411616   2.046   3.179   2.276 -0.4501 -0.5185 -0.5203
   12MOL   C37511617   1.965   3.176   2.160 -0.2390  0.8978 -0.8161
   12MOL   C37611618   1.971   3.274   2.060 -0.3104 -0.4364 -0.6651
   12MOL   C37711619   1.906   3.259   1.937  0.3612  0.0851 -0.2150
   12MOL   C37811620   1.839   3.141   1.906  0.1826 -0.1029  0.2298
   12MOL   C37911621   1.768   3.131   1.773 -0.4335  0.0598  0.0182
   12MOL   C38011622   1.829   3.039   2.005  0.3107  0.7226  0.2278
   12MOL   C38111623   1.888   3.059   2.130 -0.6867 -0.2074 -0.6453
   12MOL   C38211624   2.166   3.094   2.473  0.1053 -0.3845  0.3698
   12MOL   C38311625   2.243   2.997   2.544  0.1472 -0.0547  0.5006
   12MOL   C38411626   2.167   2.571   2.545  0.1932 -0.2847 -0.3934
   12MOL   C38511627   2.147   2.442   2.576 -0.0539 -0.3680  0.4450
   12MOL   C38611628   2.046   2.132   2.566 -0.4824 -0.1888 -0.2887
   12MOL   C38711629   1.932   2.050   2.591  0.3631 -0.9006  0.6411
   12MOL   H38811630   1.782   1.866   2.822 -0.0966  2.2844  1.3994
   12MOL   H38911631   1.985   1.971   2.915  2.3821  0.1312 -0.2140
   12MOL   H39011632   2.174   2.130   2.874 -0.4180  1.4078 -0.1653
   12MOL   H39111633   2.338   2.192   2.704  0.8227  1.8906  0.7752
   12MOL   H39211634   2.467   2.350   2.666 -0.0329  1.5045  2.6611
   12MOL   H39311635   2.498   2.598   2.626 -0.2709 -1.1953 -0.9635
   12MOL   H39411636   2.398   2.793   2.619  0.5347  2.0313 -1.5167
   12MOL   H39511637   2.214   2.749   2.322  0.0844 -0.6360  1.2195
   12MOL   H39611638   2.114   2.931   2.178  0.9577 -1.3539  0.4154
   12MOL   H39711639   2.042   3.267   2.327 -0.5772  0.1816 -1.7136
   12MOL   H39811640   2.046   3.349   2.079  0.7093 -1.7154  0.4803
   12MOL   H39911641   1.920   3.336   1.863 -2.7961 -1.1013 -2.1325
   12MOL   H40011642   1.848   3.095   1.708  0.6263 -1.8663  2.3089
   12MOL   H40111643   1.743   3.230   1.735  1.9180  0.9230  0.5966
   12MOL   H40211644   1.778   2.946   1.981 -0.0585  0.9544  0.1027
   12MOL   H40311645   1.901   2.975   2.196  0.3399  1.5078  1.4003
   12MOL   H40411646   2.139   3.187   2.519  2.8729  0.2707  0.7787
   12MOL   H40511647   2.271   3.004   2.649  0.4468  0.3571  0.3982
   12MOL   H40611648   2.084   2.631   2.511 -1.0840 -1.5664  0.4028
   12MOL   H40711649   2.041   2.420   2.565 -0.2060 -0.1732  1.5182
   12MOL   H40811650   2.066   2.186   2.475 -1.0322  2.3218  1.0475
   12MOL   H40911651   1.869   2.039   2.505 -0.1236  0.6192  0.8009
   12MOL   N41011652   1.661   3.026   1.764 -0.2380 -0.4673 -0.3969
   12MOL   C41111653   1.544   3.028   1.843 -0.2381  0.5055 -0.1999
   12MOL   C41211654   1.481   2.911   1.884  0.2038 -0.2942 -0.6788
   12MOL   C41311655   1.357   2.917   1.945 -0.3938 -0.8154 -0.0440
   12MOL   C41411656   1.297   3.046   1.969  0.5580  0.0457  0.2671
   12MOL   N41511657   1.174   3.051   2.034  0.5356 -0.6194  0.1863
   12MOL   C41611658   1.131   3.162   2.111 -0.0555  0.2137 -0.1437
   12MOL   C41711659   1.213   3.218   2.216 -0.1432 -0.3557 -0.7187
   12MOL   C41811660   1.188   3.344   2.267 -0.5449  0.3419 -0.3129
   12MOL   C41911661   1.076   3.409   2.220  1.0218 -0.6602 -0.0441
   12MOL   N42011662   1.032   3.525   2.284  0.1561 -0.7439  0.9088
   12MOL   C42111663   1.100   3.638   2.337  0.1883  0.6688  0.3283
   12MOL   C42211664   1.230   3.667   2.303  0.3229 -0.5639 -0.5437
   12MOL   C42311665   1.295   3.779   2.358  0.5487  0.9106  0.2056
   12MOL   C42411666   1.224   3.870   2.434  0.6959 -0.0511  0.0572
   12MOL   N42511667   1.283   3.993   2.469  0.2351 -0.2823  0.6455
   12MOL   C42611668   1.315   4.097   2.375  0.4137  0.5287 -0.4884
   12MOL   C42711669   1.289   4.085   2.240  0.0760  0.4811  0.0428
   12MOL   C42811670   1.324   4.189   2.157 -0.3717  0.6006 -0.2883
   12MOL   C42911671   1.402   4.297   2.202 -0.3575 -0.8426  0.6247
   12MOL   C43011672   1.449   4.414   2.108  0.1975  0.1375 -0.5953
   12MOL   C43111673   1.426   4.313   2.343  0.9051 -0.2872  0.2867
   12MOL   C43211674   1.392   4.205   2.429  0.4694 -0.1852 -0.2844
   12MOL   C43311675   1.090   3.839   2.464 -0.5071  0.1625 -0.2226
   12MOL   C43411676   1.028   3.719   2.427  0.8899  0.2353 -0.4119
   12MOL   C43511677   0.989   3.354   2.123  0.0153 -0.8911  0.2775
   12MOL   C43611678   1.026   3.231   2.058 -0.7777 -0.5154 -0.3161
   12MOL   C43711679   1.356   3.166   1.927  0.5078 -0.1608 -0.6282
   12MOL   C43811680   1.484   3.155   1.867  0.1965 -0.2996  0.2980
   12MOL   H43911681   1.680   2.934   1.727 -0.5454 -0.2305 -1.1476
   12MOL   H44011682   1.528   2.815   1.868 -0.6744 -0.9735  0.7195
   12MOL   H44111683   1.321   2.821   1.978  2.8898 -1.8782  0.6354
   12MOL   H44211684   1.120   2.973   2.001 -0.2071 -1.4468  3.1867
   12MOL   H44311685   1.304   3.167   2.244 -0.3188 -0.2720  0.0145
   12MOL   H44411686   1.254   3.391   2.338 -0.9350 -0.5202  0.6230
   12MOL   H44511687   0.933   3.512   2.302  0.2115 -2.2154  0.2433
   12MOL   H44611688   1.288   3.608   2.234 -0.8940 -0.5758 -1.5761
   12MOL   H44711689   1.400   3.790   2.334  0.3776 -0.7203 -1.4052
   12MOL   H44811690   1.282   4.012   2.568  3.2615 -0.1161  0.6768
   12MOL   H44911691   1.243   3.995   2.204 -0.5599  1.0555 -0.5907
   12MOL   H45011692   1.288   4.195   2.056 -2.3132  2.8047  0.4884
   12MOL   H45111693   1.557   4.410   2.100  0.3477 -0.1267  1.3106
   12MOL   H45211694   1.434   4.506   2.164 -1.3070 -1.3354  1.4833
   12MOL   H45311695   1.481   4.393   2.389 -0.1074  0.4313  0.2479
   12MOL   H45411696   1.418   4.206   2.534 -0.0186 -1.8011 -0.1428
   12MOL   H45511697   1.034   3.914   2.516 -0.0737  1.2311 -1.2773
   12MOL   H45611698   0.926   3.701   2.460  1.4800 -2.6233 -0.0237
   12MOL   H45711699   0.904   3.410   2.088 -0.9895 -2.1713  0.6026
   12MOL   H45811700   0.962   3.200   1.977 -1.4856 -2.2244  0.8667
   12MOL   H45911701   1.318   3.266   1.935  1.3813  0.0482  1.3108
   12MOL   H46011702   1.534   3.248   1.844  1.5463 -1.3252 -1.0058
   12MOL   N46111703   1.402   4.401   1.972  0.3455 -0.1033 -0.7535
   12MOL   C46211704   1.299   4.472   1.922 -0.4279 -0.9494 -0.4707
   12MOL   C46311705   1.236   4.576   1.995 -0.1262 -0.3462 -0.5103
   12MOL   C46411706   1.133   4.649   1.934 -0.4103 -0.6177 -0.2803
   12MOL   C46511707   1.088   4.616   1.808  0.2817 -0.3698 -0.3077
   12MOL   N46611708   0.977   4.679   1.747  0.5518 -0.8784 -0.3803
   12MOL   C46711709   0.941   4.813   1.748 -0.0499  0.1846 -0.7381
   12MOL   C46811710   0.807   4.849   1.730 -0.4728  0.4187 -0.8811
   12MOL   C46911711   0.768   4.987   1.726 -0.9869  0.0339  0.0394
   12MOL   C47011712   0.862   5.084   1.759 -0.3870 -0.4280  0.0295
   12MOL   N47111713   0.827   5.215   1.782  0.1262  0.5493  0.1419
   12MOL   C47211714   0.708   5.288   1.762 -0.0823 -0.0441  0.1568
   12MOL   C47311715   0.675   5.386   1.859 -0.2191  0.6862 -0.2728
   12MOL   C47411716   0.560   5.466   1.849  0.3075  0.1366  0.5283
   12MOL   C47511717   0.472   5.439   1.738 -0.2956 -0.6382  0.4704
   12MOL   N47611718   0.344   5.498   1.741 -0.0893  0.7269  0.4115
   12MOL   C47711719   0.252   5.502   1.843  1.3681 -0.1592 -0.6248
   12MOL   C47811720   0.138   5.584   1.837 -0.6190  0.5227  0.2096
   12MOL   C47911721   0.051   5.598   1.948  0.3093 -0.9284 -0.2219
   12MOL   C48011722   0.062   5.515   2.060 -0.5275  0.0043 -0.0035
   12MOL   C48111723   7.949   5.531   2.175 -0.4141  0.2933  0.1411
   12MOL   C48211724   0.184   5.442   2.069  0.0908  0.0520  0.3413
   12MOL   C48311725   0.276   5.433   1.966  0.9283 -0.1221  0.3865
   12MOL   C48411726   0.506   5.352   1.633 -0.1146  0.1257 -0.0559
   12MOL   C48511727   0.627   5.279   1.647 -0.4011 -0.6163 -0.0108
   12MOL   C48611728   0.998   5.053   1.777  0.4136 -0.1985 -0.2558
   12MOL   C48711729   1.040   4.914   1.761  0.3260 -0.1474  0.3601
   12MOL   C48811730   1.144   4.506   1.739 -0.0904  0.3506  0.0463
   12MOL   C48911731   1.248   4.438   1.797  0.3449 -0.2765  0.3595
   12MOL   H49011732   1.434   4.316   1.927 -0.3103 -1.1312  0.6382
   12MOL   H49111733   1.257   4.604   2.097 -0.5131 -0.6782 -0.3365
   12MOL   H49211734   1.097   4.732   1.992  2.0672 -0.7402  1.5139
   12MOL   H49311735   0.898   4.619   1.730 -0.1328  0.0746 -0.5912
   12MOL   H49411736   0.739   4.766   1.719  0.1779  0.1990 -3.4814
   12MOL   H49511737   0.662   5.004   1.714 -1.3240 -1.7923  0.2809
   12MOL   H49611738   0.898   5.280   1.815 -0.6644  1.3316  0.3259
   12MOL   H49711739   0.742   5.400   1.942  1.5443 -3.8756 -0.7984
   12MOL   H49811740   0.546   5.544   1.922  0.3684  1.0074 -0.3857
   12MOL   H49911741   0.305   5.502   1.647  0.7549 -0.2972  0.0069
   12MOL   H50011742   0.118   5.641   1.747 -1.4281 -1.9356 -1.2103
   12MOL   H50111743   7.939   5.652   1.946 -0.4865 -2.1512  2.0687
   12MOL   H50211744   7.846   5.538   2.138 -0.2193 -0.1610 -0.4873
   12MOL   H50311745   0.001   5.628   2.212  0.6342 -0.3159  0.7814
   12MOL   H50411746   0.198   5.386   2.161  1.3362 -1.5150 -0.7798
   12MOL   H50511747   0.353   5.358   1.974 -1.3696 -2.7721 -1.4059
   12MOL   H50611748   0.431   5.339   1.556 -0.3343 -1.3567  0.3874
   12MOL   H50711749   0.662   5.207   1.575  1.2410 -0.8566  1.0079
   12MOL   H50811750   1.077   5.121   1.804  0.1462 -0.0624  0.1983
   12MOL   H50911751   1.140   4.877   1.777 -0.0021 -0.8703  0.7438
   12MOL   H51011752   1.108   4.493   1.639  0.0330  2.4166 -0.3025
   12MOL   H51111753   1.286   4.352   1.744 -2.7662 -1.1879 -0.4995
   12MOL   N51211754   7.959   5.433   2.280 -0.2664  0.2155  0.3617
   12MOL   C51311755   7.895   5.310   2.267 -0.4057 -0.3885  0.4142
   12MOL   C51411756   7.967   5.194   2.265  0.7125  0.1921  0.2178
   12MOL   C51511757   7.904   5.073   2.247  0.0840  0.1335  0.5248
   12MOL   C51611758   7.765   5.065   2.235 -0.0987  0.6533 -0.2386
   12MOL   N51711759   7.710   4.932   2.221 -0.2238 -0.4854  0.0651
   12MOL   C51811760   7.570   4.906   2.219  0.6190 -0.0013 -0.0899
   12MOL   C51911761   7.520   4.833   2.113 -0.2921  0.0828 -0.5081
   12MOL   C52011762   7.382   4.800   2.099 -0.3837  0.4588  0.1360
   12MOL   C52111763   7.293   4.843   2.200  0.0537 -0.3995  0.0235
   12MOL   N52211764   7.162   4.799   2.192 -0.5606  0.6996 -0.4849
   12MOL   C52311765   7.094   4.761   2.075 -0.3226 -0.5025  0.7998
   12MOL   C52411766   7.003   4.652   2.071 -0.2986 -0.3312 -0.9787
   12MOL   C52511767   6.934   4.627   1.951 -0.5313 -0.1315  0.3359
   12MOL   C52611768   6.956   4.707   1.838 -0.4597 -0.8311 -0.1864
   12MOL   N52711769   6.893   4.666   1.722 -0.6285 -0.4445 -0.9590
   12MOL   C52811770   6.944   4.710   1.595  0.3689 -0.8711 -0.4687
   12MOL   C52911771   7.028   4.622   1.523  0.4341  0.1866  0.1131
   12MOL   C53011772   7.075   4.661   1.398  0.9717 -0.3026 -0.1047
   12MOL   C53111773   7.046   4.790   1.346  0.2863 -0.0564 -0.0073
   12MOL   C53211774   7.094   4.825   1.202 -0.0902 -0.4552 -0.9412
   12MOL   C53311775   6.958   4.877   1.418 -0.4168  0.4158  0.1348
   12MOL   C53411776   6.910   4.835   1.542  0.2145 -0.2380  0.3179
   12MOL   C53511777   7.038   4.825   1.849 -0.2947  0.1159  0.7803
   12MOL   C53611778   7.103   4.853   1.968 -0.3139 -0.9903 -0.4513
   12MOL   C53711779   7.344   4.915   2.307  0.3373 -0.2096 -0.7624
   12MOL   C53811780   7.477   4.943   2.318 -0.2626  0.5672  0.0620
   12MOL   C53911781   7.692   5.180   2.244  0.3314 -0.0677 -0.3473
   12MOL   C54011782   7.754   5.307   2.264  0.1235  0.5599  0.0621
   12MOL   H54111783   0.070   5.443   2.318  0.0238  1.0199 -0.5299
   12MOL   H54211784   0.093   5.193   2.266  0.7493 -1.8601 -1.2634
   12MOL   H54311785   7.962   4.984   2.231  0.5556  0.4845  0.2660
   12MOL   H54411786   7.763   4.884   2.149 -0.8694 -1.1920  0.0548
   12MOL   H54511787   7.599   4.803   2.045  0.5299 -1.0889  0.9449
   12MOL   H54611788   7.356   4.757   2.003 -0.6563  1.7787 -0.3898
   12MOL   H54711789   7.112   4.783   2.278  0.8185 -0.9970  0.0182
   12MOL   H54811790   7.003   4.577   2.149  0.7282 -1.0596 -1.6646
   12MOL   H54911791   6.873   4.538   1.951  0.3351 -0.7370  1.3031
   12MOL   H55011792   6.867   4.569   1.728 -0.1255 -0.4219  3.0523
   12MOL   H55111793   7.061   4.525   1.557 -2.9495 -1.7358 -1.8036
   12MOL   H55211794   7.152   4.608   1.344  1.8814  0.4086  0.4708
   12MOL   H55311795   7.194   4.782   1.210 -0.3832 -0.7141  1.6134
   12MOL   H55411796   7.101   4.931   1.178 -1.1285 -0.4278 -1.1433
   12MOL   H55511797   6.913   4.960   1.365 -0.0902 -0.7346 -1.9984
   12MOL   H55611798   6.834   4.889   1.597 -1.4444 -1.8986 -0.3120
   12MOL   H55711799   7.035   4.894   1.766 -0.7655  0.5941  1.1841
   12MOL   H55811800   7.168   4.939   1.964 -1.8308  0.1321 -1.3850
   12MOL   H55911801   7.270   4.934   2.384 -0.1765 -0.9123 -1.0765
   12MOL   H56011802   7.520   4.988   2.406 -0.8747  0.3860  0.4487
   12MOL   H56111803   7.585   5.183   2.235  0.1224 -3.5268  0.3918
   12MOL   H56211804   7.698   5.398   2.278 -0.3941  0.4935 -1.4891
   12MOL   N56311805   7.041   4.736   1.100 -0.0989  0.4680  0.2644
   12MOL   C56411806   7.036   4.772   0.968  0.8027  0.4588  0.5610
   12MOL   C56511807   6.922   4.748   0.889  0.0356  0.3329  0.3055
   12MOL   C56611808   6.909   4.803   0.759  0.5263 -0.2085 -0.3512
   12MOL   C56711809   7.013   4.877   0.702 -0.8808  0.9488  0.9721
   12MOL   N56811810   7.013   4.925   0.570 -0.1387 -0.6742  0.3325
   12MOL   C56911811   7.126   4.950   0.484  0.8933  0.6141 -0.2318
   12MOL   C57011812   7.239   4.865   0.476 -0.4253  0.0236 -0.0484
   12MOL   C57111813   7.333   4.883   0.376  0.1535  0.6762  0.0666
   12MOL   C57211814   7.324   4.996   0.292 -0.4660  0.1488  0.3441
   12MOL   N57311815   7.421   5.009   0.189 -0.6885  0.1680 -0.3389
   12MOL   C57411816   7.418   5.093   0.076 -0.1298  0.1017 -0.0253
   12MOL   C57511817   7.539   5.146   0.022 -0.1304 -0.2088 -0.3004
   12MOL   C57611818   7.537   5.221   7.887 -0.5058 -0.2510  0.8080
   12MOL   C57711819   7.421   5.260   7.825  0.5938 -0.3468 -0.7256
   12MOL   N57811820   7.426   5.337   7.710  0.4280 -0.3499  0.5372
   12MOL   C57911821   7.334   5.328   7.605 -0.1930  0.6405  0.5274
   12MOL   C58011822   7.299   5.453   7.542 -0.3502  0.7655  0.0369
   12MOL   C58111823   7.203   5.454   7.434 -0.0767 -0.6177  0.7461
   12MOL   C58211824   7.130   5.337   7.403 -0.2423 -1.1622 -0.5238
   12MOL   C58311825   7.004   5.346   7.320  0.2019 -0.5180 -0.3794
   12MOL   C58411826   7.161   5.216   7.476  0.2927  0.1569 -0.0288
   12MOL   C58511827   7.264   5.210   7.570  0.1292  0.1250  0.0684
   12MOL   C58611828   7.300   5.214   7.882 -0.8277  0.1240  0.0228
   12MOL   C58711829   7.299   5.136   0.020  0.1306  0.4031 -0.3255
   12MOL   C58811830   7.214   5.090   0.306 -0.3133 -0.2791  0.5654
   12MOL   C58911831   7.110   5.060   0.399  0.0847  0.0928 -0.1210
   12MOL   C59011832   7.132   4.893   0.775  0.1049  0.1011 -0.1017
   12MOL   C59111833   7.148   4.834   0.905 -0.6920 -0.2061 -0.1623
   12MOL   H59211834   6.973   4.668   1.132  0.0651 -0.6407 -1.6747
   12MOL   H59311835   6.833   4.701   0.927  1.5302 -0.5226  2.8963
   12MOL   H59411836   6.818   4.794   0.702  1.2187  1.1739 -1.6822
   12MOL   H59511837   6.919   4.942   0.537  0.8325  0.8042 -1.7725
   12MOL   H59611838   7.262   4.785   0.545 -0.0070 -2.3909 -2.8824
   12MOL   H59711839   7.411   4.810   0.361  0.0245  0.5673 -0.0699
   12MOL   H59811840   7.514   4.978   0.215 -0.5689 -1.0607 -2.1425
   12MOL   H59911841   7.632   5.106   0.062 -1.2702  0.3936  3.0603
   12MOL   H60011842   7.629   5.259   7.844 -0.9189  2.6514  2.3602
   12MOL   H60111843   7.472   5.427   7.713 -1.5740  0.6959  0.9908
   12MOL   H60211844   7.355   5.541   7.569 -0.3027  0.8300 -0.2672
   12MOL   H60311845   7.182   5.551   7.392  2.1764 -1.1497 -1.7395
   12MOL   H60411846   6.963   5.248   7.294  1.7104 -1.6420  1.3949
   12MOL   H60511847   7.023   5.411   7.234  0.6839  1.0404  0.8730
   12MOL   H60611848   7.097   5.129   7.468  0.9179 -0.1987 -1.3541
   12MOL   H60711849   7.266   5.126   7.638 -0.2649 -0.3032 -0.4431
   12MOL   H60811850   7.204   5.251   7.850 -1.0691 -1.1733 -0.7857
   12MOL   H60911851   7.210   5.087   0.056  0.4991  0.0992  0.1728
   12MOL   H61011852   7.207   5.182   0.249 -2.4464  0.3104  1.7472
   12MOL   H61111853   7.028   5.130   0.410  0.9639  1.3197 -1.2381
   12MOL   H61211854   7.202   4.959   0.725  0.7350 -1.2379 -1.0207
   12MOL   H61311855   7.232   4.858   0.968 -1.1186  1.4841 -0.2098
   12MOL   N61411856   6.889   5.385   7.400  0.4219 -0.4049  0.6788
   12MOL   C61511857   6.790   5.476   7.357 -0.4206 -0.3215  0.5670
   12MOL   C61611858   6.708   5.527   7.456  0.3751 -0.5284 -0.2890
   12MOL   C61711859   6.592   5.606   7.411  0.2597  0.5958  0.5919
   12MOL   C61811860   6.580   5.638   7.278 -0.3326 -0.1365  0.5303
   12MOL   N61911861   6.475   5.717   7.231 -0.3085 -0.9662  0.5959
   12MOL   C62011862   6.342   5.727   7.285  0.4234 -0.5248 -0.5164
   12MOL   C62111863   6.287   5.630   7.365 -0.1498 -0.4783 -0.7858
   12MOL   C62211864   6.151   5.633   7.405  0.0816 -0.4744 -0.3554
   12MOL   C62311865   6.072   5.736   7.358 -0.5251 -0.9720 -0.2894
   12MOL   N62411866   5.946   5.741   7.409  0.3429 -1.1904 -0.2054
   12MOL   C62511867   5.832   5.806   7.355  0.2155  0.2997  0.7462
   12MOL   C62611868   5.720   5.823   7.438 -0.3200  0.2252  0.6132
   12MOL   C62711869   5.600   5.887   7.393  0.3974  0.8516 -0.7330
   12MOL   C62811870   5.595   5.932   7.262  0.5184 -0.2430  0.0708
   12MOL   N62911871   5.494   6.007   7.203 -0.1607  0.1488  0.4155
   12MOL   C63011872   5.423   6.117   7.264 -0.9760 -0.2420 -0.4874
   12MOL   C63111873   5.309   6.161   7.200  0.4259 -0.1705 -0.4957
   12MOL   C63211874   5.229   6.265   7.251 -0.5510  0.2391  0.0939
   12MOL   C63311875   5.267   6.321   7.375 -0.8930  0.2269 -0.0554
   12MOL   C63411876   5.175   6.431   7.439  0.2006  0.1173  0.3531
   12MOL   C63511877   5.384   6.273   7.444 -0.1411 -0.3735  0.0160
   12MOL   C63611878   5.464   6.176   7.384 -0.2313  0.0418  0.2274
   12MOL   C63711879   5.699   5.904   7.174  0.1540  0.1230 -0.6515
   12MOL   C63811880   5.812   5.837   7.224 -0.6030  0.0764 -0.3457
   12MOL   C63911881   6.130   5.839   7.274  0.7882  0.1239 -0.3723
   12MOL   C64011882   6.265   5.832   7.234 -0.4483  1.1136  0.3551
   12MOL   C64111883   6.669   5.588   7.181 -0.2703  0.6923  0.0866
   12MOL   C64211884   6.775   5.507   7.222  0.0894  0.1136 -0.5366
   12MOL   H64311885   6.885   5.359   7.498 -1.2664  1.3015  1.0885
   12MOL   H64411886   6.722   5.480   7.552 -0.7072 -1.0378 -0.3643
   12MOL   H64511887   6.520   5.645   7.482 -0.0286  0.6204  0.2857
   12MOL   H64611888   6.489   5.766   7.144  2.4533 -2.1243  0.3570
   12MOL   H64711889   6.332   5.545   7.416  2.8984  0.2332 -2.2190
   12MOL   H64811890   6.107   5.569   7.479  2.1646 -0.6102  0.7922
   12MOL   H64911891   5.935   5.716   7.507 -2.3071 -0.2230 -0.2067
   12MOL   H65011892   5.725   5.795   7.542 -2.0284 -1.6688  0.2009
   12MOL   H65111893   5.513   5.904   7.455 -1.2519 -3.3557 -1.7834
   12MOL   H65211894   5.461   5.965   7.118  0.6378 -0.4704  0.4006
   12MOL   H65311895   5.278   6.112   7.108  0.7828  2.2190 -1.9109
   12MOL   H65411896   5.133   6.290   7.207 -2.0709 -1.2049  2.4743
   12MOL   H65511897   5.248   6.508   7.462  0.5970 -0.5716  1.4685
   12MOL   H65611898   5.146   6.387   7.535  0.1838 -1.8191 -0.5103
   12MOL   H65711899   5.411   6.318   7.538 -0.3383  0.1808 -0.1937
   12MOL   H65811900   5.554   6.142   7.432  0.0064  0.5263  0.1271
   12MOL   H65911901   5.700   5.928   7.068  2.2698 -0.2626 -0.7461
   12MOL   H66011902   5.890   5.816   7.152  0.0587  0.0883  0.3515
   12MOL   H66111903   6.066   5.921   7.245  1.3301  0.8386  0.4159
   12MOL   H66211904   6.306   5.913   7.175 -0.6419  3.0021  2.7399
   12MOL   H66311905   6.647   5.622   7.081  0.7614 -0.8507 -0.6963
   12MOL   H66411906   6.841   5.462   7.149  0.6466 -0.3375  0.2505
   12MOL   N66511907   5.062   6.482   7.355 -0.3809  0.8466  0.2066
   12MOL   C66611908   4.962   6.566   7.405 -0.6385  0.0523 -0.2877
   12MOL   C66711909   4.965   6.610   7.538  0.1840  0.5545  0.6952
   12MOL   C66811910   4.852   6.685   7.585 -0.3271 -0.3487 -0.4473
   12MOL   C66911911   4.749   6.731   7.500  0.2066 -0.0193  0.4145
   12MOL   N67011912   4.641   6.804   7.549 -0.0705 -0.0248 -0.7107
   12MOL   C67111913   4.633   6.867   7.675  0.6403  0.5085 -0.5937
   12MOL   C67211914   4.693   6.995   7.689  0.4840 -0.2742 -0.0095
   12MOL   C67311915   4.687   7.066   7.808 -0.2462 -0.7662 -0.5234
   12MOL   C67411916   4.623   7.010   7.916  0.5740  0.9154 -0.4550
   12MOL   N67511917   4.612   7.080   0.057  0.2380  0.4640  0.1559
   12MOL   C67611918   4.715   7.151   0.111  0.1300  0.3209  0.9490
   12MOL   C67711919   4.838   7.086   0.124  0.2112 -0.2214 -0.7147
   12MOL   C67811920   4.948   7.150   0.177 -0.7574 -0.5973 -0.5605
   12MOL   C67911921   4.927   7.279   0.232 -0.7708 -0.0409  0.0999
   12MOL   N68011922   5.042   7.344   0.288 -0.1753 -0.3064 -0.0282
   12MOL   C68111923   5.080   7.478   0.265  0.1825  0.1345 -1.1548
   12MOL   C68211924   5.153   7.546   0.364  0.3730 -0.1558 -0.0291
   12MOL   C68311925   5.200   7.677   0.338 -0.4412  0.6568  0.3488
   12MOL   C68411926   5.156   7.744   0.219 -0.1964  0.0855  0.3536
   12MOL   C68511927   5.197   7.886   0.198 -0.0494  0.2565  0.3205
   12MOL   C68611928   5.063   7.686   0.131  0.5077 -0.3847  0.6371
   12MOL   C68711929   5.037   7.547   0.152  0.1211  1.0769  0.4244
   12MOL   C68811930   4.805   7.348   0.221 -0.0081 -0.1730 -0.0341
   12MOL   C68911931   4.701   7.282   0.157 -0.1635  0.5577  0.1718
   12MOL   C69011932   4.559   6.888   7.905 -0.3251  0.1340 -0.1686
   12MOL   C69111933   4.557   6.812   7.781 -0.0912 -0.3789 -0.0414
   12MOL   C69211934   4.752   6.700   7.362 -0.1516  0.6869 -0.0162
   12MOL   C69311935   4.857   6.611   7.326 -0.1612 -0.3254 -0.3840
   12MOL   H69411936   5.062   6.466   7.255  1.2513 -0.1604  0.3470
   12MOL   H69511937   5.046   6.589   7.607 -1.1191  0.7422  2.3097
   12MOL   H69611938   4.851   6.719   7.687 -0.0214 -1.0899 -0.1905
   12MOL   H69711939   4.585   6.836   7.472 -0.6391 -0.0003 -0.2908
   12MOL   H69811940   4.734   7.045   7.603 -0.2263 -1.0883 -0.8260
   12MOL   H69911941   4.733   7.163   7.810 -2.0566  0.0979  2.7768
   12MOL   H70011942   4.567   7.033   0.134  1.3008 -0.3131  0.3240
   12MOL   H70111943   4.865   6.992   0.079  1.1881 -0.4225  0.2586
   12MOL   H70211944   5.042   7.096   0.181  1.7735  3.5847 -0.5655
   12MOL   H70311945   5.097   7.303   0.362  0.7556  1.2903  0.1772
   12MOL   H70411946   5.171   7.494   0.457  0.8186  1.4205  0.7824
   12MOL   H70511947   5.270   7.722   0.408  1.5336 -0.2507 -0.9894
   12MOL   H70611948   5.182   7.934   0.294 -1.3046  0.1820  0.1726
   12MOL   H70711949   5.132   7.934   0.125 -0.1980  2.0683  1.6245
   12MOL   H70811950   5.033   7.746   0.046 -0.8479 -1.8665  0.0392
   12MOL   H70911951   4.973   7.495   0.082  1.3610  1.5551 -1.1004
   12MOL   H71011952   4.803   7.454   0.239 -1.1526  0.0178 -1.2378
   12MOL   H71111953   4.603   7.328   0.161  1.0212  3.1031  0.6599
   12MOL   H71211954   4.514   6.858   0.017 -0.7587  2.6042  0.4527
   12MOL   H71311955   4.505   6.718   7.770 -1.7864  0.4667  0.4698
   12MOL   H71411956   4.677   6.737   7.294 -0.9085  0.1740  0.5287
   12MOL   H71511957   4.862   6.576   7.224 -2.0979  0.5641 -0.8072
   12MOL   N71611958   5.331   7.899   0.135 -0.0227  0.2201 -0.7657
   12MOL   C71711959   5.386   0.045   0.156 -0.3862 -0.1740  0.0657
   12MOL   C71811960   5.397   0.100   0.286 -0.3663  0.5047 -0.1439
   12MOL   C71911961   5.441   0.230   0.305 -0.4550  0.2007  0.3182
   12MOL   C72011962   5.451   0.309   0.186 -0.4887 -0.2654 -0.2431
   12MOL   N72111963   5.492   0.442   0.197 -0.0984  0.2578 -0.1706
   12MOL   C72211964   5.591   0.500   0.276 -0.0735 -0.6959 -0.3916
   12MOL   C72311965   5.577   0.638   0.302 -0.1470  0.6607 -0.8512
   12MOL   C72411966   5.668   0.701   0.389 -0.0434 -0.2521  0.7339
   12MOL   C72511967   5.773   0.628   0.444  0.0203  0.1573  0.6056
   12MOL   N72611968   5.867   0.682   0.527 -0.3811  0.0546 -0.3900
   12MOL   C72711969   5.894   0.818   0.533  0.9333 -0.1206 -0.0761
   12MOL   C72811970   5.989   0.872   0.444 -0.2174  0.1134 -0.3032
   12MOL   C72911971   6.008   1.013   0.447  0.6158  1.1710 -0.2733
   12MOL   C73011972   5.932   1.094   0.532 -0.3247 -0.4107  0.0690
   12MOL   N73111973   5.969   1.230   0.542 -0.6918 -0.9382  0.1409
   12MOL   C73211974   5.910   1.339   0.474  0.0472 -0.0330 -0.1934
   12MOL   C73311975   5.919   1.469   0.525 -0.9087  0.1159  0.4765
   12MOL   C73411976   5.860   1.577   0.457 -0.2242  0.1543 -0.2209
   12MOL   C73511977   5.800   1.560   0.335  0.4469 -0.1638 -0.2225
   12MOL   C73611978   5.744   1.681   0.256  0.6708  0.0856 -0.4734
   12MOL   C73711979   5.795   1.430   0.276  0.3822  0.0728  0.5344
   12MOL   C73811980   5.844   1.319   0.350  0.1086  0.0245 -0.1525
   12MOL   C73911981   5.836   1.033   0.612  0.4041 -0.8032  0.1225
   12MOL   C74011982   5.814   0.895   0.612  0.5041  0.0040  0.2412
   12MOL   C74111983   5.778   0.490   0.424  0.4596 -0.0536 -0.3380
   12MOL   C74211984   5.690   0.424   0.339  0.0615  0.1428  0.4385
   12MOL   C74311985   5.437   0.257   0.055 -0.0538 -0.5563  0.0798
   12MOL   C74411986   5.416   0.116   0.040 -0.4559 -0.3134 -0.1638
   12MOL   H74511987   5.324   7.864   0.041  0.6863  1.0449 -1.1322
   12MOL   H74611988   5.386   0.046   0.379 -0.7384  0.2176 -0.3512
   12MOL   H74711989   5.449   0.256   0.409 -0.6228 -0.4946  0.5085
   12MOL   H74811990   5.443   0.504   0.135 -0.8138  0.7535  0.8745
   12MOL   H74911991   5.500   0.699   0.259 -2.2165 -0.5098  1.0602
   12MOL   H75011992   5.660   0.809   0.385  1.7524 -0.1250  0.2125
   12MOL   H75111993   5.952   0.628   0.524  0.2150  0.9564  0.1217
   12MOL   H75211994   6.035   0.814   0.366  0.9054  1.5552 -0.7340
   12MOL   H75311995   6.079   1.061   0.381  2.0842 -0.4241  0.1244
   12MOL   H75411996   6.067   1.242   0.562 -0.6271 -4.0373  1.9254
   12MOL   H75511997   5.964   1.467   0.623 -2.2361 -0.0419  1.0930
   12MOL   H75611998   5.855   1.677   0.498 -0.4244  0.3078 -0.6220
   12MOL   H75711999   5.773   1.781   0.288 -0.3460  0.1687  0.1935
   12MOL   H75812000   5.636   1.671   0.250  0.6783  0.1420 -0.7093
   12MOL   H75912001   5.751   1.412   0.179 -0.4884  0.1065  0.9208
   12MOL   H76012002   5.835   1.221   0.305 -1.4506  0.4193 -0.7431
   12MOL   H76112003   5.796   1.101   0.685 -0.8818 -0.3146 -1.0317
   12MOL   H76212004   5.737   0.845   0.670  0.5585 -3.5034 -2.5970
   12MOL   H76312005   5.855   0.427   0.465 -0.3856 -0.3270  0.8633
   12MOL   H76412006   5.699   0.317   0.330  1.9848  0.3236 -0.0372
   12MOL   H76512007   5.471   0.307   7.948  0.2645  0.1645  0.6040
   12MOL   H76612008   5.419   0.070   7.924 -1.8853 -0.8586  0.0295
   12MOL   N76712009   5.779   1.674   0.119 -0.0469  0.1807  0.7101
   12MOL   C76812010   5.743   1.772   0.021  0.2063 -0.1403  0.4032
   12MOL   C76912011   5.660   1.886   0.050  0.1342 -0.0985  0.8252
   12MOL   C77012012   5.623   1.977   7.929 -0.6711 -0.1470  0.1600
   12MOL   C77112013   5.669   1.964   7.799  0.7874 -0.7381 -0.3633
   12MOL   N77212014   5.636   2.054   7.692 -0.5721 -0.6884  0.4601
   12MOL   C77312015   5.674   2.188   7.688 -0.3177 -0.3121 -0.6458
   12MOL   C77412016   5.662   2.261   7.562 -0.9162  0.3969  0.2706
   12MOL   C77512017   5.709   2.387   7.558  0.2679 -0.5820 -0.1998
   12MOL   C77612018   5.773   2.450   7.665 -0.3862  0.2865 -0.4270
   12MOL   N77712019   5.822   2.579   7.640 -0.2608  0.0370  0.0473
   12MOL   C77812020   5.757   2.700   7.623 -0.7983 -0.0758  0.1593
   12MOL   C77912021   5.617   2.704   7.649  0.4406 -0.1283  0.4252
   12MOL   C78012022   5.553   2.832   7.653 -0.1023  0.0105  0.5251
   12MOL   C78112023   5.627   2.944   7.630  0.2294 -0.1578  0.0636
   12MOL   N78212024   5.572   3.071   7.644  0.4241  0.4300  0.1951
   12MOL   C78312025   5.586   3.175   7.554  0.2087 -0.3223  0.2793
   12MOL   C78412026   5.618   3.305   7.606 -0.6144 -0.7946 -0.2297
   12MOL   C78512027   5.623   3.411   7.507 -0.5048 -0.3210 -0.6736
   12MOL   C78612028   5.614   3.387   7.370  0.1864  0.1623 -0.3386
   12MOL   C78712029   5.600   3.499   7.269  0.1999  0.4692  0.0037
   12MOL   C78812030   5.592   3.253   7.315 -0.3564 -0.5731 -0.5786
   12MOL   C78912031   5.568   3.150   7.414 -0.2588 -0.0113  0.4018
   12MOL   C79012032   5.763   2.937   7.590 -0.0418 -0.2394  0.5649
   12MOL   C79112033   5.831   2.814   7.592 -0.9345 -0.3295  0.2084
   12MOL   C79212034   5.789   2.383   7.790 -0.4046  0.2883 -0.3359
   12MOL   C79312035   5.727   2.253   7.805 -0.0608 -0.6811 -0.3633
   12MOL   C79412036   5.746   1.846   7.773 -0.5291  0.8063 -0.0130
   12MOL   C79512037   5.788   1.755   7.869 -0.2768  0.3308 -0.8483
   12MOL   H79612038   5.864   1.620   0.108 -0.3016 -0.3143  1.1100
   12MOL   H79712039   5.614   1.893   0.147 -0.0230  2.2418  0.6199
   12MOL   H79812040   5.566   2.067   7.946  0.0260  0.3956 -0.3378
   12MOL   H79912041   5.637   2.007   7.603 -0.9366  0.7996 -0.3459
   12MOL   H80012042   5.622   2.212   7.475  0.8218 -2.2963  0.9016
   12MOL   H80112043   5.695   2.454   7.474 -0.7216  0.2160  0.6021
   12MOL   H80212044   5.915   2.590   7.679 -0.8755  0.7193  1.3591
   12MOL   H80312045   5.547   2.625   7.666 -1.2275  1.1724 -0.2489
   12MOL   H80412046   5.449   2.841   7.680 -0.2610 -1.0244  0.2749
   12MOL   H80512047   5.494   3.076   7.707 -0.9316 -1.7423 -1.2476
   12MOL   H80612048   5.631   3.315   7.712 -2.7794 -1.7775  0.1473
   12MOL   H80712049   5.639   3.510   7.549  0.3908  0.1129 -1.9961
   12MOL   H80812050   5.687   3.489   7.204  0.5644  0.2875  0.5148
   12MOL   H80912051   5.621   3.594   7.318  0.4363 -0.2971  1.4132
   12MOL   H81012052   5.590   3.243   7.208  0.8905 -0.7755 -0.5933
   12MOL   H81112053   5.547   3.053   7.372 -0.6821 -0.9092  2.5919
   12MOL   H81212054   5.812   3.031   7.569 -2.1251  0.6905 -0.2901
   12MOL   H81312055   5.937   2.804   7.571 -0.8886 -0.0420  0.3080
   12MOL   H81412056   5.822   2.431   7.881 -1.6036  1.9823 -0.7622
   12MOL   H81512057   5.720   2.198   7.897 -1.8924  1.6638  0.9607
   12MOL   H81612058   5.781   1.836   7.672  2.9971  2.1080  1.0158
   12MOL   H81712059   5.859   1.682   7.834  1.0813  2.1053 -1.9299
   12MOL   N81812060   5.472   3.510   7.196  0.5675  0.7643  0.0352
   12MOL   C81912061   5.468   3.600   7.088 -0.2484 -0.1040 -0.3186
   12MOL   C82012062   5.541   3.722   7.079 -0.4345  0.3144 -0.6234
   12MOL   C82112063   5.552   3.794   6.960 -0.1351 -0.6628 -0.0555
   12MOL   C82212064   5.472   3.761   6.853 -0.0575  0.5236  0.3022
   12MOL   N82312065   5.469   3.841   6.737  0.3568  0.3123  0.1302
   12MOL   C82412066   5.529   3.964   6.711 -0.2467  0.0940 -0.6444
   12MOL   C82512067   5.456   4.071   6.657 -0.7319  0.4550 -0.3566
   12MOL   C82612068   5.523   4.192   6.622 -1.0330 -0.3660 -0.7056
   12MOL   C82712069   5.670   4.195   6.612 -0.3955 -0.4850 -0.0903
   12MOL   N82812070   5.745   4.299   6.564 -0.1004 -0.0141  0.4070
   12MOL   C82912071   5.750   4.432   6.610  0.2219 -0.0542  0.0512
   12MOL   C83012072   5.771   4.537   6.520  0.3389  0.1873 -0.6990
   12MOL   C83112073   5.762   4.666   6.571 -0.2871 -0.1648  0.3419
   12MOL   C83212074   5.738   4.692   6.711  0.1886  0.0283  0.0164
   12MOL   N83312075   5.730   4.826   6.756  0.3918  0.0262  0.5989
   12MOL   C83412076   5.717   4.869   6.886  0.6614 -0.3624 -0.0951
   12MOL   C83512077   5.589   4.907   6.941 -0.1540 -0.3822  0.2557
   12MOL   C83612078   5.576   4.973   7.066  0.2634 -0.9528 -0.0918
   12MOL   C83712079   5.698   5.003   7.138  0.0760  0.6326 -0.1562
   12MOL   C83812080   5.688   5.077   7.270 -0.5253  0.5660 -0.1403
   12MOL   C83912081   5.823   4.962   7.088 -0.1226  0.6824  0.2994
   12MOL   C84012082   5.833   4.889   6.966 -0.4604 -0.1161 -0.1345
   12MOL   C84112083   5.724   4.582   6.796 -0.0695 -0.1706 -0.4705
   12MOL   C84212084   5.723   4.450   6.749  1.1641 -0.0625  0.1868
   12MOL   C84312085   5.742   4.086   6.656 -0.6283 -0.0472 -0.1980
   12MOL   C84412086   5.670   3.978   6.705  0.3313 -0.1833  0.2231
   12MOL   C84512087   5.404   3.639   6.854  0.3883 -0.3848 -0.5761
   12MOL   C84612088   5.400   3.559   6.969 -0.0909  0.6335  0.4966
   12MOL   H84712089   5.420   3.425   7.181  0.2828  0.6032  1.8156
   12MOL   H84812090   5.591   3.759   7.167  1.4715 -0.3373 -1.4148
   12MOL   H84912091   5.611   3.884   6.965  0.2673 -0.9953  1.1115
   12MOL   H85012092   5.409   3.813   6.661  0.6802 -1.1781  0.4049
   12MOL   H85112093   5.350   4.076   6.639 -1.0385 -2.3098  0.4475
   12MOL   H85212094   5.469   4.281   6.593 -1.2332 -1.1157 -2.7060
   12MOL   H85312095   5.797   4.279   6.479 -0.1958  0.5310  0.2172
   12MOL   H85412096   5.788   4.534   6.413 -0.9532  2.2182 -0.9785
   12MOL   H85512097   5.784   4.748   6.504  0.8234 -0.3895  0.4221
   12MOL   H85612098   5.685   4.896   6.699 -0.6324 -0.1242  1.2210
   12MOL   H85712099   5.503   4.892   6.878 -1.1648  1.1355  1.2315
   12MOL   H85812100   5.481   5.007   7.105  0.3353  1.0994 -1.6334
   12MOL   H85912101   5.589   5.120   7.280 -0.8199 -0.1576  0.1539
   12MOL   H86012102   5.746   5.168   7.258 -1.7348  1.7185  2.4289
   12MOL   H86112103   5.907   4.983   7.154 -1.6088  0.8259  2.1863
   12MOL   H86212104   5.933   4.868   6.932  0.4180  0.6739  1.8540
   12MOL   H86312105   5.702   4.594   6.901 -2.3889  0.1210 -0.9562
   12MOL   H86412106   5.717   4.377   6.828 -0.1514  1.4892  1.5492
   12MOL   H86512107   5.849   4.082   6.643 -0.5978  1.3374 -0.5649
   12MOL   H86612108   5.728   3.892   6.737  1.5161  0.3933 -0.3577
   12MOL   H86712109   5.341   3.615   6.770  0.5713  1.1508 -1.1808
   12MOL   H86812110   5.336   3.473   6.955  0.4368  0.5123 -1.2869
   12MOL   N86912111   5.722   4.991   7.384 -0.3299 -0.7569 -0.1340
   12MOL   C87012112   5.857   4.977   7.435  0.6563 -0.7425 -0.3517
   12MOL   C87112113   5.942   5.088   7.451  0.4104  0.0566 -0.5758
   12MOL   C87212114   6.072   5.066   7.507 -0.2521  0.7149 -0.7842
   12MOL   C87312115   6.117   4.934   7.526  1.0677 -0.2655  0.0470
   12MOL   N87412116   6.251   4.926   7.569 -0.2004  0.3941  0.5604
   12MOL   C87512117   6.340   4.827   7.545 -0.4437 -0.1753  0.2314
   12MOL   C87612118   6.329   4.761   7.421 -0.3901 -0.1826 -0.5004
   12MOL   C87712119   6.426   4.671   7.383  0.7076  1.0990  0.3489
   12MOL   C87812120   6.534   4.643   7.467  0.3775  0.1837  0.2730
   12MOL   N87912121   6.634   4.556   7.425  0.2066 -0.5544  0.3132
   12MOL   C88012122   6.638   4.482   7.309 -0.3497  0.2127 -0.1227
   12MOL   C88112123   6.665   4.546   7.194  0.1713  0.0658 -0.8116
   12MOL   C88212124   6.663   4.469   7.071  0.3334 -0.5785  0.6865
   12MOL   C88312125   6.612   4.342   7.067  0.5947  0.0369  0.0645
   12MOL   N88412126   6.607   4.283   6.935  0.1498 -0.1978  0.0157
   12MOL   C88512127   6.546   4.166   6.897  1.2277 -0.3984  1.0129
   12MOL   C88612128   6.434   4.112   6.954 -0.1288  0.4519 -0.0808
   12MOL   C88712129   6.373   3.993   6.907  0.5464 -0.1266  0.1637
   12MOL   C88812130   6.417   3.929   6.793 -0.4149  0.6049  0.3800
   12MOL   C88912131   6.342   3.805   6.748  0.0835 -0.0253 -0.5556
   12MOL   C89012132   6.537   3.977   6.737 -0.3732 -0.4871  0.0374
   12MOL   C89112133   6.606   4.090   6.791 -0.3229 -0.5851 -0.4495
   12MOL   C89212134   6.573   4.277   7.188 -0.2775 -0.3224 -0.2639
   12MOL   C89312135   6.589   4.352   7.304 -0.0315 -0.4097 -0.3730
   12MOL   C89412136   6.530   4.695   7.598  0.2122 -0.2459  0.0584
   12MOL   C89512137   6.435   4.790   7.637  0.0175  0.0189 -0.3208
   12MOL   C89612138   6.030   4.824   7.501  0.1121 -0.2612 -0.5285
   12MOL   C89712139   5.898   4.847   7.454  0.3841  0.0405 -0.3607
   12MOL   H89812140   5.665   4.909   7.382 -5.1845  2.4379 -1.5200
   12MOL   H89912141   5.910   5.188   7.423 -2.2913 -0.8106 -0.7619
   12MOL   H90012142   6.130   5.154   7.530  1.1084 -0.8293  2.0194
   12MOL   H90112143   6.292   5.018   7.579 -0.2779  0.2832  2.0820
   12MOL   H90212144   6.244   4.783   7.358  0.6006  1.5362 -1.2895
   12MOL   H90312145   6.413   4.632   7.283 -1.4998  0.2718  0.9289
   12MOL   H90412146   6.651   4.502   7.508  2.6439 -1.1655 -0.5284
   12MOL   H90512147   6.710   4.644   7.188  0.5182 -0.1108 -1.1603
   12MOL   H90612148   6.692   4.514   6.977 -0.2450 -1.4335  0.0931
   12MOL   H90712149   6.657   4.325   6.858  1.4342  0.3370  1.1295
   12MOL   H90812150   6.385   4.162   7.037 -0.4960 -0.4348  0.2393
   12MOL   H90912151   6.283   3.964   6.958  0.9463 -2.1455 -0.2527
   12MOL   H91012152   6.304   3.755   6.837  0.1139 -1.5903 -1.3988
   12MOL   H91112153   6.410   3.739   6.694 -1.1783 -1.0163 -0.9765
   12MOL   H91212154   6.585   3.929   6.653 -0.0966 -0.7504  0.3455
   12MOL   H91312155   6.691   4.132   6.740 -0.5716 -1.8192 -1.9422
   12MOL   H91412156   6.553   4.171   7.187  0.9786 -0.5928  0.9957
   12MOL   H91512157   6.574   4.302   7.399  1.6617 -2.0825 -0.9542
   12MOL   H91612158   6.610   4.675   7.668  1.8382  0.7946 -1.4610
   12MOL   H91712159   6.437   4.841   7.733 -0.7862 -0.8475  0.1569
   12MOL   H91812160   6.064   4.722   7.516  0.4325 -0.0973 -0.1527
   12MOL   H91912161   5.835   4.760   7.443  1.8274 -1.4533  2.4976
   12MOL   N92012162   6.232   3.847   6.662  0.1822 -0.1757  0.3396
   12MOL   C92112163   6.164   3.746   6.594  0.4076 -0.0815 -0.1904
   12MOL   C92212164   6.143   3.620   6.650 -0.0411  0.8591  0.4134
   12MOL   C92312165   6.069   3.523   6.580  0.0722 -0.3645  1.0669
   12MOL   C92412166   6.017   3.549   6.450 -0.1077 -0.4445 -0.1890
   12MOL   N92512167   5.957   3.446   6.375  0.4664 -0.0554  1.0884
   12MOL   C92612168   6.013   3.320   6.362  0.9083 -0.2773 -0.2400
   12MOL   C92712169   5.953   3.216   6.431 -0.2886  0.0001 -0.0536
   12MOL   C92812170   6.010   3.087   6.428  0.7135  0.3235 -0.7184
   12MOL   C92912171   6.133   3.072   6.363  0.0479  0.0902 -0.1722
   12MOL   N93012172   6.201   2.953   6.373 -0.1169  0.4277  0.5235
   12MOL   C93112173   6.169   2.850   6.463  0.5649  0.2332  0.0627
   12MOL   C93212174   6.143   2.878   6.598 -0.2550  0.7779 -0.3245
   12MOL   C93312175   6.094   2.784   6.690 -0.1489 -0.4640  0.4398
   12MOL   C93412176   6.085   2.652   6.642 -0.3476  0.2934  0.3397
   12MOL   N93512177   6.050   2.554   6.734 -0.6603  0.1327  0.3306
   12MOL   C93612178   6.137   2.452   6.780  0.1725 -0.5124  0.3285
   12MOL   C93712179   6.082   2.387   6.891  0.2666 -0.2387 -0.6240
   12MOL   C93812180   6.164   2.299   6.961  0.6408  0.0837 -0.0859
   12MOL   C93912181   6.292   2.261   6.921  0.3009  0.5429 -0.9583
   12MOL   C94012182   6.370   2.156   6.992  1.2882 -0.3346  0.3649
   12MOL   C94112183   6.348   2.336   6.816  0.1427  0.0019  0.5427
   12MOL   C94212184   6.275   2.435   6.749  0.2855 -0.8047 -0.3565
   12MOL   C94312185   6.100   2.626   6.502  0.3314  0.6449 -0.1555
   12MOL   C94412186   6.153   2.723   6.413  0.1331  0.3840  0.4785
   12MOL   C94512187   6.199   3.178   6.307  0.0939 -0.5636 -0.4638
   12MOL   C94612188   6.139   3.303   6.301  0.4987  0.7924 -0.3098
   12MOL   C94712189   6.036   3.680   6.398  0.7472 -0.1199  0.2725
   12MOL   C94812190   6.110   3.778   6.470 -0.5655  0.0679 -0.1139
   12MOL   H94912191   6.250   3.921   6.596  0.0918 -2.1058 -1.9053
   12MOL   H95012192   6.188   3.588   6.743 -0.5985 -0.7325  0.1521
   12MOL   H95112193   6.052   3.423   6.615 -1.9760  0.3569  2.2333
   12MOL   H95212194   5.916   3.483   6.291  4.2959  2.7449  0.3057
   12MOL   H95312195   5.853   3.226   6.471  0.0717 -0.5603  1.0259
   12MOL   H95412196   5.950   3.004   6.462  0.6256  0.6670 -0.0322
   12MOL   H95512197   6.290   2.943   6.325 -0.6092 -1.0605 -0.1206
   12MOL   H95612198   6.159   2.979   6.631  1.8327  0.7878 -1.2788
   12MOL   H95712199   6.071   2.810   6.793 -1.6508 -1.8279  0.4575
   12MOL   H95812200   6.007   2.588   6.820  1.7904 -0.7672  1.9667
   12MOL   H95912201   5.978   2.394   6.917  0.1559  1.0551 -1.3955
   12MOL   H96012202   6.124   2.249   7.048  0.5008 -0.0327 -0.2156
   12MOL   H96112203   6.474   2.179   6.968  1.1848 -1.0463 -0.8025
   12MOL   H96212204   6.337   2.057   6.962 -1.7082  0.5355  0.6001
   12MOL   H96312205   6.455   2.324   6.800  0.1198  2.0752 -1.3245
   12MOL   H96412206   6.314   2.489   6.664 -2.2081 -1.1353 -1.7672
   12MOL   H96512207   6.076   2.530   6.460  0.5090  0.5419 -0.0260
   12MOL   H96612208   6.163   2.707   6.307 -0.7701 -0.3107  0.4951
   12MOL   H96712209   6.297   3.175   6.261  0.0879  1.7839 -0.7113
   12MOL   H96812210   6.183   3.395   6.267 -0.4928  1.7162  0.8286
   12MOL   H96912211   5.990   3.694   6.301  0.7356  1.0363  0.4388
   12MOL   H97012212   6.124   3.881   6.439 -0.3685 -0.1048 -0.6018
   12MOL   N97112213   6.353   2.167   7.137  0.0657  0.1769  0.1211
   12MOL   C97212214   6.455   2.127   7.222  0.2340  0.5484 -0.1439
   12MOL   C97312215   6.455   2.174   7.354 -0.3649  0.0402  0.0481
   12MOL   C97412216   6.547   2.121   7.445  0.5238  0.2759 -0.4979
   12MOL   C97512217   6.640   2.016   7.411 -0.2452 -0.4993 -0.8378
   12MOL   N97612218   6.726   1.970   7.509 -0.3454 -0.1688  0.7420
   12MOL   C97712219   6.844   1.888   7.504  0.7275 -0.4079 -0.4213
   12MOL   C97812220   6.882   1.839   7.633  0.0975 -0.6216 -0.4222
   12MOL   C97912221   6.987   1.741   7.640  0.3387  0.1022 -0.0347
   12MOL   C98012222   7.061   1.701   7.530  0.0339  0.2462 -0.1749
   12MOL   N98112223   7.159   1.597   7.545 -0.2408 -0.7230  0.7166
   12MOL   C98212224   7.243   1.606   7.656 -0.9941  0.0846 -0.3413
   12MOL   C98312225   7.283   1.731   7.713  0.2747  0.1061  0.0427
   12MOL   C98412226   7.378   1.730   7.817 -0.5011 -0.2343  0.8954
   12MOL   C98512227   7.429   1.610   7.869  0.3301  0.3888  0.2585
   12MOL   N98612228   7.538   1.607   7.952  0.1060  0.8713  0.2839
   12MOL   C98712229   7.643   1.702   7.955  0.2838  0.5293 -0.0348
   12MOL   C98812230   7.704   1.704   0.098  0.9801 -0.4414  0.2785
   12MOL   C98912231   7.790   1.810   0.132  0.1604 -0.5292 -0.0447
   12MOL   C99012232   7.835   1.896   0.029 -0.9783 -0.6976  0.2848
   12MOL   C99112233   7.948   1.993   0.050  0.3626 -0.8938 -0.4604
   12MOL   C99212234   7.782   1.888   7.880 -0.2558  0.3523 -0.9242
   12MOL   C99312235   7.683   1.792   7.851 -0.5005 -0.3106 -0.1630
   12MOL   C99412236   7.373   1.488   7.827  0.0206 -0.1315  0.0205
   12MOL   C99512237   7.289   1.485   7.715  0.8512  0.2995 -0.1597
   12MOL   C99612238   7.030   1.759   7.404 -0.3807  0.2842  0.0186
   12MOL   C99712239   6.924   1.856   7.392  0.3168  0.1942 -0.1832
   12MOL   C99812240   6.640   1.972   7.277 -0.6353  0.0576 -0.6193
   12MOL   C99912241   6.539   2.020   7.191 -0.0234  0.0406 -0.3638
   12MOL     H112242   6.316   2.256   7.168 -1.4200  0.3483 -2.0894
   12MOL     H212243   6.386   2.252   7.382 -0.6222 -0.1241 -0.1235
   12MOL     H312244   6.541   2.162   7.544 -0.2556  1.0296 -0.8459
   12MOL     H412245   6.686   1.990   7.600  0.9048 -1.7502  1.6681
   12MOL     H512246   6.817   1.853   7.718  2.4540 -1.4842  1.5671
   12MOL     H612247   7.010   1.701   7.738  1.3424  0.7470 -0.0089
   12MOL     H712248   7.157   1.514   7.488  0.6064  1.0096 -1.9156
   12MOL     H812249   7.237   1.819   7.671 -1.2531 -0.4440  0.5244
   12MOL     H912250   7.409   1.826   7.856  1.3750 -0.1431 -0.7697
   12MOL    H1012251   7.541   1.514   0.011  2.2571 -0.4656 -2.6699
   12MOL    H1112252   7.673   1.639   0.178  1.4941 -1.5845 -0.4308
   12MOL    H1212253   7.839   1.813   0.229 -0.6825  1.6671  0.3440
   12MOL    H1312254   7.976   2.012   0.153  0.8287  0.1591 -0.7790
   12MOL    H1412255   7.929   2.086   7.979 -1.9108  0.4739  2.6442
   12MOL    H1512256   7.808   1.953   7.798 -1.0872  0.9017 -0.7639
   12MOL    H1612257   7.649   1.785   7.749  1.3405  0.9673 -0.8959
   12MOL    H1712258   7.418   1.402   7.874  1.7102  0.5873 -0.2559
   12MOL    H1812259   7.250   1.396   7.668 -2.1293  2.2582 -1.5509
   12MOL    H1912260   7.087   1.743   7.313 -0.7455 -1.0293  0.0128
   12MOL    H2012261   6.905   1.909   7.300 -2.0270 -2.7236 -1.4689
   12MOL    H2112262   6.700   1.894   7.233 -1.8445 -1.5279  0.4479
   12MOL    H2212263   6.529   1.982   7.090 -2.1018 -0.2838 -0.0466
   12MOL    H2312264   0.056   1.943   0.013  1.0733  0.2539 -0.2988
   13MOL     N112265   1.647   5.145   5.814 -0.2841 -0.3035 -0.6120
   13MOL     C212266   1.716   5.110   5.699 -0.2585 -0.4518  0.2491
   13MOL     C312267   1.777   4.986   5.696 -0.0371  0.4216 -0.0289
   13MOL     C412268   1.854   4.950   5.589 -0.9791  0.0455  0.6108
   13MOL     C512269   1.873   5.038   5.476 -0.5898 -0.1083  0.6876
   13MOL     N612270   1.940   4.984   5.367 -0.5477 -0.0779 -0.2522
   13MOL     C712271   2.015   5.046   5.267 -0.3424 -0.3676 -0.0064
   13MOL     C812272   2.100   5.147   5.299  0.3652 -0.0536  0.3842
   13MOL     C912273   2.177   5.210   5.201  0.2800 -0.3119  0.2079
   13MOL    C1012274   2.156   5.179   5.068  0.0511 -0.1669  0.0107
   13MOL    N1112275   2.212   5.253   4.962  0.4621  0.3696  0.2429
   13MOL    C1212276   2.199   5.391   4.953  0.5414  0.1993  0.0056
   13MOL    C1312277   2.285   5.465   4.870  0.1259 -1.1878 -0.4133
   13MOL    C1412278   2.274   5.611   4.861 -0.0329 -0.3333 -0.7269
   13MOL    C1512279   2.197   5.678   4.956  0.0500 -0.2917 -0.0744
   13MOL    N1612280   2.205   5.818   4.957 -0.2679 -0.9508  0.5111
   13MOL    C1712281   2.162   5.913   5.052  0.1974  0.1912  0.1877
   13MOL    C1812282   2.138   5.883   5.187  0.4989 -0.0741 -0.5153
   13MOL    C1912283   2.089   5.987   5.268 -0.4236  0.5471  0.5909
   13MOL    C2012284   2.072   6.118   5.224  0.2496 -0.9723 -0.1013
   13MOL    C2112285   2.017   6.221   5.322 -0.1120 -0.4891 -0.6847
   13MOL    C2212286   2.099   6.145   5.087  0.2024  0.1530 -0.2482
   13MOL    C2312287   2.143   6.045   5.006  0.1099  0.1510  0.4927
   13MOL    C2412288   2.108   5.599   5.031  0.0186  0.6762 -1.0262
   13MOL    C2512289   2.111   5.462   5.033 -0.0444  0.1909  0.4428
   13MOL    C2612290   2.073   5.067   5.030  0.2188  0.1670 -0.2388
   13MOL    C2712291   2.013   4.994   5.136 -0.2915 -0.7142  0.3464
   13MOL    C2812292   1.806   5.165   5.475 -0.2188  0.3469 -0.1640
   13MOL    C2912293   1.734   5.199   5.589 -0.6257  0.6032 -0.1402
   13MOL    H3012294   1.613   5.081   5.885 -2.7478  2.1090  0.5095
   13MOL    H3112295   1.758   4.916   5.776 -1.3030  1.7378  0.8224
   13MOL    H3212296   1.912   4.859   5.585 -1.5613 -0.2878 -0.4472
   13MOL    H3312297   1.946   4.884   5.355  1.1674 -0.0439  0.1342
   13MOL    H3412298   2.118   5.175   5.402 -1.2765 -0.2910  0.7444
   13MOL    H3512299   2.242   5.290   5.231 -1.2105  1.3684 -0.9547
   13MOL    H3612300   2.215   5.211   4.870 -0.5531  1.4016 -0.2760
   13MOL    H3712301   2.344   5.410   4.797 -1.4563 -1.4225 -1.5288
   13MOL    H3812302   2.336   5.665   4.792  0.6941  1.2699  1.1258
   13MOL    H3912303   2.262   5.858   4.884 -0.0547 -1.3445  0.4633
   13MOL    H4012304   2.146   5.788   5.237  0.4341 -1.4933 -3.1005
   13MOL    H4112305   2.063   5.963   5.370 -2.0489 -0.1077  0.0352
   13MOL    H4212306   2.076   6.202   5.412 -1.3677 -0.9794  0.0524
   13MOL    H4312307   1.913   6.200   5.349 -0.4843  1.2695 -0.7270
   13MOL    H4412308   2.085   6.243   5.043  0.1039 -0.4933 -1.6738
   13MOL    H4512309   2.157   6.082   4.905 -3.2109  0.1357 -0.0497
   13MOL    H4612310   2.051   5.647   5.109  1.4177  0.1258  0.3626
   13MOL    H4712311   2.045   5.415   5.104 -2.2049 -0.7997 -2.1563
   13MOL    H4812312   2.055   5.049   4.925 -2.1328 -1.2556  0.3901
   13MOL    H4912313   1.953   4.909   5.108  0.2379 -0.8407 -0.4526
   13MOL    H5012314   1.813   5.234   5.392  0.9616  1.3372  0.7323
   13MOL    H5112315   1.688   5.296   5.587 -0.0445  0.8736 -0.5729
   13MOL    H5212316   1.639   5.243   5.837 -1.3687 -0.9429  1.8990
   13MOL    N5312317   2.043   6.356   5.283  1.1338  0.1395  0.5414
   13MOL    C5412318   1.938   6.428   5.228  0.4770 -0.6750  0.8482
   13MOL    C5512319   1.952   6.564   5.228  0.3393  0.7276 -0.1345
   13MOL    C5612320   1.869   6.651   5.157  0.2116  0.0034 -0.2995
   13MOL    C5712321   1.756   6.594   5.090  0.4671  0.3574  0.1731
   13MOL    N5812322   1.662   6.674   5.021  0.1722  0.0631  0.4663
   13MOL    C5912323   1.674   6.797   4.965  0.0589  0.0061  0.0719
   13MOL    C6012324   1.553   6.869   4.944 -0.4231  0.8325  0.2722
   13MOL    C6112325   1.556   7.001   4.892 -0.0327 -0.4698  0.1909
   13MOL    C6212326   1.675   7.053   4.847 -0.2730 -0.1603  0.3576
   13MOL    N6312327   1.677   7.178   4.790 -0.4501  0.0339 -0.0615
   13MOL    C6412328   1.591   7.218   4.687  0.3580 -0.5890  0.5879
   13MOL    C6512329   1.580   7.144   4.564 -0.3995 -1.0733  0.1840
   13MOL    C6612330   1.494   7.192   4.464 -0.0223 -0.0125 -0.2731
   13MOL    C6712331   1.427   7.315   4.485  0.2586  0.1183 -0.1173
   13MOL    N6812332   1.368   7.386   4.376 -0.6187  0.8708  0.7359
   13MOL    C6912333   1.311   7.329   4.262 -0.4529  0.4339 -0.1462
   13MOL    C7012334   1.262   7.198   4.269  0.1344 -0.2747 -0.3053
   13MOL    C7112335   1.208   7.146   4.147  0.0085 -0.2410 -0.0823
   13MOL    C7212336   1.204   7.219   4.026  0.3951 -0.1306  0.2218
   13MOL    C7312337   1.146   7.167   3.900 -0.5618 -0.1162  0.0452
   13MOL    C7412338   1.267   7.343   4.025  0.5929 -0.3256 -0.0732
   13MOL    C7512339   1.317   7.398   4.144 -0.4844 -0.4354 -0.7621
   13MOL    C7612340   1.433   7.379   4.614  0.1825 -0.0199  0.0661
   13MOL    C7712341   1.512   7.328   4.719  0.3117  0.1420 -0.6533
   13MOL    C7812342   1.793   6.979   4.855  0.9098  0.6839  0.5720
   13MOL    C7912343   1.792   6.854   4.922 -0.4328 -0.2019  0.3330
   13MOL    C8012344   1.733   6.458   5.096  0.6025  0.0248 -0.6896
   13MOL    C8112345   1.821   6.376   5.172  0.4975 -0.3370  0.4880
   13MOL    H8212346   2.131   6.396   5.311  1.3773 -1.5591  2.3008
   13MOL    H8312347   2.038   6.609   5.276  0.6563 -1.4249  1.4220
   13MOL    H8412348   1.886   6.758   5.158 -0.4814  0.1216  1.8786
   13MOL    H8512349   1.567   6.641   5.028  0.1031 -0.0239 -0.7767
   13MOL    H8612350   1.459   6.829   4.978 -0.9356  0.9622 -0.9830
   13MOL    H8712351   1.461   7.052   4.890 -0.2795 -0.8671  1.3144
   13MOL    H8812352   1.774   7.193   4.765 -0.4229  2.7291  1.4634
   13MOL    H8912353   1.642   7.060   4.535  0.0129 -0.0390 -1.9954
   13MOL    H9012354   1.485   7.143   4.368  0.4446 -1.2360  0.3045
   13MOL    H9112355   1.394   7.484   4.378  0.2458  0.6265  2.3189
   13MOL    H9212356   1.248   7.148   4.363  1.1686 -1.9411 -1.0120
   13MOL    H9312357   1.157   7.052   4.159 -2.0206  0.9785  1.1660
   13MOL    H9412358   1.178   7.208   3.804 -1.1782  0.0240 -0.1003
   13MOL    H9512359   1.042   7.197   3.913 -1.0210 -1.6800  0.0404
   13MOL    H9612360   1.281   7.395   3.932  0.5089  1.4992  0.9114
   13MOL    H9712361   1.369   7.493   4.143 -1.0944 -0.0988 -0.6915
   13MOL    H9812362   1.376   7.469   4.629  1.3712  1.2433 -2.7509
   13MOL    H9912363   1.523   7.381   4.813  1.1686 -0.4800 -0.3981
   13MOL   H10012364   1.883   7.014   4.807  1.1101 -1.6470 -0.8005
   13MOL   H10112365   1.890   6.807   4.925 -0.2294  0.2172  0.4050
   13MOL   H10212366   1.650   6.422   5.038  1.6247 -1.0392 -1.5124
   13MOL   H10312367   1.793   6.272   5.169  0.5598 -0.3170 -1.2658
   13MOL   N10412368   1.157   7.024   3.894 -0.2642 -0.1812 -0.2108
   13MOL   C10512369   1.101   6.945   3.792  0.2430 -0.3490 -0.1223
   13MOL   C10612370   1.016   6.995   3.696  0.0036 -0.4250  0.5564
   13MOL   C10712371   0.963   6.903   3.601 -0.2284 -0.1138 -0.7251
   13MOL   C10812372   0.978   6.764   3.608 -0.2109  0.7393  0.1932
   13MOL   N10912373   0.926   6.673   3.511  0.4967 -0.0760 -0.3576
   13MOL   C11012374   0.803   6.684   3.438  0.4870 -0.3396 -0.2519
   13MOL   C11112375   0.774   6.581   3.349 -0.2679  0.9569  0.0371
   13MOL   C11212376   0.649   6.577   3.283 -0.9105  0.2036 -1.0819
   13MOL   C11312377   0.555   6.679   3.310  0.2894 -0.5900 -0.3354
   13MOL   N11412378   0.427   6.694   3.258 -0.9296  0.1130 -0.4667
   13MOL   C11512379   0.359   6.623   3.160 -0.3174 -0.1301  0.1846
   13MOL   C11612380   0.288   6.696   3.065  0.1821  0.0033  0.0364
   13MOL   C11712381   0.223   6.631   2.961 -0.0746 -0.4807  0.2846
   13MOL   C11812382   0.229   6.491   2.956  0.1519 -0.1154  0.0270
   13MOL   N11912383   0.155   6.435   2.853 -0.8961 -0.6701  0.1915
   13MOL   C12012384   0.079   6.319   2.855 -0.2301  0.1893  0.0620
   13MOL   C12112385   0.039   6.261   2.732  0.5492 -0.3745  0.2959
   13MOL   C12212386   7.942   6.149   2.728  0.5992  0.2622 -0.1494
   13MOL   C12312387   7.896   6.085   2.845 -0.2958 -0.3796 -0.0747
   13MOL   C12412388   7.818   5.956   2.833  0.8175  0.3115 -0.4080
   13MOL   C12512389   7.925   6.150   2.967  0.5761 -0.2699  0.9268
   13MOL   C12612390   0.020   6.269   2.969 -0.3368  0.1925  0.3787
   13MOL   C12712391   0.301   6.416   3.050 -0.3609 -0.6504  0.2358
   13MOL   C12812392   0.365   6.483   3.158 -0.2054  0.3731 -0.0485
   13MOL   C12912393   0.587   6.778   3.403  0.4637  0.7038  0.5662
   13MOL   C13012394   0.710   6.787   3.468  0.0731  0.7981  0.4319
   13MOL   C13112395   1.059   6.711   3.711  0.1991 -0.3365  0.2353
   13MOL   C13212396   1.124   6.804   3.800  0.2115 -0.3262  0.2171
   13MOL   H13312397   1.252   6.999   3.918 -0.7223  0.3465  2.2905
   13MOL   H13412398   0.999   7.101   3.694  1.3523 -0.2065  0.0305
   13MOL   H13512399   0.912   6.950   3.519 -0.4568 -2.1399 -1.7852
   13MOL   H13612400   0.984   6.592   3.492  0.8853  0.3133 -0.8591
   13MOL   H13712401   0.850   6.508   3.326 -1.4713 -0.2056 -0.3145
   13MOL   H13812402   0.626   6.507   3.204 -3.4010  0.1411 -0.3363
   13MOL   H13912403   0.387   6.785   3.277  0.6475  0.8994 -0.8679
   13MOL   H14012404   0.291   6.804   3.067  1.2462 -0.0351  1.1307
   13MOL   H14112405   0.171   6.690   2.887  1.3422  1.1737  0.5777
   13MOL   H14212406   0.154   6.500   2.776 -0.5081  0.4092  1.0697
   13MOL   H14312407   0.064   6.311   2.640  0.2652 -0.3685  0.2224
   13MOL   H14412408   7.923   6.110   2.630 -0.1765  0.0277  0.0940
   13MOL   H14512409   7.864   5.896   2.754  0.7388 -0.6932  0.2919
   13MOL   H14612410   7.723   5.978   2.785  1.5895  0.5807 -1.8347
   13MOL   H14712411   7.881   6.104   3.055  0.7454 -0.3349  0.9787
   13MOL   H14812412   0.040   6.323   3.060 -2.0194  1.0703  0.2510
   13MOL   H14912413   0.310   6.309   3.062  1.4512 -0.2793  2.4901
   13MOL   H15012414   0.413   6.424   3.235 -0.8186 -0.9664 -0.6810
   13MOL   H15112415   0.517   6.860   3.417  0.2210  0.5455  0.2647
   13MOL   H15212416   0.727   6.871   3.534  2.9191  0.2889  0.4369
   13MOL   H15312417   1.089   6.607   3.711 -0.2002 -0.4516  0.7055
   13MOL   H15412418   1.191   6.760   3.873 -2.6188 -0.9177  2.5393
   13MOL   N15512419   7.823   5.885   2.955  0.2584  0.3816 -0.4825
   13MOL   C15612420   7.746   5.768   2.977 -0.2247  0.6971  1.1989
   13MOL   C15712421   7.785   5.690   3.088 -0.8433  0.3516  0.1656
   13MOL   C15812422   7.715   5.572   3.116 -0.2791 -0.5751  0.4854
   13MOL   C15912423   7.614   5.522   3.030 -0.3412 -0.3186  0.0269
   13MOL   N16012424   7.563   5.392   3.059  0.4924 -0.0905  0.6083
   13MOL   C16112425   7.533   5.282   2.977  0.7092  0.8578 -0.4541
   13MOL   C16212426   7.428   5.186   3.005 -0.4276  0.0412  0.6473
   13MOL   C16312427   7.397   5.085   2.912  0.4488  0.5087  0.5185
   13MOL   C16412428   7.484   5.067   2.801 -0.0956 -0.4152  0.3824
   13MOL   N16512429   7.460   4.968   2.707  0.6943 -0.4003 -0.4269
   13MOL   C16612430   7.339   4.915   2.664  0.0743  0.5666 -0.0226
   13MOL   C16712431   7.228   4.999   2.656 -0.0077 -0.4839  0.2873
   13MOL   C16812432   7.103   4.958   2.605  0.0301  0.1565 -0.2640
   13MOL   C16912433   7.089   4.825   2.553 -0.2596 -0.1204  0.8024
   13MOL   N17012434   6.970   4.802   2.485 -0.4456  0.3335 -0.1574
   13MOL   C17112435   6.906   4.687   2.441 -0.1380 -0.9980 -0.0348
   13MOL   C17212436   6.799   4.687   2.344 -0.3364  0.3519 -0.1644
   13MOL   C17312437   6.729   4.574   2.308 -0.2442 -0.0230  0.2645
   13MOL   C17412438   6.764   4.452   2.364 -0.5139  0.4532 -0.0774
   13MOL   C17512439   6.700   4.332   2.307  0.2421  0.3058 -0.0964
   13MOL   C17612440   6.873   4.445   2.459  0.5291 -0.2804 -1.0275
   13MOL   C17712441   6.931   4.567   2.503  0.0533  0.7096 -0.1544
   13MOL   C17812442   7.199   4.735   2.568 -0.1923  0.1150 -0.0212
   13MOL   C17912443   7.321   4.778   2.623 -0.5916 -0.1560  0.5632
   13MOL   C18012444   7.593   5.150   2.778  0.4111  0.6484 -0.0253
   13MOL   C18112445   7.615   5.262   2.861 -0.6994  0.2656  0.1235
   13MOL   C18212446   7.581   5.594   2.913 -0.1856  0.2803  0.5932
   13MOL   C18312447   7.642   5.721   2.888 -0.3460  0.2349 -0.2723
   13MOL   H18412448   7.906   5.900   3.011  0.8913 -0.1223 -1.2832
   13MOL   H18512449   7.862   5.726   3.155 -0.7039  0.8920 -0.2727
   13MOL   H18612450   7.730   5.521   3.210 -0.8036 -3.3548 -0.8802
   13MOL   H18712451   7.566   5.363   3.156  0.6391  0.8499  0.8857
   13MOL   H18812452   7.366   5.186   3.093 -2.3106  2.4665 -0.6074
   13MOL   H18912453   7.312   5.019   2.923 -0.3748  1.5341  0.3913
   13MOL   H19012454   7.542   4.931   2.660 -0.0872  0.8266 -2.8621
   13MOL   H19112455   7.247   5.103   2.676  0.3742 -0.3851 -0.5841
   13MOL   H19212456   7.017   5.021   2.590 -0.3446 -0.2982 -0.0188
   13MOL   H19312457   6.920   4.886   2.459  0.5493  0.2256 -2.5792
   13MOL   H19412458   6.779   4.782   2.297  2.0830  1.3655  0.7660
   13MOL   H19512459   6.656   4.574   2.228 -0.4670  0.3898  0.4670
   13MOL   H19612460   6.752   4.313   2.213 -1.0391  0.4625 -0.8481
   13MOL   H19712461   6.597   4.355   2.279 -0.4310 -1.5185  0.7581
   13MOL   H19812462   6.903   4.353   2.506 -1.2291 -0.1296  0.4293
   13MOL   H19912463   7.005   4.556   2.580  3.2412  1.7426 -2.9754
   13MOL   H20012464   7.198   4.629   2.547  2.9986 -0.4052  1.9898
   13MOL   H20112465   7.395   4.702   2.643 -2.2661 -1.6237  1.2388
   13MOL   H20212466   7.657   5.130   2.693 -1.3269 -2.3520 -0.6814
   13MOL   H20312467   7.694   5.335   2.850 -0.8758  0.6661  1.4280
   13MOL   H20412468   7.506   5.553   2.847 -0.3215  2.1366 -0.4680
   13MOL   H20512469   7.601   5.778   2.806 -1.0588 -1.8059 -1.3833
   13MOL   N20612470   6.710   4.212   2.383  0.0792  0.5761  0.0694
   13MOL   C20712471   6.660   4.090   2.335  0.0867 -0.0591  0.1689
   13MOL   C20812472   6.685   3.970   2.404 -0.1902  0.1129  0.2730
   13MOL   C20912473   6.633   3.852   2.358  0.2947  0.1472 -0.3413
   13MOL   C21012474   6.529   3.857   2.255 -0.2919 -0.4671 -0.1033
   13MOL   N21112475   6.462   3.741   2.215 -0.0575 -1.4847  0.6310
   13MOL   C21212476   6.434   3.714   2.082  0.2356 -0.7375  0.2646
   13MOL   C21312477   6.302   3.696   2.032  0.8982  0.2887  0.1574
   13MOL   C21412478   6.279   3.644   1.900  0.5424 -0.2839 -0.1689
   13MOL   C21512479   6.391   3.618   1.816  0.3808  0.3285  0.0858
   13MOL   N21612480   6.364   3.559   1.695 -0.7459  0.1382 -0.0717
   13MOL   C21712481   6.455   3.507   1.613  0.5626 -0.1079 -0.5828
   13MOL   C21812482   6.554   3.415   1.657 -0.1015  0.7557  0.1744
   13MOL   C21912483   6.637   3.353   1.561 -1.0157  0.4480  0.2611
   13MOL   C22012484   6.622   3.375   1.425  0.3052 -0.4693 -0.5701
   13MOL   N22112485   6.698   3.310   1.327  0.2780  0.3182 -0.3693
   13MOL   C22212486   6.739   3.349   1.200 -0.0113 -0.5931 -0.0262
   13MOL   C22312487   6.745   3.256   1.094  0.3358 -0.1140 -0.4650
   13MOL   C22412488   6.821   3.282   0.981 -0.0714 -0.7392  0.2548
   13MOL   C22512489   6.875   3.412   0.952  0.5055 -0.5771  0.7041
   13MOL   C22612490   6.968   3.438   0.832  0.5605 -0.1325  0.4248
   13MOL   C22712491   6.850   3.506   1.050  0.4798 -0.2519 -0.5159
   13MOL   C22812492   6.782   3.479   1.175 -0.3756 -0.0360  0.0230
   13MOL   C22912493   6.519   3.463   1.380  0.2019 -0.3090  0.1621
   13MOL   C23012494   6.438   3.532   1.476 -0.5977  0.5540 -0.1415
   13MOL   C23112495   6.516   3.658   1.858  0.2761  0.3341 -0.0841
   13MOL   C23212496   6.542   3.696   1.993 -0.1119  0.2648 -0.0267
   13MOL   C23312497   6.498   3.978   2.187 -0.0940  0.3441 -0.3964
   13MOL   C23412498   6.569   4.094   2.224  0.1403 -0.9640  0.1084
   13MOL   H23512499   6.747   4.227   2.476  1.8169 -2.4636 -0.0783
   13MOL   H23612500   6.749   3.977   2.490 -0.7975 -2.0789  0.9391
   13MOL   H23712501   6.648   3.753   2.398  0.2070 -0.4830 -1.8410
   13MOL   H23812502   6.472   3.662   2.277  0.2469 -1.4361  0.6413
   13MOL   H23912503   6.216   3.712   2.096 -0.1718 -0.0534 -1.1713
   13MOL   H24012504   6.176   3.621   1.874  1.4073 -2.2727 -2.0357
   13MOL   H24112505   6.275   3.578   1.651 -0.4899  0.5756 -0.4058
   13MOL   H24212506   6.564   3.388   1.761 -1.9337 -2.7963 -0.5175
   13MOL   H24312507   6.703   3.277   1.600 -0.7879 -0.3241 -1.5658
   13MOL   H24412508   6.754   3.235   1.365  0.7459  0.6085 -0.4742
   13MOL   H24512509   6.709   3.156   1.110  0.3746 -0.0070  0.3060
   13MOL   H24612510   6.847   3.201   0.915 -0.6907 -0.6867 -0.0470
   13MOL   H24712511   7.030   3.526   0.851 -0.6253  0.7348  0.3415
   13MOL   H24812512   6.904   3.468   0.749  0.1516 -0.0334  0.7777
   13MOL   H24912513   6.892   3.602   1.027 -1.7896  0.7118 -0.8002
   13MOL   H25012514   6.778   3.549   1.256 -0.8188  2.6430 -2.2416
   13MOL   H25112515   6.494   3.469   1.275 -1.7056  1.1169  0.6828
   13MOL   H25212516   6.355   3.583   1.430 -1.6700  1.5353  2.8293
   13MOL   H25312517   6.599   3.645   1.790  0.3890 -0.5863  0.2230
   13MOL   H25412518   6.642   3.722   2.024 -0.2036  1.4951 -0.6882
   13MOL   H25512519   6.419   3.987   2.113 -0.7948 -1.3449  0.1160
   13MOL   H25612520   6.540   4.190   2.183  1.4610 -0.7141 -0.2759
   13MOL   N25712521   7.046   3.323   0.802  0.3203 -0.1217  0.1543
   13MOL   C25812522   7.150   3.278   0.886 -0.0934  0.2403 -0.5658
   13MOL   C25912523   7.198   3.352   1.000 -0.1985 -0.0341  0.5859
   13MOL   C26012524   7.318   3.317   1.060  0.4439  0.1517  0.2778
   13MOL   C26112525   7.382   3.197   1.025 -0.8225 -0.7013  0.3409
   13MOL   N26212526   7.497   3.167   1.099  0.1147  0.4795  0.8612
   13MOL   C26312527   7.524   3.185   1.235  0.3304  0.4171  0.3681
   13MOL   C26412528   7.648   3.217   1.288 -0.2802  0.0048 -0.4176
   13MOL   C26512529   7.671   3.263   1.418  0.2447  0.5064  0.0968
   13MOL   C26612530   7.560   3.263   1.504  0.0714  0.2151  0.4103
   13MOL   N26712531   7.572   3.319   1.633  0.3443  0.0992 -0.2066
   13MOL   C26812532   7.481   3.333   1.740  0.1151 -0.2199 -0.3416
   13MOL   C26912533   7.525   3.303   1.865  0.9774  0.9045  0.0596
   13MOL   C27012534   7.448   3.321   1.980 -0.0063 -0.2605 -0.4917
   13MOL   C27112535   7.320   3.380   1.971  0.5423 -0.6171  0.5702
   13MOL   N27212536   7.250   3.417   2.085 -0.0040  0.7851  0.5702
   13MOL   C27312537   7.271   3.381   2.218 -0.1635 -0.5020  0.4659
   13MOL   C27412538   7.274   3.248   2.263 -0.5325 -0.8546 -0.1489
   13MOL   C27512539   7.298   3.212   2.395 -0.1560 -0.1813 -0.1391
   13MOL   C27612540   7.314   3.305   2.497  0.3662  0.9522 -0.8689
   13MOL   C27712541   7.348   3.277   2.641  0.4610 -0.9476  0.1016
   13MOL   C27812542   7.300   3.445   2.457 -0.2407  0.3690  0.5421
   13MOL   C27912543   7.281   3.481   2.317  0.1998 -0.0688  0.4797
   13MOL   C28012544   7.281   3.431   1.845  0.4046 -0.8178 -0.3754
   13MOL   C28112545   7.360   3.408   1.727  0.0785  0.6451 -0.2538
   13MOL   C28212546   7.431   3.217   1.459  0.4708  1.1578 -0.1022
   13MOL   C28312547   7.414   3.173   1.327 -0.7199  0.0740  0.2557
   13MOL   C28412548   7.343   3.130   0.909 -0.1196  0.2422 -0.6279
   13MOL   C28512549   7.220   3.166   0.841 -0.6506  0.7940  0.2660
   13MOL   H28612550   7.034   3.276   0.714 -1.4165  0.2932  0.1627
   13MOL   H28712551   7.151   3.443   1.037  1.5698  0.9386  0.4730
   13MOL   H28812552   7.349   3.381   1.142 -0.4181  2.3967 -1.1134
   13MOL   H28912553   7.570   3.116   1.051  0.8738  1.7579  0.6523
   13MOL   H29012554   7.737   3.220   1.226 -0.1526 -0.9566 -0.2799
   13MOL   H29112555   7.773   3.291   1.443  0.3536 -0.2636  0.5456
   13MOL   H29212556   7.665   3.308   1.669  0.3067 -0.4103 -0.2666
   13MOL   H29312557   7.618   3.249   1.878 -0.0950 -0.9843  0.0960
   13MOL   H29412558   7.479   3.286   2.077  1.0175 -2.2443 -1.5293
   13MOL   H29512559   7.165   3.469   2.071  0.0071  0.6362 -0.0538
   13MOL   H29612560   7.253   3.184   2.179 -1.2820 -0.0823 -0.5570
   13MOL   H29712561   7.307   3.105   2.411 -0.1278 -0.4953 -2.1876
   13MOL   H29812562   7.445   3.323   2.659  0.1561  0.4012 -1.5284
   13MOL   H29912563   7.375   3.173   2.657 -0.0508 -1.0788  0.1291
   13MOL   H30012564   7.309   3.525   2.529  0.5262 -0.1847  1.0744
   13MOL   H30112565   7.276   3.585   2.287  0.2511 -0.1348  0.2464
   13MOL   H30212566   7.188   3.486   1.844 -0.8217 -2.7305  2.0663
   13MOL   H30312567   7.335   3.455   1.633  1.8024  1.8611 -0.1328
   13MOL   H30412568   7.341   3.225   1.519 -1.4535  3.6769 -3.2033
   13MOL   H30512569   7.317   3.144   1.290 -0.6303 -1.5037  1.2004
   13MOL   H30612570   7.393   3.040   0.876  2.4661  0.3499  2.7017
   13MOL   H30712571   7.195   3.109   0.753  0.3714  0.9726 -0.1530
   13MOL   N30812572   7.250   3.334   2.734  0.2843  0.5586  0.0126
   13MOL   C30912573   7.248   3.315   2.874 -0.0333  0.3662  0.1103
   13MOL   C31012574   7.361   3.257   2.937 -0.4160 -0.3599  0.0736
   13MOL   C31112575   7.352   3.237   3.077  0.1333  0.3716 -0.0154
   13MOL   C31212576   7.247   3.275   3.152  0.0799 -0.7028  0.3014
   13MOL   N31312577   7.240   3.238   3.288 -1.0037  0.4028 -0.4452
   13MOL   C31412578   7.174   3.310   3.394  0.2358  0.3669  0.7925
   13MOL   C31512579   7.097   3.245   3.493 -0.2377  0.2045 -0.0926
   13MOL   C31612580   7.025   3.311   3.595  0.5478 -0.3389  0.7794
   13MOL   C31712581   7.018   3.454   3.585  0.0102  0.1022 -0.9628
   13MOL   N31812582   6.961   3.533   3.690  0.3054  0.1099 -0.6870
   13MOL   C31912583   6.907   3.663   3.686  0.3115  0.2392 -0.2666
   13MOL   C32012584   6.854   3.715   3.567  0.0795  0.4490  0.3108
   13MOL   C32112585   6.790   3.839   3.564  0.3030 -0.4989 -0.2109
   13MOL   C32212586   6.765   3.898   3.686  0.5243  0.5572  0.5212
   13MOL   N32312587   6.718   4.029   3.686 -0.2558 -0.4220  0.1029
   13MOL   C32412588   6.669   4.095   3.798 -0.9249  0.1928  0.0782
   13MOL   C32512589   6.724   4.219   3.831  0.5820 -0.4439 -0.1630
   13MOL   C32612590   6.668   4.291   3.934  0.7093  0.1285  0.0840
   13MOL   C32712591   6.560   4.240   4.016  0.7023 -0.9234  0.4709
   13MOL   C32812592   6.519   4.307   4.140 -0.8659 -0.0842 -0.4605
   13MOL   C32912593   6.503   4.114   3.982 -0.0116 -0.4191  0.7040
   13MOL   C33012594   6.560   4.042   3.873 -0.0338  0.6381  0.3197
   13MOL   C33112595   6.814   3.847   3.809 -0.5222  0.0258  0.2848
   13MOL   C33212596   6.885   3.732   3.805  0.4075 -0.0649  0.5894
   13MOL   C33312597   7.107   3.522   3.488  0.2117  0.0142 -0.4412
   13MOL   C33412598   7.189   3.449   3.398  0.3202  0.7378  0.2040
   13MOL   C33512599   7.136   3.338   3.094  0.1141  0.7686 -0.0336
   13MOL   C33612600   7.143   3.362   2.952 -0.0833  0.1903  0.3900
   13MOL   H33712601   7.161   3.362   2.695 -0.8775 -3.4409 -0.4468
   13MOL   H33812602   7.451   3.228   2.885 -2.0439 -1.3122 -2.3014
   13MOL   H33912603   7.438   3.195   3.127 -0.3121  1.1361  1.3922
   13MOL   H34012604   7.287   3.153   3.313  0.7007  0.8534 -2.0112
   13MOL   H34112605   7.096   3.138   3.502 -3.1582  0.1772 -0.0978
   13MOL   H34212606   6.969   3.270   3.677 -0.0065 -1.1286  0.0191
   13MOL   H34312607   6.941   3.487   3.777 -3.8434  1.7299 -0.6987
   13MOL   H34412608   6.874   3.662   3.475  0.3642  0.0387  0.6072
   13MOL   H34512609   6.751   3.882   3.472  0.3768 -2.5659 -1.2272
   13MOL   H34612610   6.705   4.080   3.600 -3.4296 -1.3898 -0.0771
   13MOL   H34712611   6.804   4.262   3.772 -0.1058 -1.3324 -1.7717
   13MOL   H34812612   6.720   4.380   3.966  1.2444 -0.5097  1.0397
   13MOL   H34912613   6.608   4.290   4.200 -0.5961  0.1091 -0.8085
   13MOL   H35012614   6.441   4.250   4.192 -1.0883 -0.4307 -1.1572
   13MOL   H35112615   6.424   4.066   4.038  0.3716  0.2659  1.8263
   13MOL   H35212616   6.520   3.946   3.844  1.4620 -0.5787  2.1544
   13MOL   H35312617   6.790   3.888   3.906 -0.3186 -0.1008  0.3899
   13MOL   H35412618   6.906   3.688   3.902  0.0252  1.7973  1.5466
   13MOL   H35512619   7.123   3.628   3.491  2.2338 -0.2867  0.1469
   13MOL   H35612620   7.252   3.503   3.329 -1.7678  1.2562 -1.3287
   13MOL   H35712621   7.049   3.368   3.150  1.4117  0.0771  2.4323
   13MOL   H35812622   7.050   3.399   2.913 -1.0551 -2.0806  0.5420
   13MOL   N35912623   6.493   4.445   4.107 -0.3884 -0.6231 -0.0399
   13MOL   C36012624   6.373   4.510   4.122  0.4686 -0.3221 -0.3352
   13MOL   C36112625   6.259   4.448   4.156 -0.0670  0.8500  0.8520
   13MOL   C36212626   6.131   4.514   4.152  0.3439  0.0647 -1.1581
   13MOL   C36312627   6.123   4.652   4.124 -0.0128  0.4222 -0.2474
   13MOL   N36412628   5.995   4.711   4.108 -0.3426 -0.3016 -0.4190
   13MOL   C36512629   5.957   4.828   4.168  0.9095 -0.2538 -0.2386
   13MOL   C36612630   5.833   4.885   4.124  0.3533 -1.3677  0.2280
   13MOL   C36712631   5.791   5.001   4.181  0.4376  0.1430 -0.3243
   13MOL   C36812632   5.860   5.065   4.287  0.1523  0.3546  0.3006
   13MOL   N36912633   5.814   5.180   4.347 -0.3870 -0.2967  0.0006
   13MOL   C37012634   5.692   5.243   4.351 -0.4395 -0.2252  0.1983
   13MOL   C37112635   5.629   5.271   4.231  0.4669 -0.4397  0.2748
   13MOL   C37212636   5.506   5.347   4.228 -0.4675  0.6000 -0.4210
   13MOL   C37312637   5.445   5.376   4.348  0.4643  0.1309 -0.8472
   13MOL   N37412638   5.319   5.435   4.337  0.2380  0.2643 -0.2427
   13MOL   C37512639   5.256   5.535   4.412 -0.4751  0.8894 -0.4818
   13MOL   C37612640   5.313   5.659   4.420  0.2442 -0.1671 -0.2246
   13MOL   C37712641   5.242   5.770   4.467  0.4462  0.4388 -0.8622
   13MOL   C37812642   5.113   5.743   4.529 -0.3359  0.0044 -0.0845
   13MOL   C37912643   5.034   5.855   4.586  0.4583 -1.0270 -0.1961
   13MOL   C38012644   5.060   5.606   4.532  0.2439 -1.0745  0.3740
   13MOL   C38112645   5.130   5.504   4.463 -0.4962  0.5767 -0.7654
   13MOL   C38212646   5.501   5.346   4.468  0.7927  0.6173  0.0420
   13MOL   C38312647   5.627   5.275   4.475  1.3275 -0.4982 -0.1201
   13MOL   C38412648   5.980   5.012   4.331  0.4391 -0.2776 -0.0910
   13MOL   C38512649   6.031   4.896   4.269 -0.2577  0.3658  0.1108
   13MOL   C38612650   6.245   4.722   4.102  0.1383  0.2029  0.0601
   13MOL   C38712651   6.366   4.651   4.110  0.1669  0.3939 -0.0239
   13MOL   H38812652   6.572   4.495   4.069 -0.8773  1.3386  1.4931
   13MOL   H38912653   6.266   4.341   4.165 -1.7522  0.4304 -2.0953
   13MOL   H39012654   6.043   4.459   4.182  1.5764 -1.6455 -0.6268
   13MOL   H39112655   5.925   4.640   4.091  2.3753 -2.6138 -2.5712
   13MOL   H39212656   5.777   4.834   4.047  0.7979 -1.0157 -0.3313
   13MOL   H39312657   5.701   5.044   4.141  0.2240 -1.0736 -1.1904
   13MOL   H39412658   5.871   5.193   4.429  0.4333  1.2189 -0.7918
   13MOL   H39512659   5.687   5.262   4.141  2.3483 -0.2270  1.4517
   13MOL   H39612660   5.468   5.386   4.135 -0.1472  0.7189 -0.5034
   13MOL   H39712661   5.279   5.413   4.247  1.8011 -0.1167 -0.8739
   13MOL   H39812662   5.413   5.682   4.388  0.7545  1.1796  2.2185
   13MOL   H39912663   5.270   5.872   4.449 -0.4242  0.4723 -2.0889
   13MOL   H40012664   4.969   5.872   4.501  0.2239 -1.6225 -0.1420
   13MOL   H40112665   5.101   5.937   4.608 -1.8160  1.0093 -0.6378
   13MOL   H40212666   4.969   5.588   4.586  0.6465 -2.1694  0.7196
   13MOL   H40312667   5.097   5.402   4.452  0.6735  0.2908 -1.7420
   13MOL   H40412668   5.453   5.366   4.563 -0.0395  0.4545 -0.3400
   13MOL   H40512669   5.670   5.227   4.562  1.7903  0.4083  0.1545
   13MOL   H40612670   6.037   5.058   4.410 -0.0398 -0.9590  0.6616
   13MOL   H40712671   6.128   4.869   4.307  0.2620  2.0970  0.0337
   13MOL   H40812672   6.247   4.829   4.084 -1.5430 -0.1794 -2.6834
   13MOL   H40912673   6.458   4.705   4.090  1.6201 -1.2098  2.0688
   13MOL   N41012674   4.935   5.834   4.692  0.1166 -0.2057  0.5103
   13MOL   C41112675   4.857   5.939   4.726 -0.0348 -0.2214  0.4133
   13MOL   C41212676   4.770   5.923   4.838 -1.0639 -0.0176  0.1139
   13MOL   C41312677   4.686   6.023   4.873 -0.1260 -0.0043 -0.1260
   13MOL   C41412678   4.681   6.141   4.799  0.0745  0.0002 -0.5048
   13MOL   N41512679   4.589   6.238   4.834  0.1982  0.0753 -0.1811
   13MOL   C41612680   4.569   6.355   4.759 -0.0958  0.6008  0.6835
   13MOL   C41712681   4.675   6.435   4.722 -0.6318 -0.8670 -0.2947
   13MOL   C41812682   4.643   6.547   4.648  0.5701 -0.2704 -0.5002
   13MOL   C41912683   4.515   6.577   4.605  0.2761  0.3188 -0.1566
   13MOL   N42012684   4.489   6.685   4.520 -0.4980 -0.0800  0.2193
   13MOL   C42112685   4.418   6.690   4.398 -0.3067  0.2923  0.4948
   13MOL   C42212686   4.421   6.811   4.323  0.6791 -1.0170  0.0413
   13MOL   C42312687   4.386   6.816   4.186  0.0085 -0.0764  1.2276
   13MOL   C42412688   4.312   6.710   4.134  0.8677  0.9502  0.7172
   13MOL   N42512689   4.276   6.716   4.000 -0.1572 -0.1862  0.5922
   13MOL   C42612690   4.266   6.831   3.920 -0.3057 -0.0848  0.2152
   13MOL   C42712691   4.162   6.916   3.945  0.5929 -0.0364  0.4087
   13MOL   C42812692   4.147   7.037   3.878  0.2307  0.2124 -0.0670
   13MOL   C42912693   4.222   7.057   3.759 -0.3451 -0.5996 -0.1839
   13MOL   C43012694   4.194   7.182   3.680  0.0719 -0.0138 -0.3984
   13MOL   C43112695   4.323   6.964   3.727  0.1015 -0.5190 -0.2396
   13MOL   C43212696   4.345   6.851   3.809  0.0679  0.5969  0.0757
   13MOL   C43312697   4.284   6.595   4.215  0.1947 -0.1873 -0.2147
   13MOL   C43412698   4.341   6.583   4.343 -0.7631 -0.2014  0.3205
   13MOL   C43512699   4.407   6.495   4.647 -0.1527 -1.0796  0.0247
   13MOL   C43612700   4.437   6.376   4.715 -0.2192  0.9814  0.8582
   13MOL   C43712701   4.768   6.155   4.687  0.9483  0.0093  0.4290
   13MOL   C43812702   4.863   6.062   4.663  0.4939 -0.1729  0.1170
   13MOL   H43912703   4.952   5.746   4.738 -1.9536 -1.0006 -0.2231
   13MOL   H44012704   4.763   5.826   4.885  0.6881 -0.5133 -0.6433
   13MOL   H44112705   4.626   6.000   4.960  0.1203 -1.5883 -0.3548
   13MOL   H44212706   4.521   6.210   4.903  0.9078  0.3124  0.6165
   13MOL   H44312707   4.776   6.410   4.754  0.4716  1.3357 -1.9693
   13MOL   H44412708   4.725   6.612   4.622 -0.0555  0.4164 -0.7651
   13MOL   H44512709   4.574   6.739   4.511  0.9365 -2.1094  1.1707
   13MOL   H44612710   4.467   6.901   4.362  1.4343 -0.6563 -1.6469
   13MOL   H44712711   4.411   6.905   4.129 -1.0092  0.4658  1.6165
   13MOL   H44812712   4.297   6.632   3.947 -2.2244 -0.3201 -0.0486
   13MOL   H44912713   4.097   6.901   4.030  0.2885  1.6487  0.4975
   13MOL   H45012714   4.061   7.099   3.895 -0.7340 -0.3469 -2.6380
   13MOL   H45112715   4.279   7.201   3.614  0.5929  1.0808  0.5654
   13MOL   H45212716   4.190   7.258   3.759 -2.3412 -1.6849  1.1548
   13MOL   H45312717   4.392   6.984   3.646 -0.8148  0.0018 -0.8976
   13MOL   H45412718   4.426   6.781   3.791  0.5251  1.0442  0.3764
   13MOL   H45512719   4.225   6.511   4.179  0.1616 -0.6844  0.9785
   13MOL   H45612720   4.327   6.499   4.409  0.6417  0.5550  1.5933
   13MOL   H45712721   4.306   6.526   4.628  0.5117  0.5916 -0.8399
   13MOL   H45812722   4.362   6.304   4.741  0.5074 -0.6954 -1.4633
   13MOL   H45912723   4.760   6.242   4.624 -0.9798  0.1978  0.9034
   13MOL   H46012724   4.919   6.074   4.572  0.4706 -0.4000  0.0711
   13MOL   N46112725   4.076   7.158   3.599 -0.2072 -0.1474 -0.2576
   13MOL   C46212726   4.029   7.277   3.535 -0.4062 -0.2488  0.1239
   13MOL   C46312727   3.966   7.382   3.614 -0.1964 -0.7293  0.0016
   13MOL   C46412728   3.944   7.507   3.551  0.4657  0.4784  0.1757
   13MOL   C46512729   3.968   7.529   3.413 -0.0846  0.2550  0.1063
   13MOL   N46612730   3.942   7.654   3.361 -0.7062 -0.5195 -0.0015
   13MOL   C46712731   3.980   7.707   3.237  0.8194 -0.0886  0.1955
   13MOL   C46812732   4.104   7.683   3.181  0.2939  0.2087 -0.0080
   13MOL   C46912733   4.150   7.745   3.063  0.0092  0.5885 -0.2092
   13MOL   C47012734   4.054   7.819   2.988  0.1745 -0.5607  0.2199
   13MOL   N47112735   4.097   7.864   2.869  0.0278 -0.1419  0.8106
   13MOL   C47212736   4.022   7.903   2.763 -0.1759  0.0875 -0.3617
   13MOL   C47312737   3.933   0.028   2.783  0.2920 -0.1365 -0.0503
   13MOL   C47412738   3.849   0.065   2.675 -0.0760  0.0538 -0.5086
   13MOL   C47512739   3.857   0.001   2.549 -0.4147 -0.4415 -0.5334
   13MOL   N47612740   3.764   0.037   2.447  0.1718  0.0833 -0.7054
   13MOL   C47712741   3.791   0.025   2.308  1.0160  0.2902  0.1065
   13MOL   C47812742   3.919   0.047   2.247 -0.4047  0.4804  0.0908
   13MOL   C47912743   3.938   0.023   2.104  0.2446 -0.1030  0.1833
   13MOL   C48012744   3.822   0.006   2.023 -0.5567  0.3541 -0.0647
   13MOL   C48112745   3.845   7.967   1.875 -0.3043 -0.3190 -0.4429
   13MOL   C48212746   3.700   7.964   2.082 -0.6103  0.5247 -0.6397
   13MOL   C48312747   3.675   7.977   2.222 -0.8699  0.7100 -0.9466
   13MOL   C48412748   3.956   7.890   2.528 -0.5010  0.1916 -0.1290
   13MOL   C48512749   4.042   7.845   2.635 -1.1606 -0.0135 -0.4746
   13MOL   C48612750   3.921   7.840   3.039  0.1085 -0.6342 -0.2146
   13MOL   C48712751   3.888   7.786   3.168 -0.1817 -0.2054  0.3914
   13MOL   C48812752   4.034   7.426   3.338  0.3564 -0.2989  0.1006
   13MOL   C48912753   4.056   7.299   3.397  0.0403 -0.3277 -0.2355
   13MOL   H49012754   4.092   7.077   3.541 -0.7122  0.4719 -1.2617
   13MOL   H49112755   3.952   7.369   3.720  0.2295  0.8373  0.2645
   13MOL   H49212756   3.892   7.582   3.608 -2.5070  0.7239 -2.7037
   13MOL   H49312757   3.849   7.688   3.383 -0.7192  0.4260 -1.4130
   13MOL   H49412758   4.178   7.645   3.250 -0.8935 -0.0060  1.1597
   13MOL   H49512759   4.247   7.720   3.025 -1.1822 -0.9003 -2.3837
   13MOL   H49612760   4.181   7.827   2.826 -0.2472  0.7339 -0.5147
   13MOL   H49712761   3.928   0.083   2.875  0.2622  0.0037 -0.1345
   13MOL   H49812762   3.763   0.126   2.698  1.1164  0.1886  4.2439
   13MOL   H49912763   3.690   0.099   2.474  2.1628  1.6002  1.4971
   13MOL   H50012764   4.010   0.073   2.300  0.3999 -0.2983 -0.8839
   13MOL   H50112765   4.034   0.050   2.062 -0.1687  0.1387 -0.6080
   13MOL   H50212766   3.934   7.906   1.859  1.6954  2.1575  0.8129
   13MOL   H50312767   3.866   0.086   1.841  3.1006 -1.8049 -3.2124
   13MOL   H50412768   3.608   7.944   2.028 -1.6584 -0.5098  1.4771
   13MOL   H50512769   3.573   7.967   2.255 -1.5104  1.9020 -2.5135
   13MOL   H50612770   3.970   7.835   2.436 -0.1978 -2.0640  1.2373
   13MOL   H50712771   4.098   7.753   2.634  0.7034  1.0219  2.2095
   13MOL   H50812772   3.846   7.895   2.986  2.1236  2.4102 -0.0179
   13MOL   H50912773   3.789   7.812   3.201 -0.0964  1.2749 -0.4799
   13MOL   H51012774   4.056   7.432   3.233 -2.1173  0.2624 -0.4142
   13MOL   H51112775   4.089   7.215   3.336 -0.3545 -2.9320  2.9834
   13MOL   N51212776   3.729   7.915   1.808 -0.6799  0.4568  0.2758
   13MOL   C51312777   3.707   7.778   1.779 -0.1961 -0.4481 -0.0350
   13MOL   C51412778   3.772   7.678   1.855 -0.3564 -0.1878 -0.1068
   13MOL   C51512779   3.774   7.541   1.813  0.0625 -0.0108 -0.2139
   13MOL   C51612780   3.697   7.503   1.702  0.9489 -0.0498  0.0675
   13MOL   N51712781   3.702   7.376   1.647 -0.6956  0.4260 -0.6563
   13MOL   C51812782   3.769   7.258   1.692 -0.0753  0.2575 -0.8451
   13MOL   C51912783   3.739   7.215   1.820  0.4330  0.3497 -0.3644
   13MOL   C52012784   3.779   7.087   1.858  0.5396  0.6081 -0.3101
   13MOL   C52112785   3.853   7.006   1.773  0.6688 -0.4880  0.0751
   13MOL   N52212786   3.904   6.891   1.822 -0.3950 -0.2264  0.2286
   13MOL   C52312787   3.893   6.769   1.762 -0.1884  0.2657  0.4866
   13MOL   C52412788   3.968   6.663   1.816 -0.4945  0.1588 -0.4584
   13MOL   C52512789   3.953   6.534   1.763 -0.3927 -0.6767 -0.1400
   13MOL   C52612790   3.861   6.501   1.666  0.2340  0.2342  0.4167
   13MOL   N52712791   3.855   6.372   1.622  0.0781 -0.2616  0.1163
   13MOL   C52812792   3.918   6.260   1.678  0.2517  1.3169  0.5685
   13MOL   C52912793   3.877   6.211   1.803  1.3326  0.4248  0.3674
   13MOL   C53012794   3.937   6.090   1.853  0.2378  0.7099 -0.1966
   13MOL   C53112795   4.040   6.028   1.786 -0.7655  0.5245  0.1711
   13MOL   C53212796   4.105   5.900   1.845 -0.0668 -0.2711  0.1773
   13MOL   C53312797   4.076   6.072   1.657  0.4867  0.1014 -0.0323
   13MOL   C53412798   4.014   6.191   1.606 -0.2298 -0.2695  0.3052
   13MOL   C53512799   3.786   6.610   1.608  0.8611  0.6279 -0.8092
   13MOL   C53612800   3.805   6.744   1.654 -0.2993  0.3297  0.3928
   13MOL   C53712801   3.877   7.044   1.641  0.5878 -0.4446  0.0541
   13MOL   C53812802   3.831   7.168   1.599 -1.0918 -0.1653  0.1430
   13MOL   C53912803   3.613   7.600   1.641 -0.3780 -0.7089  0.3027
   13MOL   C54012804   3.620   7.735   1.681 -0.4136  0.7552 -0.7430
   13MOL   H54112805   3.676   0.003   1.759 -0.5028 -0.0741 -0.6794
   13MOL   H54212806   3.831   7.705   1.941 -2.8250  0.9177  1.2831
   13MOL   H54312807   3.831   7.467   1.867  1.5648  1.2561 -0.0227
   13MOL   H54412808   3.657   7.364   1.557 -0.5874  1.7122 -0.8919
   13MOL   H54512809   3.691   7.278   1.893  0.2863 -0.2989  0.1005
   13MOL   H54612810   3.759   7.061   1.961  1.4609 -0.1570 -0.3236
   13MOL   H54712811   3.957   6.904   1.906 -0.0348 -2.4245  0.3720
   13MOL   H54812812   4.043   6.673   1.892 -0.4695 -0.1174 -0.4485
   13MOL   H54912813   4.019   6.460   1.806 -0.5821 -2.8711 -3.4811
   13MOL   H55012814   3.813   6.351   1.533  0.5860 -0.1367 -0.1520
   13MOL   H55112815   3.795   6.257   1.856  1.0984  1.5642 -0.9655
   13MOL   H55212816   3.901   6.039   1.941  0.1667 -2.7344 -2.1218
   13MOL   H55312817   4.033   5.850   1.909  0.5811  1.7750  2.6178
   13MOL   H55412818   4.190   5.924   1.910 -0.4691 -1.8482  1.3176
   13MOL   H55512819   4.143   6.016   1.593 -0.1133 -0.0402 -0.5393
   13MOL   H55612820   4.044   6.217   1.506  1.0394 -0.7799  0.5395
   13MOL   H55712821   3.720   6.606   1.523  0.6508  1.7504 -0.7124
   13MOL   H55812822   3.735   6.814   1.611 -2.7820 -1.7421  0.9656
   13MOL   H55912823   3.931   6.975   1.578 -0.9187 -1.2636 -0.3757
   13MOL   H56012824   3.853   7.208   1.501  1.4372  2.6366  1.7890
   13MOL   H56112825   3.555   7.580   1.551  1.0168  3.4947 -1.6657
   13MOL   H56212826   3.555   7.807   1.634 -1.8072  0.9115  1.3605
   13MOL   N56312827   4.145   5.809   1.741  0.2396 -0.6599  0.1116
   13MOL   C56412828   4.198   5.678   1.770  0.0424 -0.2337 -0.2893
   13MOL   C56512829   4.283   5.613   1.678 -0.6107  0.6107 -1.2720
   13MOL   C56612830   4.341   5.488   1.707  0.2862 -0.2124 -0.3422
   13MOL   C56712831   4.317   5.424   1.829 -0.2934  0.1767 -0.4197
   13MOL   N56812832   4.372   5.305   1.868 -0.7119  0.5122  0.0637
   13MOL   C56912833   4.313   5.202   1.944  0.0435 -0.9728  0.6783
   13MOL   C57012834   4.388   5.099   2.001  0.8240  0.0370 -0.3129
   13MOL   C57112835   4.321   4.986   2.056 -0.2568 -0.7165  0.1183
   13MOL   C57212836   4.183   4.975   2.070 -0.3426  0.2388  0.2482
   13MOL   N57312837   4.122   4.865   2.130 -0.5980  0.4596  0.2092
   13MOL   C57412838   4.159   4.804   2.253  0.1492 -0.4347  0.1738
   13MOL   C57512839   4.089   4.687   2.292 -0.3032 -0.2143  0.7963
   13MOL   C57612840   4.097   4.641   2.429 -0.3108  0.3505  0.3416
   13MOL   C57712841   4.191   4.691   2.519 -0.0013 -0.1477  0.4602
   13MOL   N57812842   4.201   4.651   2.652  0.3483  0.4030  0.7258
   13MOL   C57912843   4.310   4.659   2.743  0.2018  0.1101  0.4276
   13MOL   C58012844   4.288   4.679   2.878 -0.2999 -0.1938 -0.3379
   13MOL   C58112845   4.398   4.681   2.965 -0.5729 -0.3511  0.4061
   13MOL   C58212846   4.527   4.668   2.916  0.0409  0.1615  0.1529
   13MOL   C58312847   4.648   4.702   3.004  0.5470  0.8928 -0.1358
   13MOL   C58412848   4.558   4.645   2.781  0.9084 -0.6104  1.0406
   13MOL   C58512849   4.442   4.644   2.697  0.1520  0.1489 -0.3846
   13MOL   C58612850   4.268   4.800   2.473  0.2768  0.6212 -0.1395
   13MOL   C58712851   4.250   4.861   2.343  0.2235  0.0303 -0.4906
   13MOL   C58812852   4.107   5.076   2.011  0.6171  0.4125  0.2997
   13MOL   C58912853   4.169   5.188   1.955  0.0250  0.8104 -0.2841
   13MOL   C59012854   4.235   5.497   1.922  0.4650 -0.1073  0.7542
   13MOL   C59112855   4.181   5.623   1.898 -0.4311  1.0224  0.1083
   13MOL   H59212856   4.170   5.851   1.652  0.5890 -0.7704  0.1546
   13MOL   H59312857   4.313   5.653   1.583  0.6606 -0.8423 -1.5133
   13MOL   H59412858   4.406   5.437   1.638  0.6397  2.0625 -1.7498
   13MOL   H59512859   4.455   5.280   1.816 -1.2620 -1.6784  0.1901
   13MOL   H59612860   4.496   5.107   2.010  0.7144  2.6612 -1.0651
   13MOL   H59712861   4.377   4.913   2.112 -3.2916 -2.0433  1.5712
   13MOL   H59812862   4.035   4.837   2.087 -0.0382  0.1859 -0.7540
   13MOL   H59912863   4.015   4.644   2.227 -0.9762  3.3283 -0.8580
   13MOL   H60012864   4.036   4.556   2.456  0.1295 -0.2462 -0.5283
   13MOL   H60112865   4.108   4.654   2.690 -0.4193  0.2196 -1.0716
   13MOL   H60212866   4.184   4.688   2.907  0.0148  0.0618  0.7211
   13MOL   H60312867   4.379   4.699   3.070 -0.5877 -1.3374  0.5776
   13MOL   H60412868   4.747   4.691   2.960  0.8763 -2.1439  1.2332
   13MOL   H60512869   4.644   4.636   3.091  0.0088 -2.3336 -2.4862
   13MOL   H60612870   4.660   4.624   2.753  0.9932 -1.0591  1.6781
   13MOL   H60712871   4.460   4.624   2.593 -2.5613 -2.4357 -0.4346
   13MOL   H60812872   4.340   4.842   2.541  2.5152  0.0275 -2.0856
   13MOL   H60912873   4.314   4.945   2.316 -0.2060  0.0791 -1.3631
   13MOL   H61012874   4.000   5.064   2.011  0.5639  0.7931 -0.7627
   13MOL   H61112875   4.104   5.264   1.915 -0.1481  0.5052 -0.5815
   13MOL   H61212876   4.204   5.438   2.007  3.5155  0.1156  2.0887
   13MOL   H61312877   4.120   5.671   1.973 -0.2285  1.0084  0.2799
   13MOL   N61412878   4.636   4.836   3.053  0.6916 -0.2713  0.1265
   13MOL   C61512879   4.715   4.889   3.149 -0.3611 -0.0901  0.5901
   13MOL   C61612880   4.680   5.013   3.204  0.1240  0.3063  0.6048
   13MOL   C61712881   4.749   5.068   3.312  0.4560  0.1643  0.0385
   13MOL   C61812882   4.866   5.006   3.354 -0.4944 -0.5673 -0.3018
   13MOL   N61912883   4.940   5.064   3.457 -0.6923 -0.3769  0.7742
   13MOL   C62012884   4.940   5.198   3.495 -0.1507  0.4104 -0.4303
   13MOL   C62112885   4.949   5.301   3.402  0.1569  0.2159  0.3283
   13MOL   C62212886   4.955   5.435   3.445 -0.0293  0.2734  0.3346
   13MOL   C62312887   4.960   5.466   3.587 -0.0345 -0.0582 -0.5099
   13MOL   N62412888   4.956   5.596   3.627  0.0735  0.3890 -0.5188
   13MOL   C62512889   4.941   5.708   3.545  0.0096  0.2681  0.9521
   13MOL   C62612890   4.833   5.793   3.575 -0.5501 -0.3035  0.4296
   13MOL   C62712891   4.820   5.914   3.504  0.3154 -0.0786 -0.8838
   13MOL   C62812892   4.901   5.942   3.387  0.5578  0.0241  0.2183
   13MOL   N62912893   4.883   6.049   3.306  0.1778  1.1070 -0.0461
   13MOL   C63012894   4.770   6.115   3.268 -0.0214  0.3976  0.0507
   13MOL   C63112895   4.782   6.252   3.234  0.2525 -0.2371 -0.1877
   13MOL   C63212896   4.674   6.339   3.220  0.6609  0.1036  0.5828
   13MOL   C63312897   4.547   6.286   3.243  0.0707  0.4398 -0.2900
   13MOL   C63412898   4.423   6.375   3.250  0.0077  0.0376  0.5757
   13MOL   C63512899   4.526   6.146   3.265  0.3614  0.1652 -0.1631
   13MOL   C63612900   4.638   6.065   3.280 -0.2416 -0.4063  0.0182
   13MOL   C63712901   5.009   5.855   3.367 -0.7285  0.5938 -0.2605
   13MOL   C63812902   5.043   5.746   3.453  0.0329 -0.3009 -0.4235
   13MOL   C63912903   4.954   5.363   3.678  0.9505  0.1301 -0.8866
   13MOL   C64012904   4.945   5.227   3.631 -0.7182  0.8098 -1.2148
   13MOL   C64112905   4.915   4.895   3.283 -0.5600 -0.2097  0.5660
   13MOL   C64212906   4.835   4.823   3.184  0.1290 -0.3876  0.4448
   13MOL   H64312907   4.557   4.885   3.012  0.0772 -0.2919  1.2660
   13MOL   H64412908   4.597   5.066   3.159 -1.6526 -1.4689  1.6910
   13MOL   H64512909   4.723   5.159   3.365 -1.7022 -0.1282 -0.4745
   13MOL   H64612910   4.968   5.003   3.532  1.7664 -3.4808 -2.4382
   13MOL   H64712911   4.939   5.270   3.299  0.2090  0.5644  0.2172
   13MOL   H64812912   4.950   5.510   3.367 -2.9631  0.2484  0.4355
   13MOL   H64912913   4.941   5.606   3.726 -1.2043 -1.8501 -0.4567
   13MOL   H65012914   4.769   5.767   3.658 -0.3435 -1.5295  0.2076
   13MOL   H65112915   4.745   5.984   3.535 -0.0818 -0.9467  0.1449
   13MOL   H65212916   4.972   6.076   3.267  1.6819 -0.8880  1.8586
   13MOL   H65312917   4.879   6.297   3.221 -0.7400  2.6320  1.7147
   13MOL   H65412918   4.691   6.445   3.208 -0.1335  0.5407  3.0257
   13MOL   H65512919   4.343   6.317   3.203  0.9583 -1.3005  0.5920
   13MOL   H65612920   4.438   6.470   3.200  0.3054 -0.1585  0.2891
   13MOL   H65712921   4.430   6.102   3.288  0.7668 -0.2856  0.6658
   13MOL   H65812922   4.610   5.966   3.314 -1.5850 -0.5997 -1.5651
   13MOL   H65912923   5.074   5.873   3.282  1.2736  1.3850  1.4096
   13MOL   H66012924   5.129   5.683   3.439 -1.5994 -2.3661 -1.3727
   13MOL   H66112925   4.964   5.376   3.785  0.1741  2.3002 -1.0586
   13MOL   H66212926   4.926   5.147   3.701 -1.0930  0.0849 -2.1252
   13MOL   H66312927   5.007   4.855   3.324 -0.3741 -1.2755 -0.8131
   13MOL   H66412928   4.877   4.734   3.141  0.8497 -0.0428  0.4228
   13MOL   N66512929   4.393   6.402   3.387  0.4145 -0.3170  0.3478
   13MOL   C66612930   4.291   6.492   3.428  0.1203 -0.4841 -0.4225
   13MOL   C66712931   4.271   6.504   3.566 -0.9039 -0.4180  0.3958
   13MOL   C66812932   4.187   6.603   3.621  0.5165  0.7880 -0.5679
   13MOL   C66912933   4.107   6.683   3.534  0.2501 -0.4978  0.5680
   13MOL   N67012934   4.015   6.769   3.585 -0.0066 -0.3461 -0.1339
   13MOL   C67112935   3.897   6.823   3.537  0.2421 -0.7633 -1.1789
   13MOL   C67212936   3.848   6.942   3.596 -0.2836  0.1339 -1.1364
   13MOL   C67312937   3.728   7.000   3.548 -0.6152 -0.3503  0.5719
   13MOL   C67412938   3.652   6.936   3.447  0.4272 -0.1684  0.2125
   13MOL   N67512939   3.530   6.990   3.412 -0.0835 -0.3963 -0.2509
   13MOL   C67612940   3.434   6.941   3.329  0.5151  0.4953  0.0849
   13MOL   C67712941   3.300   6.937   3.381 -1.2400  0.1493 -0.0985
   13MOL   C67812942   3.203   6.882   3.300  0.5411  0.7538 -0.5334
   13MOL   C67912943   3.234   6.820   3.178 -0.6768  0.4446  0.1959
   13MOL   N68012944   3.135   6.777   3.092 -0.4333 -0.0801 -0.2874
   13MOL   C68112945   3.021   6.847   3.059  0.4305  0.0191  0.2849
   13MOL   C68212946   2.919   6.763   3.015  0.0950  0.4711 -0.0095
   13MOL   C68312947   2.798   6.819   2.960 -0.6764  0.6746 -0.5786
   13MOL   C68412948   2.781   6.959   2.962  0.2197  0.0526 -1.2017
   13MOL   C68512949   2.660   7.032   2.898  0.2170  0.3555  0.0166
   13MOL   C68612950   2.884   7.036   3.017  0.2548 -0.5235 -0.6520
   13MOL   C68712951   3.002   6.985   3.070 -0.5189  0.8541  0.3062
   13MOL   C68812952   3.368   6.820   3.130  0.0677 -1.0902  0.6365
   13MOL   C68912953   3.463   6.885   3.206 -0.4554 -0.3180  0.0107
   13MOL   C69012954   3.700   6.817   3.392  0.0365 -0.1012 -0.2485
   13MOL   C69112955   3.820   6.761   3.437 -0.2708 -0.2251 -0.2069
   13MOL   C69212956   4.123   6.663   3.394 -0.3469 -0.2376  0.3562
   13MOL   C69312957   4.212   6.573   3.347  0.4775 -0.8050  0.4527
   13MOL   H69412958   4.440   6.353   3.462  2.4000 -0.7184 -1.1409
   13MOL   H69512959   4.331   6.444   3.631 -0.6603  0.3065  0.8393
   13MOL   H69612960   4.177   6.607   3.728 -1.5947 -0.9032 -0.6747
   13MOL   H69712961   4.035   6.784   3.683  2.9156 -2.8030 -0.2795
   13MOL   H69812962   3.904   6.988   3.677  0.9782 -3.2353  0.0276
   13MOL   H69912963   3.687   7.087   3.597 -0.5494 -0.3601  0.6445
   13MOL   H70012964   3.497   7.050   3.486  3.5941  0.9075  0.4298
   13MOL   H70112965   3.276   6.985   3.475  0.9352  0.2469  0.4211
   13MOL   H70212966   3.099   6.895   3.323  0.6783 -0.9227  1.2177
   13MOL   H70312967   3.141   6.682   3.058  0.6516 -0.5251  1.0895
   13MOL   H70412968   2.925   6.656   3.012 -0.6222  0.4033  0.7986
   13MOL   H70512969   2.719   6.758   2.920  0.4486  0.4071 -2.4795
   13MOL   H70612970   2.697   7.106   2.827  0.2639  0.9549  0.6534
   13MOL   H70712971   2.624   7.100   2.975 -0.6516 -1.3554  1.1444
   13MOL   H70812972   2.864   7.142   3.020  1.1426 -0.3761  0.4837
   13MOL   H70912973   3.081   7.050   3.106  0.9846 -0.9886  0.3861
   13MOL   H71012974   3.397   6.777   3.036  0.2938  2.2565 -0.8869
   13MOL   H71112975   3.566   6.885   3.171 -0.8375 -0.1126 -1.1393
   13MOL   H71212976   3.655   6.753   3.317 -0.6077  0.0339  0.0264
   13MOL   H71312977   3.860   6.668   3.399 -1.2713  0.4090 -2.9930
   13MOL   H71412978   4.068   6.719   3.320  1.3693  0.1053 -0.6862
   13MOL   H71512979   4.220   6.570   3.240  2.7444 -0.3972  0.5807
   13MOL   N71612980   2.555   6.950   2.839 -0.2251  0.1706  0.3079
   13MOL   C71712981   2.571   6.894   2.712 -0.3273  0.1661  0.0588
   13MOL   C71812982   2.482   6.790   2.677 -0.2650  0.0072  0.2104
   13MOL   C71912983   2.494   6.713   2.559  0.0166 -0.1615  0.3385
   13MOL   C72012984   2.604   6.735   2.474  0.1318 -0.0819 -0.1048
   13MOL   N72112985   2.627   6.666   2.359  0.3164 -0.3986  0.2001
   13MOL   C72212986   2.709   6.557   2.345 -0.1227  0.3532 -0.6550
   13MOL   C72312987   2.722   6.485   2.221  0.4173 -0.7826 -1.3384
   13MOL   C72412988   2.802   6.373   2.210 -0.3151 -0.2515 -0.1400
   13MOL   C72512989   2.894   6.340   2.316  0.3259 -0.2584 -0.0439
   13MOL   N72612990   2.991   6.240   2.296 -0.7816  0.5606  0.1952
   13MOL   C72712991   3.128   6.252   2.332  0.4171  0.0693 -0.3171
   13MOL   C72812992   3.187   6.367   2.382 -0.2112 -0.4944  0.5370
   13MOL   C72912993   3.322   6.366   2.416 -0.1202  0.3379  0.0189
   13MOL   C73012994   3.396   6.247   2.402  0.7766 -0.1802 -0.3857
   13MOL   N73112995   3.527   6.249   2.446  0.2033  0.2013  0.2023
   13MOL   C73212996   3.612   6.138   2.481  0.4555  1.0372 -0.1255
   13MOL   C73312997   3.733   6.121   2.411  0.7875 -0.1035 -0.1892
   13MOL   C73412998   3.820   6.028   2.470 -0.3433  0.3536 -0.7129
   13MOL   C73512999   3.782   5.941   2.576 -0.4224 -0.2555  0.3582
   13MOL   C73613000   3.875   5.829   2.621  0.0629  0.0170 -0.1134
   13MOL   C73713001   3.655   5.956   2.641 -0.5258 -0.4827  0.2528
   13MOL   C73813002   3.571   6.058   2.589  0.2527  0.1634  0.2306
   13MOL   C73913003   3.331   6.127   2.357  0.4293  0.2760  0.2302
   13MOL   C74013004   3.197   6.131   2.319  0.2248  0.1810 -0.1699
   13MOL   C74113005   2.870   6.396   2.440 -0.3910  0.0444 -0.2654
   13MOL   C74213006   2.778   6.502   2.458  0.4060  0.3227  0.5483
   13MOL   C74313007   2.697   6.828   2.507 -0.8785  0.0565 -0.6120
   13MOL   C74413008   2.685   6.910   2.628  0.2776  0.0422  0.0899
   13MOL   H74513009   2.496   6.908   2.909  1.1197  2.0553  2.6248
   13MOL   H74613010   2.391   6.770   2.733 -0.5859  1.0022  0.0470
   13MOL   H74713011   2.419   6.637   2.544 -1.5293  0.9857  2.1863
   13MOL   H74813012   2.631   6.721   2.275  1.3304 -0.2023  0.3726
   13MOL   H74913013   2.659   6.519   2.140 -0.2576 -0.8637 -0.8575
   13MOL   H75013014   2.800   6.314   2.119  2.0641 -2.0591  0.8908
   13MOL   H75113015   2.962   6.173   2.227  3.3442  0.1947 -1.3413
   13MOL   H75213016   3.142   6.464   2.396 -1.1943 -0.2635 -3.6080
   13MOL   H75313017   3.370   6.454   2.456  0.0512  1.5513 -2.7876
   13MOL   H75413018   3.585   6.322   2.407  1.2707 -1.6779 -1.8158
   13MOL   H75513019   3.768   6.186   2.333  0.2234 -1.3921 -1.5514
   13MOL   H75613020   3.917   6.020   2.422  0.8131  5.2183  0.5265
   13MOL   H75713021   3.903   5.858   2.722  0.9104  1.0362 -0.6376
   13MOL   H75813022   3.959   5.826   2.553 -1.3712  0.1737 -1.9272
   13MOL   H75913023   3.632   5.896   2.728  2.6124 -1.7154  0.2950
   13MOL   H76013024   3.486   6.080   2.652  1.3952 -2.3326  2.7459
   13MOL   H76113025   3.386   6.035   2.345 -1.8724 -0.7666 -2.9944
   13MOL   H76213026   3.147   6.042   2.285 -1.5446  0.3836  1.8236
   13MOL   H76313027   2.934   6.357   2.517 -3.3913 -2.7656  0.9315
   13MOL   H76413028   2.756   6.553   2.550  1.9707  1.8906  0.0683
   13MOL   H76513029   2.783   6.845   2.444  1.8273 -1.6230  2.4590
   13MOL   H76613030   2.774   6.962   2.662 -0.1166  0.7199  0.1103
   13MOL   N76713031   3.804   5.707   2.598  0.1458  0.0255 -0.0759
   13MOL   C76813032   3.851   5.583   2.642 -0.0435 -0.3206  0.1587
   13MOL   C76913033   3.770   5.467   2.630 -0.1676 -0.2521  0.3695
   13MOL   C77013034   3.812   5.345   2.688  0.0763  0.0581 -0.0688
   13MOL   C77113035   3.933   5.340   2.757 -0.1507  0.1976  0.5232
   13MOL   N77213036   3.969   5.227   2.832 -0.7564  0.9368  0.1694
   13MOL   C77313037   3.946   5.094   2.807 -0.5362 -0.2853  0.0265
   13MOL   C77413038   3.973   5.039   2.681  0.2945  0.6009  0.0674
   13MOL   C77513039   3.960   4.905   2.650 -0.3533  0.1321  0.0440
   13MOL   C77613040   3.906   4.819   2.752  0.9586  0.3843  0.7913
   13MOL   N77713041   3.878   4.679   2.727  0.0146  0.9792 -0.2419
   13MOL   C77813042   3.812   4.622   2.621 -0.2197  0.2941 -0.0642
   13MOL   C77913043   3.738   4.710   2.537  0.0917  0.7378 -0.0592
   13MOL   C78013044   3.676   4.655   2.421  0.0994  0.3734  0.0950
   13MOL   C78113045   3.680   4.513   2.398  0.6632 -0.3546 -0.5273
   13MOL   N78213046   3.597   4.469   2.294  0.0980 -0.4048 -0.3010
   13MOL   C78313047   3.572   4.337   2.266  0.7164 -0.3116 -0.1904
   13MOL   C78413048   3.669   4.258   2.207  0.3004  1.0746 -0.1068
   13MOL   C78513049   3.641   4.125   2.165 -0.6096 -0.5562  0.5391
   13MOL   C78613050   3.509   4.081   2.174 -0.5297 -0.3634 -0.0781
   13MOL   C78713051   3.469   3.941   2.146  0.3821 -0.2887  0.4823
   13MOL   C78813052   3.409   4.163   2.232  0.3318  0.3343 -0.4239
   13MOL   C78913053   3.441   4.292   2.279 -0.0438  0.8887 -0.3019
   13MOL   C79013054   3.751   4.426   2.485  0.4673  0.4428 -0.2358
   13MOL   C79113055   3.824   4.482   2.594  0.6656 -0.0226  0.0474
   13MOL   C79213056   3.884   4.871   2.886  0.2301 -1.1691 -0.4156
   13MOL   C79313057   3.906   5.009   2.911 -0.0683 -0.5938 -0.4265
   13MOL   C79413058   4.018   5.451   2.759  0.0620  0.0240 -0.0080
   13MOL   C79513059   3.978   5.576   2.706 -0.3616 -0.3470  0.6650
   13MOL   H79613060   3.727   5.714   2.534 -1.1806  0.2630  1.5350
   13MOL   H79713061   3.675   5.473   2.580 -0.5992 -1.1400  1.0697
   13MOL   H79813062   3.736   5.269   2.679 -1.3551  1.4209  0.2574
   13MOL   H79913063   4.000   5.251   2.925  1.8702  2.3829 -1.0040
   13MOL   H80013064   3.990   5.101   2.594  3.4135 -0.3154 -0.0303
   13MOL   H80113065   3.985   4.868   2.552 -1.5112 -0.8922  0.1305
   13MOL   H80213066   3.847   4.637   2.813  2.6232  1.8364  1.1575
   13MOL   H80313067   3.723   4.813   2.567 -2.3834 -0.1230  1.7686
   13MOL   H80413068   3.627   4.719   2.350 -3.1885 -2.9823 -0.8404
   13MOL   H80513069   3.508   4.516   2.290 -1.7431 -3.7904 -1.2293
   13MOL   H80613070   3.772   4.288   2.199  1.7131 -1.7749  5.0046
   13MOL   H80713071   3.714   4.053   2.130  0.3175 -0.0208  1.3321
   13MOL   H80813072   3.470   3.927   2.038 -1.1882 -2.3139  0.7020
   13MOL   H80913073   3.363   3.927   2.168  0.8763 -2.6319  1.5468
   13MOL   H81013074   3.309   4.124   2.244  0.9729 -1.5335 -1.0033
   13MOL   H81113075   3.366   4.356   2.323  0.2612 -0.2649  1.9796
   13MOL   H81213076   3.777   4.327   2.452  0.9833  0.9012 -1.2250
   13MOL   H81313077   3.893   4.429   2.658 -0.6659 -0.2555  1.3147
   13MOL   H81413078   3.835   4.814   2.964 -0.3314  0.0705  0.1442
   13MOL   H81513079   3.891   5.047   3.011 -0.9621 -0.4133 -0.6259
   13MOL   H81613080   4.118   5.434   2.797  0.6929  1.2715 -1.0765
   13MOL   H81713081   4.046   5.658   2.721  0.0431 -0.4705 -0.4549
   13MOL   N81813082   3.550   3.837   2.203  0.3206 -0.4128 -0.1618
   13MOL   C81913083   3.563   3.818   2.340 -0.1598  0.4846  0.2344
   13MOL   C82013084   3.628   3.701   2.381  0.3790 -0.5038  0.1449
   13MOL   C82113085   3.630   3.676   2.522 -0.1298  0.1723  0.1350
   13MOL   C82213086   3.559   3.758   2.613 -0.3602  0.2096  0.4125
   13MOL   N82313087   3.550   3.726   2.746  0.1603 -0.0165  0.5759
   13MOL   C82413088   3.557   3.604   2.811  0.3443  0.7961 -0.4728
   13MOL   C82513089   3.531   3.486   2.744  0.1390 -0.1891 -0.2522
   13MOL   C82613090   3.554   3.367   2.818 -0.1131 -0.2090  0.7111
   13MOL   C82713091   3.575   3.365   2.954  0.7312 -0.4819 -0.1972
   13MOL   N82813092   3.598   3.241   3.016  0.0191 -0.3015 -0.3133
   13MOL   C82913093   3.534   3.192   3.131  0.2788  0.1678 -0.3328
   13MOL   C83013094   3.574   3.078   3.200 -0.2902  0.3678 -0.2455
   13MOL   C83113095   3.501   3.044   3.318  0.1553 -0.0707  0.1733
   13MOL   C83213096   3.384   3.108   3.362  0.3819  0.1824 -0.6333
   13MOL   N83313097   3.328   3.069   3.484 -0.7272  0.1052  0.2410
   13MOL   C83413098   3.326   2.945   3.540 -0.1486  0.3900  0.5881
   13MOL   C83513099   3.324   2.936   3.683 -0.5955  0.0502  0.3956
   13MOL   C83613100   3.316   2.809   3.748 -0.2088 -0.3000 -0.3162
   13MOL   C83713101   3.308   2.694   3.673 -0.0184  0.2058 -0.5043
   13MOL   C83813102   3.314   2.557   3.745  0.2486  0.0875 -0.5803
   13MOL   C83913103   3.311   2.699   3.531 -0.3252  0.5389  0.2638
   13MOL   C84013104   3.313   2.826   3.469 -0.2473  0.0215  0.2855
   13MOL   C84113105   3.331   3.216   3.282 -1.2805  0.0696 -0.8438
   13MOL   C84213106   3.408   3.257   3.173 -0.1083  0.4676 -0.9536
   13MOL   C84313107   3.591   3.483   3.026  0.8048  0.0201 -0.6621
   13MOL   C84413108   3.587   3.601   2.951 -0.0509 -0.6050  0.4729
   13MOL   C84513109   3.499   3.876   2.570  0.1892  0.0656 -0.3558
   13MOL   C84613110   3.501   3.905   2.436 -0.1217  0.6221  0.6115
   13MOL   H84713111   3.605   3.772   2.147  0.1619 -1.5865  1.0261
   13MOL   H84813112   3.678   3.636   2.312 -2.2115 -0.7575 -1.5537
   13MOL   H84913113   3.677   3.585   2.555  0.1365  0.4020  0.3968
   13MOL   H85013114   3.516   3.799   2.808 -0.7143 -0.4299  0.5818
   13MOL   H85113115   3.518   3.477   2.638  1.0553  1.7345 -0.5584
   13MOL   H85213116   3.544   3.272   2.767  0.7483  0.2417 -0.3252
   13MOL   H85313117   3.647   3.177   2.956 -1.8576 -1.6134 -0.5153
   13MOL   H85413118   3.667   3.031   3.174  0.9412  1.8199  1.3806
   13MOL   H85513119   3.536   2.961   3.377  0.5321  1.5281  2.2508
   13MOL   H85613120   3.296   3.150   3.535 -1.0626 -0.2508  0.5937
   13MOL   H85713121   3.330   3.026   3.742 -1.2225 -1.2223  2.4173
   13MOL   H85813122   3.324   2.806   3.856 -1.6546 -0.6990 -0.2143
   13MOL   H85913123   3.253   2.565   3.835  2.1696 -3.2550  1.1224
   13MOL   H86013124   3.409   2.539   3.795  0.4035  2.3032 -0.0300
   13MOL   H86113125   3.305   2.609   3.471  2.2156 -0.6813  1.7714
   13MOL   H86213126   3.311   2.832   3.361  1.9685  1.2192  0.2823
   13MOL   H86313127   3.242   3.266   3.316  1.0914  2.8394  1.5674
   13MOL   H86413128   3.381   3.352   3.129 -0.1863  0.9928  0.1898
   13MOL   H86513129   3.620   3.490   3.129  1.0847  2.4031 -0.8785
   13MOL   H86613130   3.599   3.696   3.002  2.8588 -0.2545 -0.7503
   13MOL   H86713131   3.460   3.943   2.646  0.8687 -0.8387  0.8055
   13MOL   H86813132   3.451   3.996   2.406  1.5702  1.4815  0.3485
   13MOL   N86913133   3.285   2.440   3.674 -0.5134  0.1129 -0.4418
   13MOL   C87013134   3.202   2.352   3.751  0.2860 -0.4119 -0.3856
   13MOL   C87113135   3.065   2.378   3.795  0.2424 -0.2402 -0.0482
   13MOL   C87213136   3.010   2.281   3.881  0.0196 -0.1583  0.2295
   13MOL   C87313137   3.062   2.154   3.895 -0.1657  0.4481  0.0955
   13MOL   N87413138   2.997   2.060   3.980 -0.7113 -0.7747  0.0587
   13MOL   C87513139   2.881   2.075   4.064 -0.3967  0.6079 -0.5717
   13MOL   C87613140   2.888   2.027   4.198  0.4171  0.5426 -0.1215
   13MOL   C87713141   2.768   2.008   4.271  0.0008  0.0512  0.4497
   13MOL   C87813142   2.650   2.080   4.228 -0.4204  0.5070  0.3973
   13MOL   N87913143   2.532   2.074   4.306  0.7541  0.6784 -0.2121
   13MOL   C88013144   2.407   2.137   4.292  1.0482 -0.1576  1.1249
   13MOL   C88113145   2.287   2.061   4.305  0.3487 -0.0207  0.0447
   13MOL   C88213146   2.155   2.121   4.287 -0.7343  0.8712  0.5891
   13MOL   C88313147   2.144   2.258   4.261  0.8341 -0.5322 -0.3983
   13MOL   N88413148   2.032   2.331   4.239 -0.0136  0.1523  0.0512
   13MOL   C88513149   1.904   2.284   4.269 -0.1036 -0.2641 -0.0537
   13MOL   C88613150   1.822   2.368   4.347 -0.4506 -0.2607 -0.6217
   13MOL   C88713151   1.688   2.330   4.374 -0.0835  0.5540 -0.1643
   13MOL   C88813152   1.633   2.210   4.321 -0.4630 -0.2721  0.3194
   13MOL   C88913153   1.496   2.172   4.365 -0.3864  0.1098 -0.3828
   13MOL   C89013154   1.720   2.119   4.254 -0.0822 -0.1921 -0.1244
   13MOL   C89113155   1.853   2.159   4.218  0.5832  0.2008  0.0481
   13MOL   C89213156   2.260   2.332   4.253  0.0586 -0.1466 -0.5659
   13MOL   C89313157   2.389   2.276   4.268  0.2362 -0.4466 -0.4718
   13MOL   C89413158   2.656   2.152   4.109 -0.5159 -0.4471 -0.0336
   13MOL   C89513159   2.762   2.143   4.025  0.1021 -0.2580  0.3165
   13MOL   C89613160   3.184   2.122   3.838  0.1572 -0.2549  0.0152
   13MOL   C89713161   3.254   2.222   3.775 -0.1953 -0.7877 -0.0139
   13MOL   H89813162   3.372   2.391   3.661 -0.4176 -0.4508  2.0271
   13MOL   H89913163   3.015   2.474   3.787 -0.6523 -0.7588 -0.7953
   13MOL   H90013164   2.921   2.306   3.937 -0.5560 -0.7886 -0.3889
   13MOL   H90113165   3.033   1.965   3.980  1.5552  0.0651  0.0010
   13MOL   H90213166   2.981   1.981   4.229  0.1650  0.8758  1.1277
   13MOL   H90313167   2.760   1.950   4.362 -0.3238  1.4924  1.3535
   13MOL   H90413168   2.517   2.003   4.376 -1.7587 -1.1123 -2.4295
   13MOL   H90513169   2.294   1.955   4.325 -0.0671 -0.1926 -0.6935
   13MOL   H90613170   2.078   2.048   4.305 -0.9916  1.1283  0.5283
   13MOL   H90713171   2.035   2.427   4.268  1.2198  0.4253 -0.9322
   13MOL   H90813172   1.868   2.452   4.398 -4.4075  0.5545  1.7498
   13MOL   H90913173   1.615   2.388   4.428 -1.4057 -0.4864 -0.8297
   13MOL   H91013174   1.426   2.252   4.340 -0.4581  0.6892  1.6076
   13MOL   H91113175   1.497   2.154   4.473  1.5575 -0.9808 -0.5464
   13MOL   H91213176   1.683   2.021   4.228 -1.3872 -0.2472  1.8169
   13MOL   H91313177   1.914   2.095   4.157 -0.8436 -0.8537 -0.3156
   13MOL   H91413178   2.261   2.438   4.230 -1.4441  0.7166  3.0228
   13MOL   H91513179   2.481   2.332   4.279 -0.3070  1.0145 -3.0326
   13MOL   H91613180   2.565   2.178   4.056  1.2653 -2.0387 -4.0776
   13MOL   H91713181   2.756   2.175   3.922  2.6606  1.3741  0.6240
   13MOL   H91813182   3.221   2.021   3.853 -2.8456 -1.6172 -1.3759
   13MOL   H91913183   3.346   2.193   3.728  0.8166  1.9018  0.2292
   13MOL   N92013184   1.445   2.059   4.287  0.1704 -0.4161 -0.6261
   13MOL   C92113185   1.328   1.993   4.319 -0.4530  0.2484  0.1216
   13MOL   C92213186   1.262   1.984   4.441  0.3090  0.4908  0.4648
   13MOL   C92313187   1.135   1.934   4.448  0.3417  0.4022 -0.5616
   13MOL   C92413188   1.062   1.889   4.333  0.0905 -0.0605  0.4250
   13MOL   N92513189   0.928   1.845   4.332  0.0766  0.2162  0.0829
   13MOL   C92613190   0.867   1.741   4.409 -0.4115 -0.5515 -0.1850
   13MOL   C92713191   0.933   1.677   4.511 -0.2470  0.1334 -0.3755
   13MOL   C92813192   0.875   1.578   4.599 -0.0065 -0.5332 -0.2738
   13MOL   C92913193   0.737   1.547   4.577 -0.3143 -0.1199 -0.1098
   13MOL   N93013194   0.673   1.470   4.671 -0.1949 -0.0480 -0.4785
   13MOL   C93113195   0.722   1.354   4.738  0.3215 -0.5571  0.3572
   13MOL   C93213196   0.792   1.253   4.671 -0.6760 -0.1452  0.4213
   13MOL   C93313197   0.811   1.128   4.735 -0.2747  0.7134 -0.5933
   13MOL   C93413198   0.766   1.101   4.865  0.2848  0.2652  0.7578
   13MOL   N93513199   0.783   0.974   4.927  0.6756 -0.4416 -0.0098
   13MOL   C93613200   0.729   0.850   4.899  0.4725  0.2870 -0.1508
   13MOL   C93713201   0.657   0.820   4.782  0.1557 -0.8345  0.0941
   13MOL   C93813202   0.611   0.687   4.764  0.5128  0.0958 -0.0949
   13MOL   C93913203   0.640   0.589   4.857  0.3735  0.3122 -0.5766
   13MOL   C94013204   0.606   0.448   4.830 -1.0320 -0.2688 -0.1155
   13MOL   C94113205   0.715   0.618   4.971 -1.0680 -0.2142 -0.7540
   13MOL   C94213206   0.754   0.750   4.998  0.8508  0.0540 -0.4920
   13MOL   C94313207   0.704   1.207   4.935  0.2093 -0.1210  0.1223
   13MOL   C94413208   0.678   1.328   4.871 -0.0240  0.3667 -0.0255
   13MOL   C94513209   0.669   1.605   4.464  0.3145 -0.4352 -0.3941
   13MOL   C94613210   0.737   1.706   4.387  0.3318 -0.3950  0.0715
   13MOL   C94713211   1.127   1.884   4.212 -0.9071 -0.7447 -0.3292
   13MOL   C94813212   1.259   1.937   4.205  0.0441 -0.4613  0.1323
   13MOL   H94913213   1.457   2.062   4.187 -0.9725 -2.6603 -0.8692
   13MOL   H95013214   1.308   2.029   4.528  1.1789 -1.6253  1.1251
   13MOL   H95113215   1.079   1.945   4.540  1.6831  2.7617  0.0206
   13MOL   H95213216   0.876   1.897   4.262  1.0964 -0.0479 -0.8835
   13MOL   H95313217   1.038   1.699   4.525 -0.3925  0.5135  0.1219
   13MOL   H95413218   0.923   1.528   4.681  1.0163  2.3671  0.9348
   13MOL   H95513219   0.573   1.469   4.666 -0.4166 -2.5968  2.6991
   13MOL   H95613220   0.829   1.259   4.570  1.1548 -3.9689  0.7615
   13MOL   H95713221   0.877   1.055   4.692  1.3004  1.0264  1.1844
   13MOL   H95813222   0.779   0.992   5.026 -1.7002 -3.0454  0.4486
   13MOL   H95913223   0.627   0.891   4.706  1.7778 -0.0912  0.1187
   13MOL   H96013224   0.541   0.660   4.687  1.3554  0.3797 -0.9560
   13MOL   H96113225   0.700   0.398   4.804  0.5050  1.2152  2.3918
   13MOL   H96213226   0.545   0.441   4.740 -1.1872 -1.1367  0.0453
   13MOL   H96313227   0.738   0.539   5.041 -1.2086  2.0989  1.9797
   13MOL   H96413228   0.801   0.769   5.093  0.9388  1.6934 -0.8476
   13MOL   H96513229   0.655   1.193   5.030 -1.5901 -0.0829 -0.7766
   13MOL   H96613230   0.620   1.403   4.924  0.5965  0.3144  0.7325
   13MOL   H96713231   0.563   1.582   4.459  0.2653 -0.3131  0.0162
   13MOL   H96813232   0.668   1.758   4.323 -0.1368 -0.0736  0.8228
   13MOL   H96913233   1.086   1.840   4.123 -1.0411 -1.3595  0.0336
   13MOL   H97013234   1.297   1.931   4.104 -2.7531  0.2535 -1.0118
   13MOL   N97113235   0.517   0.388   4.927  0.0486 -0.2111  0.1492
   13MOL   C97213236   0.486   0.249   4.924 -0.6753 -0.0455 -0.7641
   13MOL   C97313237   0.376   0.214   5.002  0.2102 -0.3861  0.2718
   13MOL   C97413238   0.347   0.075   5.012 -0.2184  0.2972  0.9853
   13MOL   C97513239   0.424   7.952   4.949  0.0307  0.2280 -0.1611
   13MOL   N97613240   0.396   7.815   4.954  0.3036 -0.0029 -0.2296
   13MOL   C97713241   0.385   7.743   5.075 -0.0078 -0.2277  0.3510
   13MOL   C97813242   0.349   7.603   5.069  0.4370 -0.1183  0.0097
   13MOL   C97913243   0.342   7.528   5.187 -0.2894 -0.3362 -0.2148
   13MOL   C98013244   0.360   7.592   5.315 -0.0028 -0.2704 -0.0388
   13MOL   N98113245   0.339   7.512   5.432 -0.0003 -0.1487 -0.2807
   13MOL   C98213246   0.365   7.549   5.563  0.0014  0.6139 -0.9904
   13MOL   C98313247   0.301   7.653   5.620 -0.1003 -0.1408  0.8580
   13MOL   C98413248   0.322   7.690   5.750  0.2913 -0.5110 -0.0456
   13MOL   C98513249   0.415   7.618   5.826  1.4441 -0.2794 -0.1338
   13MOL   N98613250   0.427   7.628   5.965 -0.2428 -0.1196 -0.2650
   13MOL   C98713251   0.383   7.727   6.058  0.2964 -0.2642 -0.2484
   13MOL   C98813252   0.342   7.685   6.187 -0.0420  0.8149  0.3455
   13MOL   C98913253   0.282   7.775   6.277  0.7599 -0.9274  0.0220
   13MOL   C99013254   0.275   7.912   6.244  0.0565 -0.4696 -0.0043
   13MOL   C99113255   0.207   0.026   6.343  0.2069  0.3304 -0.4150
   13MOL   C99213256   0.306   7.957   6.109 -0.6023 -0.5842  0.2852
   13MOL   C99313257   0.369   7.862   6.026  0.3589 -0.1181  0.2196
   13MOL   C99413258   0.486   7.506   5.771  0.7866 -0.6160 -0.8224
   13MOL   C99513259   0.458   7.472   5.641 -0.6713 -0.2581  0.1043
   13MOL   C99613260   0.408   7.726   5.317  0.0982 -0.0751 -0.1382
   13MOL   C99713261   0.422   7.796   5.196 -0.0222 -0.1543 -0.6645
   13MOL   C99813262   0.529   0.014   4.865 -0.4450 -0.2267 -0.0869
   13MOL   C99913263   0.564   0.149   4.860 -0.0027  0.1427  0.2106
   13MOL     H113264   0.456   0.449   4.978  0.9285  0.5684  0.2871
   13MOL     H213265   0.313   0.287   5.051 -0.1050 -0.6016  0.1870
   13MOL     H313266   0.270   0.052   5.085 -1.0388  0.8273  0.3020
   13MOL     H413267   0.385   7.767   4.866 -3.2875  1.1938 -0.5225
   13MOL     H513268   0.324   7.551   4.978  0.7033  1.5384 -1.0424
   13MOL     H613269   0.323   7.422   5.185 -2.0823 -0.0156 -2.3805
   13MOL     H713270   0.332   7.413   5.410 -0.3573 -0.0570 -0.5952
   13MOL     H813271   0.235   7.716   5.563  2.3878  1.4510 -0.3506
   13MOL     H913272   0.257   7.761   5.797  0.3408 -0.7589  0.4011
   13MOL    H1013273   0.451   7.541   6.012 -0.5692 -0.3223 -0.4661
   13MOL    H1113274   0.352   7.580   6.211 -0.4913  0.5434 -0.6040
   13MOL    H1213275   0.245   7.745   6.374  0.0540  1.2954  0.4594
   13MOL    H1313276   0.107   7.965   6.342  0.1463  0.4733 -0.7989
   13MOL    H1413277   0.188   0.128   6.313  0.4933  1.0026  1.6061
   13MOL    H1513278   0.287   0.078   6.082 -0.0585 -0.1088  1.6721
   13MOL    H1613279   0.402   7.901   5.931  0.9200  1.6407  1.1243
   13MOL    H1713280   0.552   7.450   5.836 -1.5575 -2.0821  0.3571
   13MOL    H1813281   0.523   7.395   5.602  1.0741  1.6183 -0.7939
   13MOL    H1913282   0.438   7.767   5.412 -0.8354 -0.8855  0.5188
   13MOL    H2013283   0.458   7.897   5.205  3.2271 -1.3852  1.0193
   13MOL    H2113284   0.596   7.932   4.811  0.0194  2.3429 -2.7122
   13MOL    H2213285   0.652   0.172   4.801  1.1264 -1.3143  1.3055
   13MOL    H2313286   0.256   0.014   6.439  2.3714  0.9029 -1.4077
   14MOL     N113287   3.501   1.636   4.394 -1.1246  0.3919 -0.2361
   14MOL     C213288   3.416   1.544   4.334 -0.1326 -0.1722  0.8141
   14MOL     C313289   3.404   1.540   4.190 -0.3780  0.3171  0.0420
   14MOL     C413290   3.311   1.453   4.132  0.2430  0.4552 -0.7480
   14MOL     C513291   3.242   1.356   4.211 -0.4486  0.1218  0.5771
   14MOL     N613292   3.155   1.275   4.142  0.2068 -0.0721 -0.4886
   14MOL     C713293   3.031   1.241   4.196 -0.0455 -0.0311 -0.3499
   14MOL     C813294   2.916   1.308   4.150  0.0162 -0.4691 -0.2505
   14MOL     C913295   2.788   1.266   4.196 -0.4031 -0.1764  0.2582
   14MOL    C1013296   2.780   1.161   4.294  0.2741  0.3831  0.0919
   14MOL    N1113297   2.659   1.121   4.345 -0.3236  0.0054 -0.4454
   14MOL    C1213298   2.561   1.049   4.278 -0.1722 -0.1161 -0.1135
   14MOL    C1313299   2.476   0.955   4.347 -0.3526 -0.4054 -0.4931
   14MOL    C1413300   2.381   0.876   4.276  0.0111 -0.3580 -0.1399
   14MOL    C1513301   2.362   0.906   4.140 -0.3545  0.3585  0.3337
   14MOL    N1613302   2.247   0.851   4.075  0.6627 -0.1024 -0.0363
   14MOL    C1713303   2.117   0.828   4.126 -0.4373  0.1601 -0.0860
   14MOL    C1813304   2.032   0.744   4.051  0.4291  0.5693 -1.0195
   14MOL    C1913305   1.906   0.704   4.101 -0.0839  0.4974 -0.0487
   14MOL    C2013306   1.866   0.759   4.228  0.4682 -0.2583  0.4213
   14MOL    C2113307   1.731   0.718   4.290 -0.0588 -0.1137  0.5902
   14MOL    C2213308   1.953   0.848   4.298  0.7099 -0.3082 -0.1879
   14MOL    C2313309   2.078   0.884   4.241  0.3271 -1.3985 -0.0740
   14MOL    C2413310   2.438   0.999   4.068 -1.0001 -0.1208 -0.7116
   14MOL    C2513311   2.538   1.067   4.136  0.2861  0.3057 -0.3862
   14MOL    C2613312   2.896   1.100   4.342  0.9209 -0.4680  0.5015
   14MOL    C2713313   3.021   1.131   4.289  0.1733  1.0686  0.5882
   14MOL    C2813314   3.257   1.351   4.353 -0.6089  0.0496 -0.2534
   14MOL    C2913315   3.338   1.452   4.408 -0.2861 -0.1384  0.1079
   14MOL    H3013316   3.576   1.669   4.336  2.8916 -3.1878  2.5869
   14MOL    H3113317   3.452   1.611   4.124  2.3461 -2.9974 -1.6898
   14MOL    H3213318   3.300   1.457   4.025 -0.6656 -2.3181 -0.8110
   14MOL    H3313319   3.168   1.265   4.042  2.5862 -0.8120 -0.1377
   14MOL    H3413320   2.927   1.369   4.061 -1.1737 -0.0556 -0.1198
   14MOL    H3513321   2.702   1.327   4.173 -1.1404 -1.3034 -0.0389
   14MOL    H3613322   2.667   1.100   4.443 -0.0175 -0.2981 -0.5357
   14MOL    H3713323   2.501   0.945   4.451 -0.7255  3.6376  0.0771
   14MOL    H3813324   2.328   0.797   4.327  2.7659 -1.1543  1.5676
   14MOL    H3913325   2.240   0.861   3.975  0.9979  1.3935  0.0692
   14MOL    H4013326   2.059   0.715   3.950  0.1565  0.3632 -1.0343
   14MOL    H4113327   1.845   0.633   4.048 -1.9082  1.7591  0.3061
   14MOL    H4213328   1.659   0.679   4.218  1.7452  1.3643 -2.0950
   14MOL    H4313329   1.699   0.803   4.350  1.9257  0.2744  1.1258
   14MOL    H4413330   1.915   0.903   4.382  2.0282 -2.9101  2.2042
   14MOL    H4513331   2.132   0.960   4.295  0.1369 -0.1203 -1.6530
   14MOL    H4613332   2.412   1.029   3.967  0.3972 -2.4489 -1.8110
   14MOL    H4713333   2.610   1.127   4.081 -0.0490 -0.0774 -1.2555
   14MOL    H4813334   2.897   1.027   4.422  4.3191 -2.5840 -1.3686
   14MOL    H4913335   3.113   1.084   4.319 -0.4392  1.2360  2.8249
   14MOL    H5013336   3.199   1.300   4.429 -3.1565  0.5456 -1.7967
   14MOL    H5113337   3.350   1.451   4.515 -1.6724 -1.6904  0.2687
   14MOL    H5213338   3.544   1.606   4.481 -0.0223 -1.8168 -1.5136
   14MOL    N5313339   1.759   0.607   4.385 -0.1322  0.5866 -0.0122
   14MOL    C5413340   1.664   0.540   4.462  0.8133 -0.0746 -0.2227
   14MOL    C5513341   1.557   0.615   4.509 -0.7815  0.0197 -0.6580
   14MOL    C5613342   1.460   0.558   4.595  0.5064 -0.2881  0.1297
   14MOL    C5713343   1.461   0.419   4.615  0.1096 -0.2294 -1.0244
   14MOL    N5813344   1.359   0.365   4.694  0.4772 -0.2391  0.1477
   14MOL    C5913345   1.367   0.293   4.812 -0.6129  0.1538 -0.0077
   14MOL    C6013346   1.490   0.266   4.882  0.2166 -0.2970  0.6162
   14MOL    C6113347   1.484   0.193   4.999 -0.1944 -0.3810  0.1387
   14MOL    C6213348   1.369   0.122   5.036  0.3934 -0.2928  0.2282
   14MOL    N6313349   1.359   0.052   5.159  0.3489  0.3562  0.0939
   14MOL    C6413350   1.447   0.047   5.262  0.8670 -0.2764 -0.0347
   14MOL    C6513351   1.580   0.005   5.251  0.1293  0.6668 -0.0345
   14MOL    C6613352   1.665   0.006   5.364  1.1341 -0.0313 -0.3431
   14MOL    C6713353   1.612   0.046   5.492  0.6711  0.0182 -0.1667
   14MOL    N6813354   1.703   0.062   5.597 -0.1350 -0.8333  0.4092
   14MOL    C6913355   1.678   0.038   5.726 -0.4012 -0.0677  0.0100
   14MOL    C7013356   1.579   7.936   5.768  0.2885  0.3866 -0.2621
   14MOL    C7113357   1.525   7.942   5.899 -0.1996  0.4999  0.3211
   14MOL    C7213358   1.601   0.033   5.997  0.0273  0.3219  0.2002
   14MOL    C7313359   1.545   0.060   6.140  0.3698  0.1581 -0.8260
   14MOL    C7413360   1.723   0.103   5.961  0.6179  0.4615  0.1719
   14MOL    C7513361   1.760   0.101   5.827 -0.0523  0.1728  0.1578
   14MOL    C7613362   1.474   0.080   5.503 -0.0000  0.4114 -0.2402
   14MOL    C7713363   1.393   0.081   5.388 -0.2431 -0.1591  0.2168
   14MOL    C7813364   1.251   0.134   4.958  0.3389  0.1378  0.0737
   14MOL    C7913365   1.250   0.224   4.851 -0.1567 -0.7309 -1.2311
   14MOL    C8013366   1.571   0.341   4.568 -0.6592  0.1359 -0.6830
   14MOL    C8113367   1.671   0.405   4.489 -0.5960  0.4154  0.0542
   14MOL    H8213368   1.850   0.562   4.392 -1.2101 -1.6945 -0.2246
   14MOL    H8313369   1.548   0.719   4.483 -2.6122  0.1093  0.2701
   14MOL    H8413370   1.382   0.622   4.635 -1.6539 -1.2115 -2.4717
   14MOL    H8513371   1.265   0.394   4.671  0.9628  0.6036 -0.8140
   14MOL    H8613372   1.582   0.309   4.845  0.6675 -1.6098  0.2016
   14MOL    H8713373   1.574   0.184   5.058  0.0720 -0.4339 -0.2668
   14MOL    H8813374   1.261   0.037   5.176 -0.0333  1.8227 -0.6923
   14MOL    H8913375   1.619   7.955   5.155  0.7571 -2.2289  1.1502
   14MOL    H9013376   1.772   7.978   5.354  0.8811 -0.6351 -2.7395
   14MOL    H9113377   1.776   0.130   5.580 -0.5617 -0.6580 -0.8477
   14MOL    H9213378   1.536   7.877   5.689  2.6950 -0.7083 -0.8192
   14MOL    H9313379   1.439   7.883   5.926  0.6744 -0.5800  0.7905
   14MOL    H9413380   1.461   7.976   6.160 -0.1433  1.2383  0.7032
   14MOL    H9513381   1.502   0.160   6.148  0.6302  0.2218 -0.1885
   14MOL    H9613382   1.770   0.170   6.032 -0.2335  2.7499 -1.3646
   14MOL    H9713383   1.844   0.165   5.808 -0.4557  0.3330 -1.1947
   14MOL    H9813384   1.443   0.116   5.599  0.3439  0.7523 -0.2535
   14MOL    H9913385   1.288   0.107   5.396 -0.5993 -1.0358 -1.3904
   14MOL   H10013386   1.153   0.093   4.976 -1.4433  2.3429 -3.9157
   14MOL   H10113387   1.160   0.238   4.792  0.4208 -2.7647 -2.6369
   14MOL   H10213388   1.567   0.234   4.579 -1.9630  0.2317 -0.1435
   14MOL   H10313389   1.753   0.341   4.461  0.7141  1.3080  1.7146
   14MOL   N10413390   1.648   0.015   6.236  0.3044  0.0137  0.6441
   14MOL   C10513391   1.652   0.049   6.371  0.2853  0.1462  0.5527
   14MOL   C10613392   1.535   0.078   6.451  0.0144  0.8189  0.0774
   14MOL   C10713393   1.546   0.094   6.589  0.2902  0.8385  0.9362
   14MOL   C10813394   1.675   0.086   6.654  0.3399  0.7501 -0.6733
   14MOL   N10913395   1.682   0.098   6.789  0.1669  0.3392 -0.5768
   14MOL   C11013396   1.606   0.034   6.890 -0.1490  0.6561  0.0852
   14MOL   C11113397   1.604   0.085   7.023  0.1467 -0.0060 -0.1267
   14MOL   C11213398   1.525   0.025   7.121  0.2961  0.2403 -0.7918
   14MOL   C11313399   1.459   7.887   7.095  0.1213 -0.8308  0.2270
   14MOL   N11413400   1.389   7.818   7.205 -0.0900  0.3543 -0.8832
   14MOL   C11513401   1.279   7.869   7.276  0.0937 -0.3810 -0.0279
   14MOL   C11613402   1.228   7.791   7.385  0.7869 -0.3255 -0.0275
   14MOL   C11713403   1.105   7.832   7.445  0.3258  0.3752 -0.4614
   14MOL   C11813404   1.041   7.952   7.401 -0.2362  1.0311 -0.2471
   14MOL   N11913405   0.913   7.980   7.452 -1.0228  0.9419 -0.7547
   14MOL   C12013406   0.846   0.125   7.455  0.6017  0.5248 -0.2297
   14MOL   C12113407   0.705   0.106   7.449 -0.1676  0.0011 -0.8752
   14MOL   C12213408   0.626   0.217   7.483  0.8037  0.4373 -0.0485
   14MOL   C12313409   0.688   0.343   7.501  0.0914  0.0652  0.2027
   14MOL   C12413410   0.602   0.462   7.532 -0.4335 -0.2774 -0.2015
   14MOL   C12513411   0.832   0.357   7.492  0.1340 -0.7583 -0.5258
   14MOL   C12613412   0.910   0.239   7.484  0.6100  0.3068  0.5754
   14MOL   C12713413   1.101   0.047   7.301 -0.4138  0.2101 -1.1091
   14MOL   C12813414   1.220   0.006   7.239  0.0327  0.2488  0.2733
   14MOL   C12913415   1.470   7.831   6.967 -0.2924 -0.9927 -0.3060
   14MOL   C13013416   1.541   7.892   6.862  0.2126 -0.1017  0.3171
   14MOL   C13113417   1.788   0.069   6.572 -0.0694  0.5805 -0.7607
   14MOL   C13213418   1.778   0.056   6.434 -0.2901  0.7227 -0.3992
   14MOL   H13313419   1.739   7.976   6.198  0.2703 -0.3413  0.7575
   14MOL   H13413420   1.433   0.084   6.415 -0.7211 -1.3195  1.7330
   14MOL   H13513421   1.455   0.103   6.646 -0.1164 -1.5435  0.7287
   14MOL   H13613422   1.758   0.159   6.816 -1.0904  1.1715  1.1824
   14MOL   H13713423   1.650   0.180   7.045 -0.5419  0.4128 -0.4836
   14MOL   H13813424   1.517   0.077   7.215  2.4200  0.2573 -0.6027
   14MOL   H13913425   1.403   7.719   7.197 -0.4988  0.3333 -1.4084
   14MOL   H14013426   1.262   7.697   7.427 -1.0104 -1.4046 -0.8898
   14MOL   H14113427   1.060   7.771   7.522  2.2819  0.4358  0.7602
   14MOL   H14213428   0.863   7.896   7.480  0.3829  0.2562 -0.1982
   14MOL   H14313429   0.656   0.010   7.453 -3.0794  1.5065  2.0258
   14MOL   H14413430   0.522   0.191   7.499  0.7326 -0.2529 -1.6187
   14MOL   H14513431   0.596   0.466   7.641 -2.1696 -0.1167 -0.2809
   14MOL   H14613432   0.500   0.444   7.499 -0.7014  0.2508  0.3228
   14MOL   H14713433   0.871   0.452   7.524 -1.9036 -0.2030  0.3933
   14MOL   H14813434   1.015   0.242   7.508  0.7975 -1.6920  0.0582
   14MOL   H14913435   1.064   0.142   7.266  2.7733  0.6597 -3.5704
   14MOL   H15013436   1.249   0.070   7.157  1.9132  0.3607  1.0137
   14MOL   H15113437   1.425   7.736   6.944 -2.7498 -0.1543  0.9406
   14MOL   H15213438   1.547   7.860   6.759  0.2373 -0.2120  0.3528
   14MOL   H15313439   1.886   0.046   6.612 -0.0610 -0.3577 -1.2980
   14MOL   H15413440   1.868   0.046   6.376 -0.9177 -2.3688 -0.9363
   14MOL   N15513441   0.654   0.588   7.476  0.1763 -0.5095  0.1056
   14MOL   C15613442   0.605   0.719   7.508  0.0203  0.1507 -0.1508
   14MOL   C15713443   0.686   0.829   7.472  0.3475  0.2080  0.3663
   14MOL   C15813444   0.636   0.960   7.506 -0.3061 -0.4076 -0.0946
   14MOL   C15913445   0.511   0.980   7.577  0.0511 -0.5399 -0.1353
   14MOL   N16013446   0.461   1.106   7.598 -0.4928  0.0815  0.4320
   14MOL   C16113447   0.534   1.227   7.588 -0.4722 -0.0024 -0.0487
   14MOL   C16213448   0.666   1.242   7.628  0.4347  0.1834  0.5320
   14MOL   C16313449   0.741   1.364   7.610  0.1409  0.6867 -0.6266
   14MOL   C16413450   0.674   1.478   7.559  0.2340 -0.4411  0.0286
   14MOL   N16513451   0.744   1.589   7.529 -0.1850  0.0708  0.2372
   14MOL   C16613452   0.750   1.710   7.601 -0.8149 -0.1509 -0.1632
   14MOL   C16713453   0.815   1.822   7.544 -0.1288 -0.3472 -0.0326
   14MOL   C16813454   0.825   1.938   7.616  0.1544 -0.0783 -0.2252
   14MOL   C16913455   0.764   1.958   7.740 -0.2002  0.4653 -0.5420
   14MOL   N17013456   0.751   2.089   7.787 -0.0689  0.3540  0.4352
   14MOL   C17113457   0.787   2.133   7.911 -0.1577  0.3360 -0.2531
   14MOL   C17213458   0.828   2.044   0.032  0.5949  0.0265 -0.1330
   14MOL   C17313459   0.863   2.104   0.152  0.4632 -0.0910  0.0407
   14MOL   C17413460   0.859   2.243   0.174  0.0170 -0.0654  0.4769
   14MOL   C17513461   0.893   2.300   0.312  0.2200 -0.2829  0.3435
   14MOL   C17613462   0.822   2.326   0.074 -0.0658  0.2273  0.4480
   14MOL   C17713463   0.785   2.275   7.933  0.4880  0.4810 -0.4077
   14MOL   C17813464   0.698   1.848   7.799 -0.0502 -0.3236  0.4956
   14MOL   C17913465   0.692   1.724   7.731 -0.2571  0.2134 -0.0923
   14MOL   C18013466   0.538   1.464   7.520  0.2591  0.0394 -0.4160
   14MOL   C18113467   0.470   1.339   7.534 -0.0913 -0.4335 -0.3574
   14MOL   C18213468   0.440   0.867   7.612  0.7495  0.0432  0.3300
   14MOL   C18313469   0.493   0.739   7.583 -0.8637  0.3736  0.1652
   14MOL   H18413470   0.739   0.577   7.423  2.4297 -2.9999  4.0199
   14MOL   H18513471   0.785   0.823   7.428  0.2900 -0.3154  0.3044
   14MOL   H18613472   0.702   1.039   7.472 -0.7086 -0.4937 -1.0939
   14MOL   H18713473   0.362   1.114   7.617 -0.6994  1.4673 -1.1288
   14MOL   H18813474   0.717   1.161   7.678  1.6150  2.6263  3.5079
   14MOL   H18913475   0.847   1.360   7.629  0.5486  0.5070 -2.7605
   14MOL   H19013476   0.758   1.594   7.429  2.8495 -0.8519  0.5807
   14MOL   H19113477   0.864   1.806   7.449  0.2367  0.6608 -0.0124
   14MOL   H19213478   0.871   2.029   7.580 -1.0232 -0.1500 -1.9543
   14MOL   H19313479   0.742   2.167   7.723 -1.1753  0.1428  0.3376
   14MOL   H19413480   0.834   1.937   0.019 -0.9434 -0.0021 -0.6892
   14MOL   H19513481   0.882   2.039   0.236 -1.8561 -1.5153 -0.5083
   14MOL   H19613482   0.859   2.231   0.389  1.5529 -1.0883  0.2137
   14MOL   H19713483   0.834   2.390   0.333 -1.5164 -1.4448  0.5552
   14MOL   H19813484   0.811   2.432   0.094  1.2027 -0.1875  3.4772
   14MOL   H19913485   0.763   2.352   7.861  1.9745 -0.0810 -1.4900
   14MOL   H20013486   0.647   1.861   7.894  0.3037  1.4391  0.4739
   14MOL   H20113487   0.643   1.642   7.781 -0.9277  2.0694  2.3447
   14MOL   H20213488   0.488   1.549   7.476  0.4929 -0.4715 -1.6857
   14MOL   H20313489   0.367   1.333   7.505 -0.3779 -1.3301  0.7996
   14MOL   H20413490   0.335   0.863   7.634  0.8034  2.0983  1.0721
   14MOL   H20513491   0.443   0.647   7.613  1.5466 -1.2591 -0.6890
   14MOL   N20613492   1.036   2.333   0.324 -0.3118  0.5650 -0.1086
   14MOL   C20713493   1.096   2.292   0.448  0.0403 -0.0259  0.6736
   14MOL   C20813494   1.052   2.339   0.575 -0.1849 -0.4765 -0.3818
   14MOL   C20913495   1.116   2.284   0.691  0.3745  0.2844  0.0802
   14MOL   C21013496   1.226   2.198   0.689 -0.3407 -0.4508  0.2079
   14MOL   N21113497   1.281   2.141   0.807 -0.3931  0.4872  0.0482
   14MOL   C21213498   1.317   2.006   0.835 -0.2208  0.2665  0.4742
   14MOL   C21313499   1.335   1.905   0.735  0.0685 -0.1669 -0.4702
   14MOL   C21413500   1.376   1.776   0.768  0.5614 -0.0691 -0.2482
   14MOL   C21513501   1.395   1.743   0.903 -0.4430  0.8082  0.3940
   14MOL   N21613502   1.427   1.614   0.949 -0.2075  0.1341  0.1251
   14MOL   C21713503   1.353   1.496   0.927  0.1389  0.9194  0.0863
   14MOL   C21813504   1.218   1.494   0.890  0.4697 -0.3240  1.0185
   14MOL   C21913505   1.147   1.374   0.869  0.4145  0.1155  0.5790
   14MOL   C22013506   1.202   1.245   0.902  0.3678  0.1870  0.5548
   14MOL   N22113507   1.141   1.121   0.886  0.1707  0.2686  0.0330
   14MOL   C22213508   1.008   1.094   0.845 -0.3032 -0.3139  0.4195
   14MOL   C22313509   0.989   0.989   0.756  0.0156  0.2404 -0.2125
   14MOL   C22413510   0.854   0.961   0.711 -0.4990  0.2865 -0.4093
   14MOL   C22513511   0.744   1.040   0.753 -0.5893 -0.4191  0.2063
   14MOL   C22613512   0.608   1.020   0.694 -0.6967 -1.0106 -0.0506
   14MOL   C22713513   0.767   1.142   0.845  0.1437  1.3669  0.2378
   14MOL   C22813514   0.897   1.175   0.889 -1.0152 -0.1199 -0.3329
   14MOL   C22913515   1.338   1.250   0.943  0.2856  0.4781 -0.8069
   14MOL   C23013516   1.411   1.370   0.950 -0.1768  0.2172  0.4411
   14MOL   C23113517   1.394   1.840   0.999  0.2195  0.4368 -0.2942
   14MOL   C23213518   1.349   1.973   0.965 -0.2678  0.6133 -0.2829
   14MOL   C23313519   1.281   2.168   0.561 -0.6139 -0.2143 -0.3722
   14MOL   C23413520   1.211   2.210   0.446 -0.5363  0.1381 -0.3128
   14MOL   H23513521   1.083   2.301   0.241 -1.3827 -1.5424  0.0649
   14MOL   H23613522   0.967   2.405   0.577  1.2051  1.3177  0.4953
   14MOL   H23713523   1.087   2.325   0.787  0.8052 -1.0562  0.8047
   14MOL   H23813524   1.260   2.194   0.890  3.2424  2.7713 -0.4009
   14MOL   H23913525   1.327   1.923   0.629 -1.3323 -2.7642 -0.8662
   14MOL   H24013526   1.398   1.705   0.690 -3.2249 -2.8848  1.1163
   14MOL   H24113527   1.513   1.611   1.003  1.0685  0.0381 -1.8573
   14MOL   H24213528   1.170   1.588   0.863  0.2355 -0.7224  0.0007
   14MOL   H24313529   1.045   1.381   0.835  0.4955 -0.1408  0.2770
   14MOL   H24413530   1.204   1.048   0.858  0.8084  0.1342  1.7097
   14MOL   H24513531   1.071   0.937   0.710 -4.5959 -3.9427 -4.3972
   14MOL   H24613532   0.842   0.896   0.625  0.3231 -0.8026  0.2806
   14MOL   H24713533   0.542   0.987   0.774 -1.0887 -2.1203 -0.8130
   14MOL   H24813534   0.617   0.948   0.612  1.0546 -2.3033  1.2480
   14MOL   H24913535   0.683   1.198   0.885  0.1435  1.8157 -0.3819
   14MOL   H25013536   0.916   1.257   0.957 -1.2986 -0.2099 -0.1466
   14MOL   H25113537   1.400   1.163   0.960 -0.6598  0.1600  1.0572
   14MOL   H25213538   1.511   1.368   0.991  1.1097  2.2816 -2.4234
   14MOL   H25313539   1.416   1.823   1.103  0.1598  0.1459 -0.3309
   14MOL   H25413540   1.347   2.052   1.039 -2.1360  0.2906  0.0445
   14MOL   H25513541   1.363   2.102   0.539 -0.1483 -0.2096  1.2857
   14MOL   H25613542   1.254   2.181   0.351 -0.2577  0.6777 -0.3591
   14MOL   N25713543   0.544   1.143   0.641 -0.5849  0.4357  0.2858
   14MOL   C25813544   0.427   1.127   0.559 -0.0515  0.1248 -0.7614
   14MOL   C25913545   0.381   1.242   0.493 -0.4213 -0.0145  0.5270
   14MOL   C26013546   0.255   1.244   0.428  0.2780 -0.4298 -0.6067
   14MOL   C26113547   0.173   1.135   0.438 -0.1531 -0.2372  0.5849
   14MOL   N26213548   0.050   1.135   0.380  0.8270  0.2366  0.0176
   14MOL   C26313549   7.982   1.205   0.266 -0.1605  1.1117 -0.2053
   14MOL   C26413550   0.086   1.247   0.160  0.6590 -0.6209 -0.1274
   14MOL   C26513551   0.029   1.319   0.051  0.6738 -0.2868  0.0679
   14MOL   C26613552   7.873   1.345   0.048  0.0201 -0.5198  0.5626
   14MOL   N26713553   7.822   1.401   7.910  0.2225 -0.7115 -0.1525
   14MOL   C26813554   7.747   1.344   7.804 -0.2279 -0.4490 -0.2848
   14MOL   C26913555   7.687   1.219   7.814  0.4008 -0.5498  0.1480
   14MOL   C27013556   7.613   1.161   7.705 -0.1231  0.7673 -0.0379
   14MOL   C27113557   7.603   1.228   7.587  0.0831  0.0324 -0.2217
   14MOL   N27213558   7.532   1.167   7.483 -0.8962  0.1076 -0.1454
   14MOL   C27313559   7.452   1.227   7.390 -0.1338 -0.2525  0.3876
   14MOL   C27413560   7.450   1.171   7.258 -0.6462 -0.8771  0.4650
   14MOL   C27513561   7.375   1.224   7.152 -0.4211  0.7450 -0.2642
   14MOL   C27613562   7.303   1.344   7.174 -0.0858 -0.2765  0.0964
   14MOL   C27713563   7.229   1.405   7.059  0.6123 -0.0770 -0.2474
   14MOL   C27813564   7.311   1.411   7.297 -0.3148  0.3528 -0.7387
   14MOL   C27913565   7.378   1.350   7.409 -0.0200  0.4953 -0.2244
   14MOL   C28013566   7.668   1.356   7.568  0.1405 -0.1350  0.2326
   14MOL   C28113567   7.737   1.411   7.677 -0.8253 -0.1461 -0.9673
   14MOL   C28213568   7.789   1.302   0.148  0.6895 -0.4769 -0.6266
   14MOL   C28313569   7.842   1.229   0.256 -0.4573 -0.9660 -0.2419
   14MOL   C28413570   0.222   1.017   0.499  0.0509  0.0616  0.3865
   14MOL   C28513571   0.347   1.007   0.565 -0.6824 -0.1038 -0.5220
   14MOL   H28613572   0.598   1.226   0.619  0.4436 -0.5712 -1.1118
   14MOL   H28713573   0.445   1.328   0.488 -0.9634  0.3052 -1.4790
   14MOL   H28813574   0.231   1.337   0.378  0.8033 -0.0068 -0.0722
   14MOL   H28913575   7.970   1.061   0.410  0.8782 -0.2949 -1.1339
   14MOL   H29013576   0.192   1.231   0.155  0.7646 -0.2469  0.8151
   14MOL   H29113577   0.095   1.336   7.949  0.0020 -0.4539 -0.4945
   14MOL   H29213578   7.873   1.480   7.874 -1.8755  0.4359 -0.6773
   14MOL   H29313579   7.683   1.161   7.906 -0.9031 -0.0239  0.4333
   14MOL   H29413580   7.560   1.068   7.719  0.9033  0.1702 -0.1073
   14MOL   H29513581   7.525   1.067   7.490  1.9326 -0.2549 -1.7056
   14MOL   H29613582   7.499   1.075   7.254 -0.2607 -0.7161  1.2211
   14MOL   H29713583   7.370   1.174   7.056 -2.1856 -0.4926  0.4330
   14MOL   H29813584   7.156   1.330   7.028  0.5702 -0.1434  0.0092
   14MOL   H29913585   7.308   1.410   6.984 -0.1671  1.0224 -1.0168
   14MOL   H30013586   7.263   1.506   7.314  1.7332  1.1215  0.8586
   14MOL   H30113587   7.377   1.394   7.507  2.3454 -2.6685  1.3463
   14MOL   H30213588   7.658   1.408   7.474 -1.0469 -0.8943 -0.0827
   14MOL   H30313589   7.789   1.506   7.674 -0.6864 -0.1507  0.7619
   14MOL   H30413590   7.684   1.324   0.140  0.4396 -1.5388 -0.4366
   14MOL   H30513591   7.777   1.188   0.331  0.7610  1.2719  2.1130
   14MOL   H30613592   0.153   0.935   0.508  0.4315 -0.0742  2.2056
   14MOL   H30713593   0.385   0.917   0.611 -0.6921  0.7797  1.2448
   14MOL   N30813594   7.171   1.534   7.073  0.0828  0.6148  0.1995
   14MOL   C30913595   7.254   1.646   7.068 -0.6794  0.5365  0.1499
   14MOL   C31013596   7.394   1.645   7.095 -0.3294 -0.1129 -0.8965
   14MOL   C31113597   7.475   1.757   7.073  0.0938 -0.9779 -0.8435
   14MOL   C31213598   7.421   1.868   7.017 -0.6467  0.0044  1.1771
   14MOL   N31313599   7.500   1.974   6.970 -0.2236  0.3159 -0.8909
   14MOL   C31413600   7.596   2.032   7.049  0.0900 -0.1221  0.0511
   14MOL   C31513601   7.729   2.017   7.011  0.2214  0.1243  0.1366
   14MOL   C31613602   7.835   2.088   7.076 -0.5447 -0.3483  0.2356
   14MOL   C31713603   7.804   2.172   7.187 -0.6052  0.2085  0.7564
   14MOL   N31813604   7.906   2.255   7.239 -0.2146  0.4913  0.6049
   14MOL   C31913605   7.905   2.338   7.353  0.7788 -0.3044 -0.9959
   14MOL   C32013606   7.981   2.458   7.353  0.3024 -0.1019  0.1358
   14MOL   C32113607   7.968   2.537   7.472  0.1595 -0.1534  0.5421
   14MOL   C32213608   7.891   2.509   7.581 -0.6407  0.7214 -0.5949
   14MOL   N32313609   7.886   2.581   7.705 -0.5886 -0.1237  0.2946
   14MOL   C32413610   0.011   2.638   7.776 -0.2025  0.6075 -0.5190
   14MOL   C32513611   0.146   2.617   7.745  0.7840 -0.1677  0.4283
   14MOL   C32613612   0.247   2.687   7.812  0.8127 -0.0038  0.7767
   14MOL   C32713613   0.215   2.776   7.913  1.1584  0.0064  0.2597
   14MOL   C32813614   0.324   2.840   0.008 -1.2977  0.5082 -0.0033
   14MOL   C32913615   0.080   2.796   7.949  0.0209  0.3509  0.2264
   14MOL   C33013616   7.962   2.737   7.875 -0.0112  0.1427  0.5824
   14MOL   C33113617   7.819   2.384   7.580 -0.5313  0.7995 -0.4723
   14MOL   C33213618   7.837   2.296   7.471 -0.6723 -0.7064  1.1262
   14MOL   C33313619   7.670   2.189   7.222 -0.1617  0.3521 -0.0063
   14MOL   C33413620   7.568   2.122   7.159 -0.0087  0.1376 -0.1623
   14MOL   C33513621   7.283   1.869   6.983 -0.2340 -0.4931 -0.0974
   14MOL   C33613622   7.200   1.768   7.018 -0.4079 -0.1536  1.1157
   14MOL   H33713623   7.084   1.545   7.023 -0.0508  1.0579  0.5359
   14MOL   H33813624   7.439   1.553   7.127  0.4757  0.7205  0.4027
   14MOL   H33913625   7.580   1.754   7.100 -0.0807  0.6696  0.1557
   14MOL   H34013626   7.438   2.049   6.944 -1.3765 -0.3953 -0.2260
   14MOL   H34113627   7.751   1.938   6.942  0.1744 -1.1170  1.5134
   14MOL   H34213628   7.934   2.068   7.040 -0.6075  0.8509 -0.6215
   14MOL   H34313629   0.004   2.256   7.177  0.4390 -0.1189  1.4193
   14MOL   H34413630   0.065   2.486   7.272  0.4520  0.9623  0.6218
   14MOL   H34513631   0.045   2.628   7.478  0.1541 -0.0347 -0.9561
   14MOL   H34613632   7.790   2.597   7.731 -0.6680  1.6890 -0.9937
   14MOL   H34713633   0.173   2.545   7.669 -1.0678  0.1243 -0.5474
   14MOL   H34813634   0.349   2.671   7.782  0.2046 -2.6397 -0.0565
   14MOL   H34913635   0.409   2.864   7.927  0.0218 -0.0328  1.5097
   14MOL   H35013636   0.354   2.771   0.088  1.2327  1.4994 -0.0355
   14MOL   H35113637   0.062   2.864   0.049  1.0691  1.0638 -0.1355
   14MOL   H35213638   7.857   2.749   7.895 -0.4367 -0.9639 -0.8444
   14MOL   H35313639   7.772   2.337   7.664  1.3808 -0.3720 -0.0296
   14MOL   H35413640   7.783   2.203   7.478 -1.9431 -0.0719  0.0145
   14MOL   H35513641   7.649   2.257   7.303  0.3182  0.9326 -0.3554
   14MOL   H35613642   7.466   2.144   7.184 -0.3590  0.2229 -1.6638
   14MOL   H35713643   7.233   1.956   6.944 -0.4547 -1.2332 -1.5254
   14MOL   H35813644   7.099   1.777   6.982  0.0871 -1.9747 -0.8050
   14MOL   N35913645   0.287   2.971   0.050  0.3041  0.2042 -0.2530
   14MOL   C36013646   0.395   3.045   0.097 -0.4862  0.1382 -0.4202
   14MOL   C36113647   0.453   3.025   0.223 -0.3507 -0.4208  0.6790
   14MOL   C36213648   0.546   3.117   0.262  0.4324  0.0027 -0.3021
   14MOL   C36313649   0.588   3.231   0.183  0.0612 -0.1162  0.6491
   14MOL   N36413650   0.676   3.330   0.222 -0.3331  0.6569  0.6211
   14MOL   C36513651   0.739   3.342   0.343  0.0489  0.7987  0.4982
   14MOL   C36613652   0.796   3.229   0.407  0.3507 -0.0877  0.7065
   14MOL   C36713653   0.862   3.248   0.533  0.2122 -0.0417 -1.1286
   14MOL   C36813654   0.857   3.374   0.600 -0.1612 -0.4969  0.2480
   14MOL   N36913655   0.891   3.395   0.734 -0.2393 -0.3030 -0.2398
   14MOL   C37013656   0.855   3.306   0.839  0.2642  0.7006  0.0236
   14MOL   C37113657   0.936   3.310   0.952  0.1378 -0.4738 -0.7016
   14MOL   C37213658   0.922   3.212   1.055  0.2470  0.0847 -0.3719
   14MOL   C37313659   0.812   3.118   1.048 -0.2144  0.0518 -0.2825
   14MOL   N37413660   0.810   3.014   1.144 -0.3284  0.1761 -0.2481
   14MOL   C37513661   0.715   2.915   1.160 -0.7526  0.3580 -0.7363
   14MOL   C37613662   0.583   2.952   1.183  0.4283 -0.2938 -0.3784
   14MOL   C37713663   0.481   2.855   1.205  0.1957 -0.2039 -0.4833
   14MOL   C37813664   0.518   2.720   1.198  0.4477  0.3172 -0.3894
   14MOL   C37913665   0.415   2.609   1.233 -1.0982 -0.2984 -0.2882
   14MOL   C38013666   0.650   2.682   1.180  0.4634 -0.4259  0.0433
   14MOL   C38113667   0.754   2.778   1.162 -0.6646 -0.2772  0.0340
   14MOL   C38213668   0.721   3.121   0.935 -1.2819  0.8679  0.2102
   14MOL   C38313669   0.755   3.207   0.828 -0.7275 -0.0007 -0.0412
   14MOL   C38413670   0.804   3.484   0.526 -0.0774 -0.6080 -0.5278
   14MOL   C38513671   0.741   3.468   0.404 -0.0289 -0.2637  0.3056
   14MOL   C38613672   0.533   3.242   0.057 -0.0820 -0.9454  0.8486
   14MOL   C38713673   0.437   3.157   0.014  0.4165  0.7525 -0.0442
   14MOL   H38813674   0.215   3.017   7.979  0.3281  0.8907  0.2966
   14MOL   H38913675   0.424   2.942   0.286 -0.2509 -0.7064  0.3487
   14MOL   H39013676   0.584   3.100   0.362  1.4037  1.2579 -0.4393
   14MOL   H39113677   0.684   3.415   0.169 -1.5229  0.1225 -0.4603
   14MOL   H39213678   0.811   3.132   0.360  0.6382  1.5384 -2.7594
   14MOL   H39313679   0.897   3.156   0.578 -1.8757 -0.8780 -1.1762
   14MOL   H39413680   0.883   3.489   0.768 -2.8676 -0.1950 -0.9877
   14MOL   H39513681   1.011   3.388   0.955 -0.9374  0.5261  1.2666
   14MOL   H39613682   0.992   3.219   1.137  0.7063  1.3292 -0.8622
   14MOL   H39713683   0.906   2.984   1.151 -0.1012  0.9746  0.2026
   14MOL   H39813684   0.558   3.056   1.194 -1.2525 -0.6314 -0.8600
   14MOL   H39913685   0.383   2.896   1.225 -0.5054 -1.5431 -1.1527
   14MOL   H40013686   0.405   2.549   1.142  4.1755 -0.0757 -1.1819
   14MOL   H40113687   0.316   2.643   1.264 -2.3960 -2.4049 -1.9902
   14MOL   H40213688   0.665   2.575   1.176 -0.9988 -0.6101 -0.7028
   14MOL   H40313689   0.856   2.756   1.134 -0.3618  1.1100  0.0369
   14MOL   H40413690   0.635   3.057   0.933  1.2617 -2.6804 -1.3673
   14MOL   H40513691   0.701   3.200   0.735 -1.9948  1.6654  0.5447
   14MOL   H40613692   0.795   3.580   0.574 -0.5070 -0.9881  0.1529
   14MOL   H40713693   0.683   3.553   0.371 -2.3047 -1.9236 -0.1127
   14MOL   H40813694   0.549   3.329   7.977  1.8088 -2.1585 -0.4254
   14MOL   H40913695   0.383   3.176   7.905  0.0659  3.5891  0.7232
   14MOL   N41013696   0.470   2.541   1.350 -0.0951  0.0485 -0.4211
   14MOL   C41113697   0.503   2.405   1.326  0.1125  0.3681  0.5606
   14MOL   C41213698   0.409   2.304   1.302 -0.3791 -0.4808  0.0117
   14MOL   C41313699   0.434   2.172   1.279 -0.0934  0.2408 -0.1703
   14MOL   C41413700   0.563   2.133   1.298  0.3644  0.1993 -0.1757
   14MOL   N41513701   0.587   1.998   1.296  0.2809  0.1305  0.3403
   14MOL   C41613702   0.714   1.935   1.280 -0.2885  0.0804 -0.7911
   14MOL   C41713703   0.739   1.825   1.368 -0.1350  0.0825  0.2432
   14MOL   C41813704   0.868   1.771   1.366  0.6511  0.0645  0.2000
   14MOL   C41913705   0.967   1.810   1.279 -0.2484 -0.9101  0.0037
   14MOL   N42013706   1.090   1.735   1.271  0.2520 -0.2389  0.1234
   14MOL   C42113707   1.126   1.624   1.343 -0.6658 -0.6710 -0.0193
   14MOL   C42213708   1.116   1.618   1.484 -0.3545  1.0002  0.0629
   14MOL   C42313709   1.155   1.499   1.549 -0.0286 -0.4232  0.1475
   14MOL   C42413710   1.224   1.396   1.476  0.2327 -0.3741  0.5147
   14MOL   N42513711   1.263   1.273   1.531 -0.1448  0.5504  0.5342
   14MOL   C42613712   1.321   1.271   1.658 -0.0677 -0.0379 -0.6664
   14MOL   C42713713   1.463   1.256   1.670  0.3621  0.4241  0.4536
   14MOL   C42813714   1.517   1.248   1.798 -0.2576 -0.1634  0.5259
   14MOL   C42913715   1.439   1.246   1.913  0.4403 -0.2505  0.4823
   14MOL   C43013716   1.494   1.206   2.048  0.1901 -0.7556  0.0753
   14MOL   C43113717   1.297   1.272   1.896 -0.7688  0.0402  0.3029
   14MOL   C43213718   1.238   1.279   1.770  0.8790  0.5414  0.1488
   14MOL   C43313719   1.240   1.410   1.339  0.0116  0.2795 -0.6552
   14MOL   C43413720   1.193   1.521   1.274  0.7239 -0.2725 -0.0792
   14MOL   C43513721   0.949   1.920   1.193  0.3058  0.1446 -0.3139
   14MOL   C43613722   0.818   1.977   1.195  0.3724 -0.4073 -0.1187
   14MOL   C43713723   0.664   2.229   1.330  0.3852  0.2600 -0.5105
   14MOL   C43813724   0.636   2.369   1.347  0.2658  0.7005  0.1766
   14MOL   H43913725   0.538   2.592   1.405  1.1065 -2.0961  0.1345
   14MOL   H44013726   0.306   2.335   1.303  0.5450  2.8819 -1.6816
   14MOL   H44113727   0.352   2.104   1.260  1.2850 -1.9939  1.6726
   14MOL   H44213728   0.516   1.934   1.330  1.7571 -2.3091 -0.9688
   14MOL   H44313729   0.667   1.784   1.438  0.8936 -0.6394  0.8895
   14MOL   H44413730   0.872   1.679   1.423 -1.4017  1.0108  1.9100
   14MOL   H44513731   1.135   1.748   1.181  0.4135  2.1668  0.5100
   14MOL   H44613732   1.071   1.694   1.546  1.1841  1.3040  0.8336
   14MOL   H44713733   1.139   1.509   1.656  0.3987  2.4205 -0.0078
   14MOL   H44813734   1.307   1.213   1.462  1.7037  0.5592  1.6655
   14MOL   H44913735   1.522   1.240   1.581 -0.1874 -1.1338  0.3555
   14MOL   H45013736   1.623   1.229   1.806 -0.3547 -0.7245  0.5246
   14MOL   H45113737   1.602   1.189   2.039  0.3073 -0.7199  1.2596
   14MOL   H45213738   1.445   1.113   2.078 -2.0130  0.4772  0.3347
   14MOL   H45313739   1.225   1.269   1.977 -2.0496  0.3747 -0.8012
   14MOL   H45413740   1.134   1.297   1.748  0.7997 -1.3995 -1.2105
   14MOL   H45513741   1.289   1.327   1.290  4.2998  1.2217  1.7508
   14MOL   H45613742   1.206   1.532   1.168  0.0358 -0.3315 -0.1734
   14MOL   H45713743   1.029   1.941   1.124  0.4825 -1.8270 -0.7327
   14MOL   H45813744   0.805   2.054   1.120 -1.7544 -0.7959 -0.1783
   14MOL   H45913745   0.769   2.204   1.337  0.0316 -0.6466  1.8503
   14MOL   H46013746   0.718   2.435   1.371  1.2829 -1.5665  3.3338
   14MOL   N46113747   1.469   1.293   2.160  0.3491 -0.0479  0.4409
   14MOL   C46213748   1.561   1.318   2.263  0.6063  0.3100  0.4870
   14MOL   C46313749   1.693   1.363   2.235 -0.0864 -0.2191 -0.5087
   14MOL   C46413750   1.788   1.378   2.339  0.3146 -0.1204 -0.5895
   14MOL   C46513751   1.756   1.355   2.472  0.0777 -0.3326  0.5854
   14MOL   N46613752   1.849   1.365   2.574 -0.0163 -0.5749 -0.3383
   14MOL   C46713753   1.839   1.454   2.683  0.2232  0.1708  0.1211
   14MOL   C46813754   1.725   1.538   2.701 -0.8023  0.2070  0.0776
   14MOL   C46913755   1.720   1.619   2.819  0.3324 -0.0226 -0.0190
   14MOL   C47013756   1.811   1.608   2.925 -0.7031 -0.3515  0.4137
   14MOL   N47113757   1.778   1.660   3.051 -0.4067  0.4303 -0.4834
   14MOL   C47213758   1.657   1.717   3.087  0.6849 -0.1353 -0.2065
   14MOL   C47313759   1.641   1.855   3.112 -0.2458 -0.3071 -0.2601
   14MOL   C47413760   1.516   1.900   3.158 -0.0045 -0.2946 -0.2444
   14MOL   C47513761   1.405   1.805   3.156  0.1388 -0.9849  0.7684
   14MOL   N47613762   1.280   1.864   3.188 -0.6758 -0.2835 -0.0485
   14MOL   C47713763   1.169   1.838   3.113  0.5019 -0.1329 -0.3236
   14MOL   C47813764   1.050   1.898   3.161  0.0258 -0.0964 -0.6521
   14MOL   C47913765   0.929   1.881   3.098  0.5267 -0.4539 -0.0278
   14MOL   C48013766   0.925   1.821   2.972 -0.0243 -0.2137 -0.2153
   14MOL   C48113767   0.797   1.817   2.898 -0.4308  0.4322  0.2024
   14MOL   C48213768   1.041   1.768   2.918  0.1897 -0.1070 -0.7568
   14MOL   C48313769   1.167   1.769   2.986 -0.2602 -0.7012 -0.0709
   14MOL   C48413770   1.421   1.668   3.142  0.0903 -0.2503  1.1659
   14MOL   C48513771   1.555   1.624   3.114 -0.3695  0.2423  0.0484
   14MOL   C48613772   1.925   1.523   2.911  0.5346  0.2973  0.3439
   14MOL   C48713773   1.941   1.457   2.782  0.3256 -0.3595  0.0622
   14MOL   C48813774   1.623   1.316   2.497  0.4553 -0.2776  0.0027
   14MOL   C48913775   1.525   1.298   2.401 -0.6594 -0.4804  0.5625
   14MOL   H49013776   1.374   1.289   2.193  0.3722 -0.4903  0.4637
   14MOL   H49113777   1.735   1.386   2.138 -0.8697 -0.0843 -0.8198
   14MOL   H49213778   1.889   1.409   2.319  0.0687  1.2993  0.2500
   14MOL   H49313779   1.941   1.331   2.551  0.5315 -0.5530  1.7296
   14MOL   H49413780   1.634   1.543   2.644 -0.4342  0.6710 -0.4716
   14MOL   H49513781   1.630   1.677   2.827 -0.3906 -1.1787  0.5041
   14MOL   H49613782   1.856   1.687   3.110 -0.0283  0.5995 -1.0598
   14MOL   H49713783   1.716   1.932   3.101 -0.0098 -0.5327 -0.2055
   14MOL   H49813784   1.495   2.005   3.171  0.3615 -0.1211 -1.0596
   14MOL   H49913785   1.269   1.931   3.263 -3.3912 -1.2396  0.4503
   14MOL   H50013786   1.044   1.959   3.250 -1.0027  1.9830 -2.0928
   14MOL   H50113787   0.843   1.929   3.142  1.3554  1.1111 -0.0786
   14MOL   H50213788   0.821   1.883   2.814 -3.4248 -0.6556 -1.5960
   14MOL   H50313789   0.709   1.853   2.952  1.0676  4.5511  0.0920
   14MOL   H50413790   1.036   1.713   2.825 -0.4140 -1.5179  0.0987
   14MOL   H50513791   1.247   1.716   2.935  1.0604 -0.3611  1.6153
   14MOL   H50613792   1.342   1.599   3.171  1.7708 -2.3926  0.7696
   14MOL   H50713793   1.577   1.518   3.113  0.6363  0.4453 -0.2219
   14MOL   H50813794   2.007   1.527   2.982  0.7669 -0.1294  0.1032
   14MOL   H50913795   2.025   1.390   2.771 -0.0029 -0.7873  0.1431
   14MOL   H51013796   1.593   1.297   2.599 -3.2478 -0.8160 -1.1043
   14MOL   H51113797   1.429   1.255   2.428 -0.6348 -1.5392 -0.9354
   14MOL   N51213798   0.770   1.686   2.843 -0.3127 -0.0919 -0.4783
   14MOL   C51313799   0.734   1.580   2.924  0.3574 -1.1606  0.1213
   14MOL   C51413800   0.672   1.479   2.854  0.1922 -0.6523  0.1940
   14MOL   C51513801   0.640   1.360   2.924 -0.4500  0.3948 -0.0942
   14MOL   C51613802   0.661   1.353   3.063  0.1867  1.0292 -0.2280
   14MOL   N51713803   0.607   1.239   3.129 -0.7542  0.3492  0.1837
   14MOL   C51813804   0.663   1.171   3.236  0.1467 -0.1038  0.0337
   14MOL   C51913805   0.571   1.103   3.323 -0.1545  0.0260 -0.1765
   14MOL   C52013806   0.621   1.025   3.427  1.1609  0.1116 -0.1793
   14MOL   C52113807   0.762   1.011   3.448 -0.0796  0.2900  0.4661
   14MOL   N52213808   0.790   0.901   3.530  0.0170  0.4270  0.0627
   14MOL   C52313809   0.912   0.861   3.593 -0.0779 -0.4378 -0.0226
   14MOL   C52413810   0.906   0.817   3.731 -0.5084  0.3143 -0.1181
   14MOL   C52513811   1.025   0.785   3.800  0.3661 -0.0910 -0.2688
   14MOL   C52613812   1.148   0.789   3.739  0.0744 -0.2768 -0.9226
   14MOL   N52713813   1.264   0.767   3.819  0.1558 -0.1082 -0.1529
   14MOL   C52813814   1.355   0.867   3.854  0.2620 -0.6436  0.2895
   14MOL   C52913815   1.462   0.836   3.941 -0.9909  0.3591  0.8233
   14MOL   C53013816   1.551   0.939   3.981  0.3019 -0.1794 -0.1380
   14MOL   C53113817   1.529   1.075   3.937 -0.7677 -0.4237 -0.3935
   14MOL   C53213818   1.632   1.184   3.966 -0.3476 -0.4492 -0.0223
   14MOL   C53313819   1.418   1.106   3.859  0.0418 -0.4189 -0.1113
   14MOL   C53413820   1.334   1.000   3.812 -0.0438 -0.7991  0.1587
   14MOL   C53513821   1.154   0.830   3.604  0.6143 -0.3813  0.5943
   14MOL   C53613822   1.038   0.861   3.522  0.0452 -0.5601 -0.0790
   14MOL   C53713823   0.848   1.074   3.357  0.0782 -0.3325  0.0030
   14MOL   C53813824   0.802   1.158   3.255 -0.1631  0.2160 -0.5295
   14MOL   C53913825   0.720   1.452   3.136  0.1386 -0.5593  0.6217
   14MOL   C54013826   0.749   1.575   3.068  0.5243  0.1072  0.4858
   14MOL   H54113827   0.764   1.685   2.742  0.0746 -0.7186 -0.4954
   14MOL   H54213828   0.649   1.484   2.749 -1.1077 -3.7015  0.2843
   14MOL   H54313829   0.586   1.285   2.869 -1.6831 -0.7804  2.6273
   14MOL   H54413830   0.536   1.193   3.075 -0.0216  0.6625 -1.0621
   14MOL   H54513831   0.464   1.111   3.311 -0.2568 -0.5574  0.3199
   14MOL   H54613832   0.551   0.983   3.498 -0.2029  0.5671 -1.2488
   14MOL   H54713833   0.716   0.896   3.599  2.3420 -1.1709  2.5814
   14MOL   H54813834   0.811   0.809   3.781 -0.7359  0.6060 -0.4932
   14MOL   H54913835   1.026   0.744   3.899 -0.7613  0.7660  0.1103
   14MOL   H55013836   1.281   0.676   3.858 -0.5411 -0.6161 -1.0074
   14MOL   H55113837   1.465   0.741   3.993  0.9846  0.1093  0.2901
   14MOL   H55213838   1.635   0.924   4.047  0.9446 -2.2503 -1.3756
   14MOL   H55313839   1.590   1.284   3.958  0.7015 -0.0642 -0.6797
   14MOL   H55413840   1.703   1.180   3.884 -0.1432 -0.2797  0.1464
   14MOL   H55513841   1.403   1.205   3.819  1.5520  0.0563  0.4506
   14MOL   H55613842   1.258   1.024   3.739  0.1140 -0.5167  0.0862
   14MOL   H55713843   1.249   0.821   3.554  0.5708  0.5260  0.3374
   14MOL   H55813844   1.052   0.901   3.423  3.8116 -1.7660 -0.1197
   14MOL   H55913845   0.955   1.063   3.365  0.1243  0.7905  1.0146
   14MOL   H56013846   0.865   1.202   3.179  0.7593 -1.3975 -0.7236
   14MOL   H56113847   0.726   1.456   3.244  2.4775  1.4132  0.4516
   14MOL   H56213848   0.788   1.659   3.123  0.8786  0.7323 -0.7024
   14MOL   N56313849   1.682   1.176   4.105  0.3153 -0.5698  0.4097
   14MOL   C56413850   1.813   1.225   4.118  0.3292 -0.1455  0.9035
   14MOL   C56513851   1.923   1.148   4.078  0.2903 -0.0199 -0.4865
   14MOL   C56613852   2.055   1.191   4.085 -0.4490 -0.5660  0.4227
   14MOL   C56713853   2.080   1.325   4.133  0.7155  0.0500 -0.6696
   14MOL   N56813854   2.218   1.361   4.136  0.0617  0.0913  0.4416
   14MOL   C56913855   2.300   1.390   4.026  0.1682 -0.5479  0.2685
   14MOL   C57013856   2.434   1.436   4.042  0.1256 -0.3308  0.1438
   14MOL   C57113857   2.516   1.440   3.930  0.3489 -0.8964  0.1556
   14MOL   C57213858   2.469   1.401   3.801 -0.9894 -0.1288 -0.0068
   14MOL   N57313859   2.553   1.429   3.691  0.1598 -0.0584  0.0001
   14MOL   C57413860   2.694   1.425   3.682  0.3388 -0.2027  0.3167
   14MOL   C57513861   2.782   1.369   3.783  0.6479  1.3244  0.3529
   14MOL   C57613862   2.921   1.357   3.754  0.9124  0.6245  0.7173
   14MOL   C57713863   2.973   1.414   3.635  0.0558 -0.1279  0.7113
   14MOL   N57813864   3.111   1.413   3.605  0.0283 -0.2564 -0.3752
   14MOL   C57913865   3.165   1.447   3.480 -0.3036 -0.5592  0.7186
   14MOL   C58013866   3.192   1.583   3.457 -0.0329 -0.4212 -0.0804
   14MOL   C58113867   3.232   1.624   3.324 -0.7418  0.1079 -0.0184
   14MOL   C58213868   3.259   1.533   3.227 -0.0213  0.8443  0.3393
   14MOL   C58313869   3.305   1.571   3.089 -0.1386  0.0574  0.5431
   14MOL   C58413870   3.218   1.398   3.250 -0.1128  0.2440 -0.0707
   14MOL   C58513871   3.175   1.354   3.376 -0.0268  0.4858  0.5289
   14MOL   C58613872   2.887   1.463   3.537  0.3429  0.5760  0.9748
   14MOL   C58713873   2.749   1.466   3.559  0.6788 -0.4978  0.3391
   14MOL   C58813874   2.337   1.353   3.783  0.4360  0.2922 -0.0795
   14MOL   C58913875   2.258   1.342   3.898 -0.3769  0.2674 -0.4238
   14MOL   C59013876   1.969   1.405   4.177 -0.1365 -0.3942  0.1299
   14MOL   C59113877   1.836   1.357   4.166 -0.1555 -0.7902 -0.0330
   14MOL   H59213878   1.614   1.211   4.170  0.9859 -1.4164  1.5955
   14MOL   H59313879   1.904   1.045   4.051  0.9383  0.1827 -1.7560
   14MOL   H59413880   2.137   1.124   4.063 -1.1187 -1.4414  0.5776
   14MOL   H59513881   2.230   1.423   4.215  1.0788  0.5330 -0.0551
   14MOL   H59613882   2.475   1.460   4.139  1.4857  2.6962 -1.1215
   14MOL   H59713883   2.614   1.484   3.938 -0.0682 -0.0370  0.6558
   14MOL   H59813884   2.510   1.448   3.602  1.3011 -0.3387 -0.6159
   14MOL   H59913885   2.752   1.335   3.881  1.4474  1.7348  0.7411
   14MOL   H60013886   2.975   1.285   3.815  3.2769  0.0119 -2.0218
   14MOL   H60113887   3.164   1.342   3.654 -3.5879 -2.3154  0.7740
   14MOL   H60213888   3.181   1.658   3.534 -1.4454  0.0977 -0.7653
   14MOL   H60313889   3.244   1.730   3.304 -0.8216 -0.0239 -0.7459
   14MOL   H60413890   3.373   1.493   3.055 -0.3970  0.4606 -0.9129
   14MOL   H60513891   3.366   1.660   3.099  2.3377 -1.8045  2.7079
   14MOL   H60613892   3.220   1.326   3.169 -0.2006 -0.4312  0.5167
   14MOL   H60713893   3.147   1.250   3.389 -2.3177  1.0096  0.0440
   14MOL   H60813894   2.913   1.494   3.436  2.5375 -1.6714  0.7984
   14MOL   H60913895   2.684   1.500   3.479 -0.5263  0.3497  1.6635
   14MOL   H61013896   2.296   1.313   3.692 -0.9492 -1.1263  1.1401
   14MOL   H61113897   2.156   1.310   3.882  0.0837 -1.4458  0.0409
   14MOL   H61213898   1.994   1.502   4.216  1.4610 -0.5008 -0.6109
   14MOL   H61313899   1.755   1.424   4.189 -0.9671 -1.7566 -0.0015
   14MOL   N61413900   3.197   1.585   2.994  0.1549  0.0679  0.4385
   14MOL   C61513901   3.217   1.662   2.877 -0.4326 -0.1813  0.3958
   14MOL   C61613902   3.105   1.676   2.797  0.7828  0.5419  0.0767
   14MOL   C61713903   3.114   1.730   2.666  0.5459 -0.1191 -0.9797
   14MOL   C61813904   3.236   1.782   2.625 -0.0070 -0.3873  1.3097
   14MOL   N61913905   3.237   1.835   2.499  0.2841  0.1900 -0.2905
   14MOL   C62013906   3.330   1.921   2.442 -0.2330 -0.2658  0.2272
   14MOL   C62113907   3.410   2.019   2.509  0.2972  0.1345 -0.2618
   14MOL   C62213908   3.492   2.112   2.440  0.0839  0.4777  0.3834
   14MOL   C62313909   3.491   2.121   2.299 -0.2611  0.0284 -0.0532
   14MOL   N62413910   3.564   2.216   2.226  0.1156 -0.2642  0.0032
   14MOL   C62513911   3.696   2.257   2.260  0.4389 -0.1074 -0.2401
   14MOL   C62613912   3.756   2.381   2.212 -0.3255 -0.0846 -0.1419
   14MOL   C62713913   3.893   2.404   2.261 -0.6376  0.7998 -0.1189
   14MOL   C62813914   3.972   2.308   2.329 -0.4047  0.1685 -0.1187
   14MOL   N62913915   4.102   2.336   2.369 -0.7082  0.1171  0.2692
   14MOL   C63013916   4.168   2.306   2.489  0.1475  0.7980 -0.5499
   14MOL   C63113917   4.111   2.296   2.616  0.5488  0.5795  0.4514
   14MOL   C63213918   4.190   2.275   2.726 -0.0895  0.2303  0.4898
   14MOL   C63313919   4.323   2.252   2.712 -0.5071 -0.0058  0.2370
   14MOL   C63413920   4.412   2.198   2.831 -0.4081 -0.2628 -1.0977
   14MOL   C63513921   4.392   2.266   2.586  0.8394 -0.0509  0.0106
   14MOL   C63613922   4.308   2.291   2.474  0.1022 -0.5220 -0.1166
   14MOL   C63713923   3.910   2.189   2.369 -0.5971 -0.2361  0.3416
   14MOL   C63813924   3.776   2.167   2.343  0.6245 -0.2635 -0.7321
   14MOL   C63913925   3.415   2.020   2.234 -0.2732  0.6326  0.1268
   14MOL   C64013926   3.333   1.925   2.301  0.1430  0.6919 -0.7127
   14MOL   C64113927   3.355   1.778   2.709 -0.2063  0.5235  0.1804
   14MOL   C64213928   3.340   1.723   2.834 -0.2933 -0.0985 -0.2508
   14MOL   H64313929   3.105   1.550   3.020 -0.6055  1.5763 -0.1827
   14MOL   H64413930   3.004   1.646   2.821  0.9800 -1.0617 -0.9692
   14MOL   H64513931   3.031   1.721   2.597 -0.2908  1.6538 -0.2453
   14MOL   H64613932   3.173   1.783   2.442  2.0062 -0.4652 -1.6869
   14MOL   H64713933   3.419   2.011   2.617 -1.6353  1.9019  0.0395
   14MOL   H64813934   3.558   2.169   2.503 -1.7183  3.2348 -0.1072
   14MOL   H64913935   3.542   2.240   2.130  1.5783  1.5535  0.0886
   14MOL   H65013936   3.697   2.457   2.163 -0.7930  1.0613  2.1077
   14MOL   H65113937   3.931   2.500   2.231  0.2349  0.9602  1.4455
   14MOL   H65213938   4.148   2.398   2.304  1.0710 -2.1411 -0.7281
   14MOL   H65313939   4.005   2.316   2.621  0.4928 -0.0811  2.3019
   14MOL   H65413940   4.138   2.258   2.820  1.5032 -0.8603  1.1963
   14MOL   H65513941   4.428   2.091   2.827 -0.2462 -0.2291 -1.3807
   14MOL   H65613942   4.339   2.211   2.912 -3.5521  1.7208 -4.0760
   14MOL   H65713943   4.498   2.255   2.569  0.6997 -1.2222 -0.1446
   14MOL   H65813944   4.362   2.298   2.381 -1.5354 -0.8036 -1.1134
   14MOL   H65913945   3.959   2.116   2.431  0.7788  0.3353 -0.0643
   14MOL   H66013946   3.738   2.070   2.371 -0.1489  0.0035 -0.8504
   14MOL   H66113947   3.423   2.011   2.127 -0.6039  0.2370  0.1366
   14MOL   H66213948   3.280   1.857   2.236 -0.7577  1.0953 -0.4092
   14MOL   H66313949   3.452   1.813   2.676  0.3627 -0.4057  0.8699
   14MOL   H66413950   3.429   1.714   2.894 -0.4387 -0.4513 -0.0844
   14MOL   N66513951   4.536   2.266   2.856  0.3405 -0.5839 -0.3317
   14MOL   C66613952   4.616   2.239   2.965  0.7659 -0.0130  0.5526
   14MOL   C66713953   4.603   2.124   3.050 -0.3544 -0.5245  0.2439
   14MOL   C66813954   4.692   2.106   3.156 -0.1867  0.0442  0.0569
   14MOL   C66913955   4.796   2.200   3.180  0.0942  0.4108  0.3182
   14MOL   N67013956   4.897   2.171   3.275 -0.1618  0.1989  0.4481
   14MOL   C67113957   4.886   2.135   3.409  0.3767 -0.3682  0.4860
   14MOL   C67213958   4.761   2.097   3.469  0.0064 -0.0763  0.0810
   14MOL   C67313959   4.752   2.079   3.611 -0.0424  0.3706 -0.1182
   14MOL   C67413960   4.870   2.071   3.687  0.3593  0.1584 -0.0507
   14MOL   N67513961   4.871   2.041   3.826  0.1783 -0.3949 -0.7359
   14MOL   C67613962   4.952   1.952   3.891 -0.2238 -0.0078 -0.2254
   14MOL   C67713963   4.956   1.969   4.041  0.1856  0.2630 -0.3908
   14MOL   C67813964   5.023   1.868   4.117  0.0318  0.1192 -0.6497
   14MOL   C67913965   5.085   1.761   4.048  0.1104  0.2177  0.7122
   14MOL   N68013966   5.155   1.665   4.117 -0.0029  0.7672  0.3685
   14MOL   C68113967   5.272   1.596   4.073 -0.8664  1.0881 -0.1721
   14MOL   C68213968   5.348   1.650   3.970  0.5683  0.4751  0.4830
   14MOL   C68313969   5.460   1.582   3.917  0.4991  0.0881  0.2167
   14MOL   C68413970   5.505   1.467   3.971 -0.6576  0.3725 -0.2104
   14MOL   C68513971   5.624   1.388   3.913 -0.2439 -0.1861  0.7168
   14MOL   C68613972   5.431   1.407   4.075 -0.2848  0.0043  0.1356
   14MOL   C68713973   5.315   1.474   4.127 -0.4662 -0.0857 -0.3827
   14MOL   C68813974   5.066   1.744   3.907  0.6545 -0.5340 -0.1165
   14MOL   C68913975   5.013   1.843   3.830  0.6976  0.1560  0.2223
   14MOL   C69013976   4.990   2.085   3.623 -0.1988  0.4286 -0.1977
   14MOL   C69113977   4.999   2.125   3.489 -0.0812 -0.6999 -0.2079
   14MOL   C69213978   4.809   2.306   3.089  0.0622  0.0120 -0.4967
   14MOL   C69313979   4.720   2.331   2.988 -0.0082 -0.3094  0.6356
   14MOL   H69413980   4.552   2.348   2.799 -0.6846  1.1105  1.7507
   14MOL   H69513981   4.516   2.060   3.043  1.4314 -2.8133 -1.7071
   14MOL   H69613982   4.682   2.011   3.206 -1.8947 -0.5467 -1.3411
   14MOL   H69713983   4.975   2.233   3.259  0.2685 -0.4020  0.2271
   14MOL   H69813984   4.671   2.082   3.411  1.2536 -0.4625 -1.8024
   14MOL   H69913985   4.654   2.049   3.646 -0.4291  0.4319 -1.1218
   14MOL   H70013986   4.790   2.065   3.881  1.4534 -1.0785  1.5181
   14MOL   H70113987   4.923   2.063   4.083  2.8241  1.1758 -0.2833
   14MOL   H70213988   5.041   1.873   4.223  0.5714  1.3873 -0.7878
   14MOL   H70313989   5.112   1.616   4.194  2.2246 -0.8871  0.5881
   14MOL   H70413990   5.323   1.750   3.935  2.3111  1.1478  1.0995
   14MOL   H70513991   5.507   1.637   3.837  0.8907  2.0893  1.7783
   14MOL   H70613992   5.722   1.435   3.903  0.5674 -1.6688  1.5173
   14MOL   H70713993   5.599   1.368   3.809 -2.1029  0.4090  1.0298
   14MOL   H70813994   5.456   1.308   4.111  3.2364  0.2140 -1.6198
   14MOL   H70913995   5.262   1.417   4.202 -0.1283  1.8473  1.3933
   14MOL   H71013996   5.102   1.659   3.852  0.6090  0.0502 -1.0625
   14MOL   H71113997   5.026   1.834   3.723 -1.1578 -0.9725  0.0715
   14MOL   H71213998   5.085   2.088   3.675 -0.1631  1.7412 -0.3163
   14MOL   H71313999   5.096   2.152   3.450  0.2859  0.2881  1.3522
   14MOL   H71414000   4.892   2.374   3.103 -0.0677  0.1380 -0.3480
   14MOL   H71514001   4.736   2.414   2.922  2.2756 -0.3396  1.0924
   14MOL   N71614002   5.659   1.277   4.001 -0.0439  0.2746 -0.1818
   14MOL   C71714003   5.664   1.148   3.955  0.0739 -0.8060 -0.9292
   14MOL   C71814004   5.760   1.062   4.014 -0.0583 -0.3971  1.0525
   14MOL   C71914005   5.773   0.934   3.961  0.0975  0.1028 -0.0063
   14MOL   C72014006   5.687   0.885   3.857 -0.6256  0.8551 -0.4147
   14MOL   N72114007   5.706   0.763   3.793  0.0789  0.2771 -0.4276
   14MOL   C72214008   5.614   0.664   3.752  0.3353  0.1910 -0.3311
   14MOL   C72314009   5.659   0.540   3.711 -0.7630  0.1183 -0.1435
   14MOL   C72414010   5.571   0.431   3.681  0.1537 -0.0106  0.2227
   14MOL   C72514011   5.438   0.447   3.711 -0.2618  0.0915  0.5186
   14MOL   N72614012   5.349   0.339   3.691  0.0693  0.2801  0.3962
   14MOL   C72714013   5.378   0.199   3.687 -0.0928  0.8249 -0.1878
   14MOL   C72814014   5.318   0.116   3.591 -0.4171 -0.5192 -0.0075
   14MOL   C72914015   5.341   7.963   3.597 -1.3039  1.2055  0.1203
   14MOL   C73014016   5.436   7.904   3.675  0.4183  0.0090  0.0131
   14MOL   N73114017   5.477   7.772   3.655 -0.1355 -0.1986  0.5384
   14MOL   C73214018   5.604   7.716   3.691  0.5627 -0.4036 -0.5116
   14MOL   C73314019   5.717   7.792   3.670  0.2580 -0.4919 -0.1624
   14MOL   C73414020   5.849   7.745   3.715  0.2636 -0.2212  0.7251
   14MOL   C73514021   5.857   7.624   3.778 -0.0146  0.1350  0.3244
   14MOL   C73614022   5.988   7.570   3.829 -0.4195  0.2333 -0.3399
   14MOL   C73714023   5.740   7.547   3.800  0.6608 -0.0519 -0.5324
   14MOL   C73814024   5.612   7.591   3.756  0.1763 -0.3488  0.1883
   14MOL   C73914025   5.495   0.004   3.778  0.1918  0.1624  0.7848
   14MOL   C74014026   5.459   0.137   3.786 -0.7242  0.0004 -1.1467
   14MOL   C74114027   5.381   0.573   3.746  0.2781 -0.5679  0.5421
   14MOL   C74214028   5.472   0.680   3.767  0.3380 -0.2114 -0.0364
   14MOL   C74314029   5.593   0.976   3.798 -0.5387  0.4110  0.0584
   14MOL   C74414030   5.581   1.107   3.847 -1.0555  0.2602 -0.3734
   14MOL   H74514031   5.696   1.314   4.088 -3.1675  1.7255  0.6185
   14MOL   H74614032   5.816   1.095   4.100  1.7095 -0.3368 -0.1017
   14MOL   H74714033   5.845   0.869   4.008  1.3315  0.6546 -1.0788
   14MOL   H74814034   5.801   0.733   3.807 -0.1394 -0.1708  0.0903
   14MOL   H74914035   5.764   0.522   3.693 -0.6318  1.2283 -0.5154
   14MOL   H75014036   5.606   0.337   3.641 -0.5157 -0.4196  0.5941
   14MOL   H75114037   5.251   0.357   3.708  0.8228  2.9117  2.2968
   14MOL   H75214038   5.239   0.154   3.527 -0.5708  0.9430  1.0327
   14MOL   H75314039   5.299   7.901   3.519 -0.0071 -1.0563  1.1680
   14MOL   H75414040   5.416   7.705   3.611  0.4933 -0.5829  0.2462
   14MOL   H75514041   5.716   7.886   3.617 -0.2591 -0.9408 -0.9605
   14MOL   H75614042   5.941   7.797   3.695 -0.3718 -0.1208 -2.2914
   14MOL   H75714043   6.079   7.600   3.777 -0.7276  1.1585 -0.3450
   14MOL   H75814044   5.971   7.465   3.806 -1.3531  1.1093 -3.9321
   14MOL   H75914045   5.746   7.451   3.848 -2.2330 -0.0415 -0.0807
   14MOL   H76014046   5.524   7.533   3.779 -0.3202  0.4624  0.3415
   14MOL   H76114047   5.571   7.949   3.846  2.8645  0.7470 -1.7917
   14MOL   H76214048   5.510   0.200   3.857 -2.3878  1.0997 -0.8910
   14MOL   H76314049   5.278   0.589   3.772 -0.4142  0.2063 -2.4326
   14MOL   H76414050   5.435   0.763   3.825  0.9910  0.3515 -0.4250
   14MOL   H76514051   5.549   0.949   3.703  2.6541 -0.8468 -1.1298
   14MOL   H76614052   5.511   1.177   3.803 -1.8116  0.1281  0.6035
   14MOL   N76714053   6.005   7.605   3.972  0.2983  0.1357 -0.4729
   14MOL   C76814054   6.100   7.696   4.014 -0.7756  0.0105 -0.1462
   14MOL   C76914055   6.158   7.791   3.936 -0.1558 -0.0675  0.0737
   14MOL   C77014056   6.275   7.864   3.972 -0.1379 -0.5558  0.7341
   14MOL   C77114057   6.323   7.857   4.105 -0.1444 -0.7582  0.1860
   14MOL   N77214058   6.428   7.940   4.145  0.3122  0.2869 -0.0819
   14MOL   C77314059   6.509   0.025   4.056 -0.5373 -0.1921 -0.3526
   14MOL   C77414060   6.496   0.165   4.033 -0.0149 -0.1538  0.4400
   14MOL   C77514061   6.574   0.227   3.936 -0.1920 -1.1380  0.4850
   14MOL   C77614062   6.670   0.151   3.860  0.3167 -0.4529 -0.2847
   14MOL   N77714063   6.729   0.201   3.746 -0.6026  0.4058  0.6865
   14MOL   C77814064   6.733   0.333   3.706 -0.2898  0.0454  0.2364
   14MOL   C77914065   6.772   0.439   3.796  0.1787  0.1714  0.4830
   14MOL   C78014066   6.773   0.570   3.743  0.4211  0.2993 -0.2192
   14MOL   C78114067   6.734   0.602   3.611 -0.0583  0.1948 -0.0140
   14MOL   N78214068   6.703   0.736   3.575 -0.0684  0.4163 -0.2129
   14MOL   C78314069   6.762   0.820   3.485 -0.0612  0.5136  1.0738
   14MOL   C78414070   6.730   0.951   3.488 -0.2489 -0.1930  0.1366
   14MOL   C78514071   6.781   1.037   3.389  0.3864  0.5315 -0.6590
   14MOL   C78614072   6.868   0.990   3.295 -0.0369 -0.0460 -0.1895
   14MOL   C78714073   6.935   1.087   3.193  0.2414  0.6006 -0.2883
   14MOL   C78814074   6.912   0.855   3.299  0.4279 -0.0120  0.7118
   14MOL   C78914075   6.853   0.767   3.391  0.4399  0.7077 -0.1949
   14MOL   C79014076   6.712   0.499   3.523 -1.2479  0.5554 -0.4920
   14MOL   C79114077   6.715   0.363   3.569 -1.0999  0.5141 -0.1047
   14MOL   C79214078   6.681   0.011   3.885  0.2579  0.6131 -0.2026
   14MOL   C79314079   6.607   7.934   3.988  0.1102  0.0552  0.1384
   14MOL   C79414080   6.263   7.766   4.195  0.7126 -0.2183  0.0241
   14MOL   C79514081   6.156   7.682   4.149 -0.1274 -0.0204  0.7349
   14MOL   H79614082   5.975   7.531   4.035  0.5490  1.1494  0.8721
   14MOL   H79714083   6.127   7.794   3.833  0.2398  0.3968 -0.0294
   14MOL   H79814084   6.333   7.915   3.896 -0.5710 -0.1242  0.6940
   14MOL   H79914085   6.397   0.010   4.226 -0.3157  2.1281 -1.4766
   14MOL   H80014086   6.431   0.230   4.089  2.9689  1.7551  1.7592
   14MOL   H80114087   6.545   0.330   3.921 -1.7055 -1.7603 -1.1419
   14MOL   H80214088   6.759   0.136   3.674  0.4443  3.8083 -2.1054
   14MOL   H80314089   6.806   0.421   3.897 -1.3526  0.0199  0.9929
   14MOL   H80414090   6.799   0.649   3.811 -0.3188  0.8834 -0.6045
   14MOL   H80514091   6.682   0.801   3.649 -0.0863 -1.5492  1.5365
   14MOL   H80614092   6.662   0.994   3.561 -3.0515 -2.9588 -0.7487
   14MOL   H80714093   6.755   1.142   3.391  1.5394  0.8094  0.0924
   14MOL   H80814094   6.907   1.192   3.185  1.3957  1.1628  2.3914
   14MOL   H80914095   6.926   1.038   3.097  3.2822 -0.8981  0.1097
   14MOL   H81014096   6.986   0.839   3.222  1.5235 -0.5888  1.8449
   14MOL   H81114097   6.890   0.666   3.386 -1.7966 -0.1622  0.1869
   14MOL   H81214098   6.685   0.522   3.421  1.6544 -0.4496 -1.5124
   14MOL   H81314099   6.685   0.276   3.513 -1.6855 -1.3333  2.9243
   14MOL   H81414100   6.743   7.930   3.824 -1.8128 -1.1369 -0.5643
   14MOL   H81514101   6.630   7.832   4.016 -0.8600  0.0528  0.9471
   14MOL   H81614102   6.316   7.751   4.287  1.4706  0.4330 -0.3057
   14MOL   H81714103   6.123   7.598   4.209  1.5870 -1.1461  0.1168
   14MOL   N81814104   7.077   1.089   3.226 -0.5857  0.2016 -0.0489
   14MOL   C81914105   7.172   1.141   3.132  0.4872 -0.4075  0.5609
   14MOL   C82014106   7.304   1.147   3.181  0.5091  1.0631 -0.1968
   14MOL   C82114107   7.405   1.196   3.098  0.0888 -0.1967 -0.3498
   14MOL   C82214108   7.375   1.239   2.961 -0.2072  0.1435 -0.4822
   14MOL   N82314109   7.479   1.299   2.890 -0.1863 -0.2446  0.0925
   14MOL   C82414110   7.497   1.435   2.869 -0.2794  0.4938 -0.4079
   14MOL   C82514111   7.422   1.521   2.950 -0.0443  0.2730 -0.1379
   14MOL   C82614112   7.435   1.658   2.926 -0.0331 -0.0932  0.2941
   14MOL   C82714113   7.525   1.704   2.818 -0.4825  0.4352 -0.2768
   14MOL   N82814114   7.526   1.844   2.791 -0.1996 -0.3343 -0.4898
   14MOL   C82914115   7.594   1.909   2.691 -0.6018 -0.0003 -0.4407
   14MOL   C83014116   7.550   1.913   2.560  0.5001  0.6568 -0.5052
   14MOL   C83114117   7.628   1.979   2.460  0.4375  0.0165  0.3953
   14MOL   C83214118   7.730   2.067   2.496  0.7481  0.0352  0.2207
   14MOL   N83314119   7.808   2.140   2.408  0.4698 -0.1372 -0.5732
   14MOL   C83414120   7.766   2.215   2.300  0.6422 -0.1181 -0.4623
   14MOL   C83514121   7.633   2.255   2.287 -0.1378  0.0204 -1.1643
   14MOL   C83614122   7.593   2.329   2.174 -0.3948  0.4825 -0.4826
   14MOL   C83714123   7.683   2.359   2.073  0.5291  0.6526 -0.7506
   14MOL   C83814124   7.633   2.438   1.960 -0.4736 -0.6628  0.2313
   14MOL   C83914125   7.816   2.305   2.083 -0.2870 -0.0293 -0.1569
   14MOL   C84014126   7.852   2.236   2.198 -1.0032  0.3060  0.4360
   14MOL   C84114127   7.762   2.079   2.631 -0.4381  0.4448 -0.4869
   14MOL   C84214128   7.706   1.993   2.732 -0.5257  0.2111 -0.1202
   14MOL   C84314129   7.617   1.614   2.757 -0.7738 -0.3928 -0.0246
   14MOL   C84414130   7.593   1.480   2.773 -0.7118  0.2801  0.1670
   14MOL   C84514131   7.239   1.224   2.917 -0.0323 -0.3050  0.0443
   14MOL   C84614132   7.134   1.188   3.008  0.5173 -0.6158  0.6271
   14MOL   H84714133   7.109   1.037   3.306  0.7359  0.3891 -0.4524
   14MOL   H84814134   7.333   1.113   3.279  2.0848  2.5057 -0.1301
   14MOL   H84914135   7.505   1.196   3.138  1.1150  2.0535 -2.7660
   14MOL   H85014136   7.522   1.241   2.820 -2.6505  0.3713 -2.0016
   14MOL   H85114137   7.362   1.487   3.033  0.3842  1.5878  0.7347
   14MOL   H85214138   7.383   1.731   2.986 -0.7653  0.4269 -0.9497
   14MOL   H85314139   7.464   1.893   2.854  1.3965  1.5457 -0.3422
   14MOL   H85414140   7.470   1.845   2.535  0.1168  0.7205  0.5139
   14MOL   H85514141   7.604   1.968   2.356 -0.0198  1.0803  0.3791
   14MOL   H85614142   7.903   2.160   2.437  0.3402 -0.5571  0.1409
   14MOL   H85714143   7.568   2.229   2.369  1.3638 -0.3863 -0.0726
   14MOL   H85814144   7.492   2.367   2.167  0.4060  3.1853  1.6643
   14MOL   H85914145   7.715   2.447   1.888 -0.4464  0.8967  0.4396
   14MOL   H86014146   7.602   2.538   1.988  2.5277  0.3382  0.1248
   14MOL   H86114147   7.887   2.318   2.004  0.4721  1.0959  0.6781
   14MOL   H86214148   7.951   2.194   2.202 -0.9858  0.2706 -0.3703
   14MOL   H86314149   7.848   2.136   2.663 -0.1579 -0.7549  0.9819
   14MOL   H86414150   7.739   2.007   2.834 -0.0496 -0.9316 -0.1105
   14MOL   H86514151   7.687   1.639   2.678 -0.7471  2.2884  0.8069
   14MOL   H86614152   7.655   1.414   2.714  1.4487  3.0394 -0.8054
   14MOL   H86714153   7.209   1.255   2.818 -1.2785  0.6884  0.7117
   14MOL   H86814154   7.033   1.193   2.970 -0.9831 -0.3954  4.4490
   14MOL   N86914155   7.520   2.379   1.897  0.1064  0.3659  0.3579
   14MOL   C87014156   7.523   2.317   1.771  0.9139 -0.8693 -0.7265
   14MOL   C87114157   7.400   2.254   1.741 -0.2398  0.1794 -0.2686
   14MOL   C87214158   7.388   2.184   1.617 -0.2662 -0.0351 -0.7410
   14MOL   C87314159   7.495   2.174   1.520 -0.4543 -0.2039 -0.0897
   14MOL   N87414160   7.481   2.103   1.396  0.2195 -0.3392  0.0332
   14MOL   C87514161   7.491   2.163   1.265 -0.0254 -0.0921  0.6666
   14MOL   C87614162   7.534   2.086   1.155 -0.7273  0.3361 -0.1218
   14MOL   C87714163   7.528   2.130   1.021 -0.9209 -0.6852  0.3335
   14MOL   C87814164   7.503   2.270   1.003  0.9503  0.5336 -0.1162
   14MOL   N87914165   7.509   2.334   0.880 -0.7302 -0.3084 -0.5328
   14MOL   C88014166   7.476   2.280   0.756 -0.7285 -0.6848 -0.0598
   14MOL   C88114167   7.532   2.334   0.639  0.9666 -0.4099 -0.7944
   14MOL   C88214168   7.516   2.265   0.517  0.7446 -0.2906 -0.3560
   14MOL   C88314169   7.455   2.142   0.509 -0.5310  0.3331  0.4896
   14MOL   N88414170   7.470   2.067   0.392  0.1019  0.0514  1.2070
   14MOL   C88514171   7.483   1.929   0.392 -0.4905 -0.2841 -0.4401
   14MOL   C88614172   7.413   1.856   0.299 -0.9679  0.0845 -0.1465
   14MOL   C88714173   7.402   1.714   0.305  0.4576  0.4185 -0.4337
   14MOL   C88814174   7.477   1.647   0.405 -0.2175  0.9222  0.3286
   14MOL   C88914175   7.492   1.498   0.420 -0.4034 -0.1298 -0.2016
   14MOL   C89014176   7.563   1.720   0.487 -0.3489 -0.2659  0.4376
   14MOL   C89114177   7.565   1.858   0.485 -0.1255 -0.5495  0.0328
   14MOL   C89214178   7.385   2.099   0.623  0.9116 -0.5946 -0.9507
   14MOL   C89314179   7.394   2.167   0.745  0.3441 -0.2668 -0.6318
   14MOL   C89414180   7.469   2.352   1.116  0.0981  0.0633  0.5589
   14MOL   C89514181   7.465   2.298   1.243  0.4816 -0.6349 -0.2450
   14MOL   C89614182   7.614   2.244   1.558 -0.1187  0.0385  0.4633
   14MOL   C89714183   7.630   2.315   1.677  0.1327  0.4222 -0.1161
   14MOL   H89814184   7.431   2.412   1.931  0.9280 -1.1689  4.2960
   14MOL   H89914185   7.319   2.260   1.813 -0.3014  3.3229 -0.5376
   14MOL   H90014186   7.286   2.152   1.603  0.2020 -2.0134  0.1817
   14MOL   H90114187   7.442   2.010   1.406 -0.3968  0.2178  3.2079
   14MOL   H90214188   7.558   1.982   1.170  1.1961  0.6550 -0.9504
   14MOL   H90314189   7.545   2.058   0.942  0.4537 -1.5604  1.4291
   14MOL   H90414190   7.508   2.434   0.892 -0.2830 -0.6263  2.6269
   14MOL   H90514191   7.585   2.427   0.627 -0.4974  0.3756 -1.2868
   14MOL   H90614192   7.558   2.305   0.426 -0.5700  0.0876 -0.8106
   14MOL   H90714193   7.462   2.109   0.301  1.0361 -0.4931  0.8637
   14MOL   H90814194   7.346   1.908   0.231  0.3583 -0.3948 -1.8507
   14MOL   H90914195   7.336   1.665   0.235  1.5950 -2.5987  0.5039
   14MOL   H91014196   7.592   1.492   0.375  0.1019  2.7770  0.4364
   14MOL   H91114197   7.411   1.451   0.364 -2.8455  2.2431  1.2384
   14MOL   H91214198   7.622   1.676   0.566  2.8089  2.6885 -0.1318
   14MOL   H91314199   7.632   1.911   0.552 -0.6492  0.8625 -0.5374
   14MOL   H91414200   7.342   2.000   0.614  0.3646 -0.4088 -0.3189
   14MOL   H91514201   7.342   2.131   0.832  3.0306  1.4323  1.8157
   14MOL   H91614202   7.438   2.454   1.100 -0.8388 -0.0173  1.7996
   14MOL   H91714203   7.435   2.363   1.324  1.9496  0.0978 -0.2805
   14MOL   H91814204   7.698   2.240   1.489  1.3757 -1.2786  2.2972
   14MOL   H91914205   7.726   2.363   1.690  1.4432 -0.8467 -4.3942
   14MOL   N92014206   7.501   1.435   0.548 -0.1785 -0.4460 -0.7214
   14MOL   C92114207   7.374   1.447   0.616 -0.6740 -0.3621 -0.1605
   14MOL   C92214208   7.258   1.394   0.570 -0.1464 -0.5001 -0.2112
   14MOL   C92314209   7.139   1.427   0.634 -0.5923  0.1944 -0.4996
   14MOL   C92414210   7.129   1.511   0.742 -0.6230 -0.0204  0.6727
   14MOL   N92514211   6.999   1.547   0.789 -0.1176  0.0277 -0.2542
   14MOL   C92614212   6.956   1.669   0.844  1.0759 -0.3352 -0.6939
   14MOL   C92714213   7.018   1.794   0.812 -0.7379 -0.6067 -0.0056
   14MOL   C92814214   6.970   1.914   0.869  0.4932 -0.3975  0.0096
   14MOL   C92914215   6.852   1.915   0.952  0.1642 -0.1174 -0.1200
   14MOL   N93014216   6.813   2.033   1.019 -0.1760 -0.0315  0.8191
   14MOL   C93114217   6.898   2.117   1.084 -0.0644  0.0184 -0.1230
   14MOL   C93214218   6.849   2.243   1.126  0.2820 -0.2058  0.2503
   14MOL   C93314219   6.928   2.332   1.202  0.5970  0.6994  0.5612
   14MOL   C93414220   7.066   2.303   1.226  0.2645  0.5110 -0.2481
   14MOL   N93514221   7.149   2.385   1.305 -0.1994 -0.3335 -0.0489
   14MOL   C93614222   7.102   2.513   1.351  0.5226  0.3472 -0.7228
   14MOL   C93714223   7.158   2.628   1.300 -0.2256  0.4814 -0.5831
   14MOL   C93814224   7.125   2.760   1.339  0.3299  0.3530 -0.2704
   14MOL   C93914225   7.014   2.770   1.426  0.5415  0.6255  0.2377
   14MOL   C94014226   6.978   2.905   1.486  0.8341  0.0386  0.0050
   14MOL   C94114227   6.954   2.659   1.480  0.0754 -0.2064  0.7120
   14MOL   C94214228   6.991   2.530   1.443  0.5522  0.6379 -0.0898
   14MOL   C94314229   7.116   2.179   1.182 -0.9078 -0.1549  0.4514
   14MOL   C94414230   7.029   2.078   1.128 -0.5461  0.2181  0.0219
   14MOL   C94514231   6.793   1.793   0.982  0.0572 -0.2340 -0.5451
   14MOL   C94614232   6.846   1.670   0.933 -0.9057  0.5954 -0.7006
   14MOL   C94714233   7.246   1.560   0.792  0.3884 -0.3468  0.2481
   14MOL   C94814234   7.367   1.540   0.728  0.5837 -0.4423 -0.4941
   14MOL   H94914235   7.582   1.465   0.601  1.0512 -2.0950 -1.6081
   14MOL   H95014236   7.255   1.327   0.486 -2.7322 -1.4437  0.5854
   14MOL   H95114237   7.044   1.397   0.592 -0.7669 -1.7898  1.1953
   14MOL   H95214238   6.927   1.476   0.783 -1.4838  1.2909  0.7090
   14MOL   H95314239   7.102   1.785   0.745  0.1364 -1.5138  1.1896
   14MOL   H95414240   7.022   2.006   0.847  0.1220  0.1309  1.3048
   14MOL   H95514241   6.714   2.052   1.026  0.0921  0.9692  2.0367
   14MOL   H95614242   6.744   2.265   1.110  0.2617  1.2169  2.2790
   14MOL   H95714243   6.881   2.418   1.247  0.5206  0.5089  0.8537
   14MOL   H95814244   7.241   2.376   1.265 -0.4604 -1.9423 -0.3280
   14MOL   H95914245   7.251   2.625   1.245 -0.7071 -0.3793 -1.3508
   14MOL   H96014246   7.176   2.840   1.288  1.0277 -0.6586 -1.1670
   14MOL   H96114247   7.061   2.932   1.552  1.1738 -0.2212 -0.3081
   14MOL   H96214248   6.884   2.895   1.539  0.6703  0.9410 -0.1165
   14MOL   H96314249   6.874   2.674   1.552  0.0085  0.0686  0.5797
   14MOL   H96414250   6.942   2.443   1.485 -3.0649  1.0183 -3.2543
   14MOL   H96514251   7.219   2.154   1.206 -1.1191 -0.8942  0.5892
   14MOL   H96614252   7.072   1.981   1.108 -2.2055 -0.5139 -0.0667
   14MOL   H96714253   6.718   1.796   1.059  0.2939 -0.2291 -0.3162
   14MOL   H96814254   6.801   1.576   0.961 -0.4707  0.8638  1.0032
   14MOL   H96914255   7.247   1.627   0.876 -0.1174 -1.0696  0.8332
   14MOL   H97014256   7.454   1.598   0.753  0.7675 -0.6787 -0.5798
   14MOL   N97114257   6.975   3.014   1.388 -0.3677 -0.7786  0.4337
   14MOL   C97214258   7.004   3.144   1.426 -0.1534 -0.2102 -0.7602
   14MOL   C97314259   7.035   3.234   1.319 -0.4718 -0.5612  0.6397
   14MOL   C97414260   7.086   3.362   1.347 -0.0288  0.1959 -1.0436
   14MOL   C97514261   7.089   3.406   1.478 -1.1848  0.1829  0.8427
   14MOL   N97614262   7.111   3.540   1.491 -0.1151  0.2229  0.2443
   14MOL   C97714263   7.021   3.638   1.533 -0.2889  0.8245 -0.0727
   14MOL   C97814264   7.066   3.764   1.569 -0.0860 -0.2464  0.1158
   14MOL   C97914265   6.967   3.867   1.592 -0.4522 -0.0256  0.4983
   14MOL   C98014266   6.833   3.848   1.576 -0.1121  0.3919 -0.1172
   14MOL   N98114267   6.748   3.956   1.580 -0.4441  0.2781 -0.9853
   14MOL   C98214268   6.634   3.984   1.498  0.0528 -0.2584  0.0887
   14MOL   C98314269   6.579   4.111   1.505  0.0327  0.4027  0.6375
   14MOL   C98414270   6.489   4.159   1.404  0.3865  0.7636  0.1220
   14MOL   C98514271   6.429   4.058   1.318 -0.1974  0.2067 -0.1431
   14MOL   N98614272   6.318   4.087   1.232 -0.0253  0.3803  0.1947
   14MOL   C98714273   6.270   4.211   1.194 -0.2770 -0.0156  0.2638
   14MOL   C98814274   6.352   4.298   1.120 -0.1008  0.0066 -0.1526
   14MOL   C98914275   6.322   4.437   1.114 -0.0225  0.0576  0.1328
   14MOL   C99014276   6.194   4.485   1.158 -0.1623 -0.3863  0.3082
   14MOL   C99114277   6.156   4.632   1.164 -0.3393 -0.3564  0.0462
   14MOL   C99214278   6.105   4.390   1.211 -0.0505  0.7801 -0.3734
   14MOL   C99314279   6.142   4.261   1.237  0.1374 -0.5052  0.7899
   14MOL   C99414280   6.476   3.927   1.326 -0.1759  0.2567 -0.0271
   14MOL   C99514281   6.580   3.889   1.410 -0.5006 -0.3852  0.0582
   14MOL   C99614282   6.787   3.714   1.555 -0.2598 -0.3815 -0.9956
   14MOL   C99714283   6.885   3.615   1.528 -0.4432  0.1821  0.1171
   14MOL   C99814284   7.059   3.320   1.580  0.2052 -0.2509  0.4822
   14MOL   C99914285   7.008   3.189   1.558  0.1260 -0.0279  0.3331
   14MOL     H114286   6.941   2.987   1.296  1.9405 -1.6394 -0.1921
   14MOL     H214287   7.032   3.189   1.221 -0.2723  0.6696  0.0597
   14MOL     H314288   7.112   3.426   1.264 -1.1242  2.3924  0.2663
   14MOL     H414289   7.187   3.583   1.439 -0.7097 -0.2107 -0.9886
   14MOL     H514290   7.171   3.786   1.579  0.3266 -1.2409 -1.8648
   14MOL     H614291   7.012   3.963   1.614 -2.5613  1.8359 -2.8934
   14MOL     H714292   6.778   4.046   1.613 -0.7963 -0.2245  0.7732
   14MOL     H814293   6.611   4.189   1.573 -1.5385  1.4803  0.1673
   14MOL     H914294   6.451   4.260   1.405 -1.9321 -0.0206 -2.2236
   14MOL    H1014295   6.240   4.024   1.242  0.6619 -0.3982  0.6844
   14MOL    H1114296   6.449   4.260   1.092 -0.1486 -1.5085  1.7082
   14MOL    H1214297   6.392   4.515   1.086 -0.1688 -0.3195 -1.2957
   14MOL    H1314298   6.220   4.692   1.229  0.6242  0.0393 -1.2561
   14MOL    H1414299   6.052   4.650   1.190 -0.4940 -0.8721 -0.2108
   14MOL    H1514300   6.008   4.422   1.247  0.6086  0.2057  2.0233
   14MOL    H1614301   6.073   4.191   1.283 -1.2493  1.0231  1.0695
   14MOL    H1714302   6.431   3.854   1.260 -0.8965  0.6660  0.0062
   14MOL    H1814303   6.605   3.785   1.397 -1.6234 -0.6440 -0.0920
   14MOL    H1914304   6.685   3.678   1.556 -0.2982 -0.2634 -0.7155
   14MOL    H2014305   6.845   3.518   1.501  0.1718 -0.1662  0.4134
   14MOL    H2114306   7.059   3.347   1.685 -0.5405 -1.0775  0.7066
   14MOL    H2214307   6.968   3.133   1.641 -0.4554 -0.3533 -0.1638
   14MOL    H2314308   6.164   4.670   1.062 -0.9340  0.4194  0.2811
   15MOL     N114309   6.771   6.374   3.622 -0.0416  0.0223 -0.7267
   15MOL     C214310   6.789   6.502   3.574 -0.0654 -0.3580  0.5170
   15MOL     C314311   6.715   6.548   3.460 -0.4289  0.2012  0.4052
   15MOL     C414312   6.754   6.672   3.400 -0.2910  0.3134 -0.1227
   15MOL     C514313   6.867   6.744   3.437 -0.3498  0.0429  0.1475
   15MOL     N614314   6.901   6.859   3.371  0.8578  0.3412 -0.4769
   15MOL     C714315   6.939   6.868   3.239  0.5435 -0.5859  0.0015
   15MOL     C814316   6.976   6.749   3.171 -0.0435  0.6170  0.1051
   15MOL     C914317   7.041   6.761   3.052  0.0173  0.6540  0.5124
   15MOL    C1014318   7.061   6.887   2.988 -0.1783 -0.4519  0.4994
   15MOL    N1114319   7.126   6.894   2.862  0.2782  0.2283 -0.5375
   15MOL    C1214320   7.224   6.984   2.820  0.1412 -0.4521 -0.4755
   15MOL    C1314321   7.253   6.987   2.681  0.7086  0.3241  0.1342
   15MOL    C1414322   7.344   7.079   2.631  0.2743 -0.1526 -0.3489
   15MOL    C1514323   7.414   7.158   2.725  0.7362  0.2009  0.5623
   15MOL    N1614324   7.515   7.239   2.678  0.4605 -0.0399 -0.4966
   15MOL    C1714325   7.650   7.201   2.680 -0.8265 -0.1022 -0.0184
   15MOL    C1814326   7.688   7.067   2.707  0.4733 -0.8720  0.3903
   15MOL    C1914327   7.826   7.025   2.697  0.2153  0.0082 -0.2918
   15MOL    C2014328   7.926   7.115   2.673 -0.3227 -0.0192 -1.1947
   15MOL    C2114329   0.086   7.073   2.678  0.0281 -0.7536  0.5182
   15MOL    C2214330   7.894   7.252   2.645  0.2902 -0.7811  0.1027
   15MOL    C2314331   7.754   7.293   2.645 -0.2283 -0.1250  0.0709
   15MOL    C2414332   7.402   7.144   2.864  0.6469 -0.4294  0.8273
   15MOL    C2514333   7.298   7.064   2.910  0.0122  0.3393  0.3657
   15MOL    C2614334   7.010   7.003   3.053  0.1800  0.2663 -0.5065
   15MOL    C2714335   6.952   6.996   3.181 -1.0783  0.1263  0.0896
   15MOL    C2814336   6.941   6.698   3.549  0.6183  0.9868  0.1361
   15MOL    C2914337   6.903   6.579   3.614 -0.3303  0.9182  0.8002
   15MOL    H3014338   6.839   6.327   3.680  0.0067  0.3018 -0.5579
   15MOL    H3114339   6.626   6.494   3.431  0.7945  0.4986 -4.3069
   15MOL    H3214340   6.683   6.702   3.325 -2.4415  1.7388  2.4000
   15MOL    H3314341   6.897   6.945   3.423  2.0057  0.0475  0.1225
   15MOL    H3414342   6.970   6.649   3.210 -0.2486  0.5434 -0.1115
   15MOL    H3514343   7.083   6.674   3.003 -3.3163 -0.5614 -0.3020
   15MOL    H3614344   7.106   6.816   2.802 -0.8681  1.7447 -2.1557
   15MOL    H3714345   7.188   6.930   2.616 -0.5190  1.2690  0.5215
   15MOL    H3814346   7.347   7.083   2.523  1.1740  0.9264 -0.2981
   15MOL    H3914347   7.481   7.321   2.629 -0.2358  1.0760  1.7698
   15MOL    H4014348   7.605   7.003   2.732  0.9517 -0.5239  2.9280
   15MOL    H4114349   7.850   6.920   2.708 -0.8039 -0.2147 -0.1163
   15MOL    H4214350   0.117   7.049   2.576  0.2119  0.8205  0.1950
   15MOL    H4314351   0.089   6.989   2.747 -0.8823  0.4700  2.0913
   15MOL    H4414352   7.968   7.328   2.623 -1.2438  1.6287  2.9480
   15MOL    H4514353   7.732   7.396   2.621  2.9579  0.6730  0.3112
   15MOL    H4614354   7.455   7.204   2.937  0.2793 -1.1695  1.7027
   15MOL    H4714355   7.291   7.059   3.018 -2.8134 -2.5077  0.1066
   15MOL    H4814356   7.029   7.100   3.009  0.6140 -0.7494 -2.6537
   15MOL    H4914357   6.947   7.088   3.238 -0.7813 -1.2226  2.3361
   15MOL    H5014358   7.031   6.747   3.581  1.0781  0.3920 -0.2250
   15MOL    H5114359   6.961   6.541   3.697 -0.7926 -1.1370  0.2179
   15MOL    H5214360   6.736   6.303   3.559  0.2534 -1.3096  0.5783
   15MOL    N5314361   0.180   7.174   2.723  0.3656  0.1399 -0.1817
   15MOL    C5414362   0.292   7.115   2.783  0.4458 -0.2369  0.0947
   15MOL    C5514363   0.344   7.183   2.894  0.1529 -0.5010  1.5592
   15MOL    C5614364   0.462   7.136   2.951 -1.0001  0.0298  0.4228
   15MOL    C5714365   0.524   7.015   2.906  0.1204  0.0995  0.5275
   15MOL    N5814366   0.631   6.954   2.968 -0.8652 -0.5980  0.1858
   15MOL    C5914367   0.733   7.013   3.035 -0.0023 -0.4657  0.8364
   15MOL    C6014368   0.792   6.938   3.136  1.0212 -0.5986 -0.2107
   15MOL    C6114369   0.905   6.994   3.203 -0.2156 -0.3410 -0.1081
   15MOL    C6214370   0.943   7.127   3.173  0.2755 -1.1496  0.2146
   15MOL    N6314371   1.055   7.182   3.226 -0.4125 -0.1397  0.6718
   15MOL    C6414372   1.149   7.117   3.311  0.3112 -0.0691  0.5001
   15MOL    C6514373   1.201   6.985   3.293 -0.2086 -0.4843  0.4530
   15MOL    C6614374   1.300   6.936   3.386 -0.2052 -0.2015 -0.3837
   15MOL    C6714375   1.338   7.009   3.501 -0.3215 -0.2253 -0.2059
   15MOL    N6814376   1.420   6.950   3.598  0.4355  0.0036 -0.0482
   15MOL    C6914377   1.476   7.017   3.715 -0.9602  0.8154  0.1835
   15MOL    C7014378   1.471   6.964   3.850 -0.7751  0.6694 -0.0518
   15MOL    C7114379   1.505   7.037   3.961 -0.3525 -0.2731 -0.2569
   15MOL    C7214380   1.575   7.157   3.946 -0.2686 -0.0163  0.5009
   15MOL    C7314381   1.646   7.221   4.064 -0.1240 -0.1811 -0.4121
   15MOL    C7414382   1.588   7.213   3.815 -0.5081  0.3128  0.0564
   15MOL    C7514383   1.539   7.141   3.701  0.3308 -0.2597  0.2783
   15MOL    C7614384   1.291   7.145   3.509 -0.2933  0.6514 -0.6038
   15MOL    C7714385   1.200   7.193   3.416 -0.2479  0.7262  0.7303
   15MOL    C7814386   0.882   7.206   3.082  0.2908 -0.4143 -0.0834
   15MOL    C7914387   0.776   7.149   3.009  0.7511 -0.4501 -1.4812
   15MOL    C8014388   0.469   6.949   2.799  0.2515 -0.4010 -0.5704
   15MOL    C8114389   0.350   6.991   2.738 -0.2267  0.0041 -0.2580
   15MOL    H8214390   0.135   7.245   2.779  2.9284  2.9721 -1.5814
   15MOL    H8314391   0.300   7.270   2.940  0.6748  0.5234  0.1618
   15MOL    H8414392   0.508   7.191   3.032  0.9150 -1.6548  0.5066
   15MOL    H8514393   0.639   6.858   2.936  1.1411 -0.4129  0.0844
   15MOL    H8614394   0.762   6.838   3.162 -0.0667 -0.3390 -0.4283
   15MOL    H8714395   0.959   6.940   3.279  0.2027 -2.1864 -1.6719
   15MOL    H8814396   1.066   7.279   3.202 -0.0682 -0.4404 -0.4328
   15MOL    H8914397   1.184   6.932   3.200  2.3058  1.7007 -1.3268
   15MOL    H9014398   1.335   6.834   3.376  1.0429  0.1684  0.1161
   15MOL    H9114399   1.416   6.849   3.598  0.1738  0.0054 -1.0266
   15MOL    H9214400   1.424   6.867   3.861  0.1110  0.3926  1.4226
   15MOL    H9314401   1.504   6.985   4.056 -2.0851 -2.2530 -1.3261
   15MOL    H9414402   1.753   7.201   4.059  0.2234  1.5908 -0.5154
   15MOL    H9514403   1.612   7.169   4.153 -2.7827  2.2398  0.0972
   15MOL    H9614404   1.642   7.305   3.797  2.0109 -0.6006  2.4624
   15MOL    H9714405   1.545   7.187   3.603 -0.0418  0.3869  0.5516
   15MOL    H9814406   1.318   7.217   3.584 -1.0166  2.5984 -2.1694
   15MOL    H9914407   1.166   7.295   3.426 -0.4127  1.1036 -2.7491
   15MOL   H10014408   0.902   7.311   3.070  0.6094 -0.7090 -2.3033
   15MOL   H10114409   0.723   7.215   2.943 -0.4381  0.9024  0.7573
   15MOL   H10214410   0.518   6.858   2.766  1.3225  0.1138 -0.4014
   15MOL   H10314411   0.314   6.946   2.647 -1.9269  0.1505  0.3132
   15MOL   N10414412   1.639   7.366   4.073  0.6898 -0.5023  0.2932
   15MOL   C10514413   1.754   7.436   4.051  1.2332  0.1755 -0.7912
   15MOL   C10614414   1.873   7.419   4.127  0.0273  0.6907 -0.3469
   15MOL   C10714415   1.991   7.491   4.097  0.4031 -0.1013  0.1057
   15MOL   C10814416   1.993   7.592   4.001  0.2035 -0.1190  0.1599
   15MOL   N10914417   2.108   7.665   3.971  0.5224 -0.5105 -0.5536
   15MOL   C11014418   2.223   7.679   4.047  0.0306 -0.1563  0.4954
   15MOL   C11114419   2.350   7.685   3.989 -0.0716 -0.3341 -0.1551
   15MOL   C11214420   2.457   7.718   4.073 -0.3747 -0.0290 -1.1327
   15MOL   C11314421   2.445   7.754   4.207  0.5117 -0.5092  0.7479
   15MOL   N11414422   2.549   7.799   4.286 -0.0941 -0.0144  0.2450
   15MOL   C11514423   2.628   7.912   4.270 -0.3229 -0.2997 -0.2572
   15MOL   C11614424   2.722   7.929   4.167  0.3701  0.5436 -0.0814
   15MOL   C11714425   2.797   0.063   4.149 -0.3072  0.2766  0.7033
   15MOL   C11814426   2.775   0.175   4.224 -0.4449 -0.1572  0.0380
   15MOL   N11914427   2.857   0.289   4.212 -0.1584  0.1697  0.7765
   15MOL   C12014428   2.871   0.391   4.303 -0.4348  0.4906 -0.5286
   15MOL   C12114429   2.888   0.522   4.257 -0.4088  0.1078  0.3271
   15MOL   C12214430   2.912   0.626   4.353 -0.4692  0.2519  0.3047
   15MOL   C12314431   2.914   0.590   4.489  0.3387 -0.2409 -0.1183
   15MOL   C12414432   2.933   0.695   4.600 -0.3241 -0.2549 -0.6636
   15MOL   C12514433   2.899   0.456   4.526  0.2992 -0.0449 -0.4461
   15MOL   C12614434   2.885   0.356   4.435  0.2410  0.3108  0.6497
   15MOL   C12714435   2.672   0.170   4.317 -0.0280  0.6085 -0.0492
   15MOL   C12814436   2.599   0.050   4.346 -0.5248  0.5106  0.6464
   15MOL   C12914437   2.317   7.756   4.267 -0.2997 -0.0982 -0.2723
   15MOL   C13014438   2.210   7.720   4.183 -0.4527 -0.0572 -0.1225
   15MOL   C13114439   1.876   7.607   3.921 -0.2593  0.0338  0.1409
   15MOL   C13214440   1.759   7.530   3.949 -0.1431 -0.5689  0.0489
   15MOL   H13314441   1.556   7.404   4.029  1.8704 -1.3496 -2.7122
   15MOL   H13414442   1.873   7.344   4.204 -0.4880  2.2100  1.1488
   15MOL   H13514443   2.081   7.471   4.154 -0.2725  0.6469  1.4681
   15MOL   H13614444   2.116   7.697   3.876  1.9678  0.9892  0.0696
   15MOL   H13714445   2.360   7.680   3.881  0.5013  0.8522 -0.1687
   15MOL   H13814446   2.557   7.719   4.033  0.3443  0.9507  0.6448
   15MOL   H13914447   2.532   7.765   4.380  1.7682  0.7473  0.8813
   15MOL   H14014448   2.720   7.857   4.086  1.3469  1.0264 -0.5447
   15MOL   H14114449   2.877   0.053   4.077 -0.2749 -1.0529  0.9123
   15MOL   H14214450   2.890   0.313   4.120 -0.9509 -0.6934  0.2573
   15MOL   H14314451   2.895   0.542   4.151  1.2897 -1.7518  0.0679
   15MOL   H14414452   2.930   0.728   4.322  1.1308  0.3419  1.4683
   15MOL   H14514453   2.844   0.683   4.661 -0.1401  1.7044  0.0271
   15MOL   H14614454   2.927   0.797   4.563  0.7657  0.5096  1.1853
   15MOL   H14714455   2.905   0.443   4.633 -1.7116  2.0634 -0.0375
   15MOL   H14814456   2.886   0.254   4.469  1.1394  0.6307  1.5972
   15MOL   H14914457   2.658   0.258   4.378 -0.4376  1.4246 -1.2934
   15MOL   H15014458   2.530   0.052   4.429  0.6940  0.1505  1.6911
   15MOL   H15114459   2.305   7.793   4.368  2.4860  1.5497 -0.5009
   15MOL   H15214460   2.112   7.736   4.227 -0.7080  0.7750 -0.9731
   15MOL   H15314461   1.880   7.669   3.832 -0.7050  0.9138  0.7270
   15MOL   H15414462   1.678   7.537   3.878 -0.6077 -0.7414  0.5581
   15MOL   N15514463   3.059   0.684   4.667  0.0258 -0.3008  0.1647
   15MOL   C15614464   3.104   0.766   4.772  0.1155 -0.0612  0.0438
   15MOL   C15714465   3.003   0.835   4.851 -0.1595  0.2558  0.0436
   15MOL   C15814466   3.044   0.920   4.957 -0.4880  0.0576  0.2397
   15MOL   C15914467   3.179   0.920   4.993  0.2493 -0.8447  1.0310
   15MOL   N16014468   3.222   0.984   5.111  0.0845  0.6182  0.1650
   15MOL   C16114469   3.142   0.996   5.225 -0.9028 -0.0581 -0.9588
   15MOL   C16214470   3.145   1.108   5.309 -0.5758 -0.1934 -0.3309
   15MOL   C16314471   3.044   1.118   5.412  0.2905  0.4312  0.3829
   15MOL   C16414472   2.958   1.010   5.442 -0.0960 -0.6969  0.2312
   15MOL   N16514473   2.853   1.010   5.539  0.3761 -1.4429  0.3787
   15MOL   C16614474   2.785   1.120   5.593  0.0467 -0.0831  0.2719
   15MOL   C16714475   2.759   1.235   5.517 -0.2770  0.2918 -0.7971
   15MOL   C16814476   2.675   1.337   5.567 -0.3604  0.0800 -0.2802
   15MOL   C16914477   2.629   1.335   5.695  0.2742 -0.3607  0.0445
   15MOL   N17014478   2.547   1.436   5.747  0.5139 -0.7671  0.0677
   15MOL   C17114479   2.452   1.504   5.673  0.1285  0.3272  0.0210
   15MOL   C17214480   2.359   1.445   5.581  0.0302 -0.2620  0.5405
   15MOL   C17314481   2.258   1.527   5.520  0.3918  0.6798 -0.3241
   15MOL   C17414482   2.262   1.663   5.537  0.3144 -0.6430  0.4428
   15MOL   C17514483   2.176   1.755   5.453 -0.0078  0.5335 -0.9914
   15MOL   C17614484   2.347   1.721   5.631 -0.3259  0.6328 -0.3112
   15MOL   C17714485   2.441   1.642   5.698 -0.6182  0.1713 -0.7882
   15MOL   C17814486   2.654   1.219   5.774  0.8401 -0.1447  0.6992
   15MOL   C17914487   2.723   1.110   5.720  0.1091  0.0242 -0.9188
   15MOL   C18014488   2.960   0.896   5.366 -0.7794 -0.4815 -0.4000
   15MOL   C18114489   3.062   0.887   5.264  0.0253  0.1050 -0.9094
   15MOL   C18214490   3.276   0.843   4.925 -0.4766 -0.5457 -0.5108
   15MOL   C18314491   3.233   0.768   4.820  0.0409 -0.4257  0.6286
   15MOL   H18414492   3.132   0.623   4.633  2.4176  2.2550  0.5304
   15MOL   H18514493   2.898   0.834   4.824  0.0370  1.9578 -0.8375
   15MOL   H18614494   2.974   0.991   4.998  0.3870  1.7722 -1.1611
   15MOL   H18714495   3.308   1.038   5.119  1.4777 -1.4275 -0.5259
   15MOL   H18814496   3.218   1.183   5.284  1.8409 -2.2972  0.3021
   15MOL   H18914497   3.043   1.216   5.457  2.0418  0.8018 -0.3341
   15MOL   H19014498   2.852   0.928   5.598  0.4719 -0.8958  1.1339
   15MOL   H19114499   2.790   1.247   5.415 -1.0447  1.1591 -0.9441
   15MOL   H19214500   2.670   1.419   5.496 -2.4535  0.8439  0.7122
   15MOL   H19314501   2.513   1.419   5.840 -1.0880 -0.5357 -0.4586
   15MOL   H19414502   2.363   1.339   5.566  0.6053 -0.0489 -0.8814
   15MOL   H19514503   2.189   1.492   5.446 -0.5974  1.3683  0.2586
   15MOL   H19614504   2.227   1.762   5.356  0.1096  1.2428 -0.8786
   15MOL   H19714505   2.184   1.857   5.490 -2.4826  0.7681 -1.0025
   15MOL   H19814506   2.348   1.829   5.643 -1.5251  0.7583 -1.2568
   15MOL   H19914507   2.506   1.689   5.770 -0.9931 -0.2017 -0.1944
   15MOL   H20014508   2.606   1.204   5.869 -1.7282 -1.8772 -0.7991
   15MOL   H20114509   2.735   1.020   5.779 -0.3937 -0.3128 -1.3279
   15MOL   H20214510   2.898   0.809   5.381 -1.8303  0.3758  0.2636
   15MOL   H20314511   3.064   0.797   5.205  0.6937 -0.9735  0.7277
   15MOL   H20414512   3.380   0.837   4.952 -0.2401 -1.8951 -1.6782
   15MOL   H20514513   3.313   0.717   4.767  0.8091 -0.0131  1.3861
   15MOL   N20614514   2.037   1.708   5.443 -0.0369 -0.2570  0.1131
   15MOL   C20714515   1.945   1.798   5.383 -0.4797 -0.0120  0.0322
   15MOL   C20814516   1.816   1.812   5.439 -0.0477 -0.5353 -0.3816
   15MOL   C20914517   1.721   1.897   5.381 -0.2978 -0.2214 -0.3073
   15MOL   C21014518   1.747   1.967   5.266  0.0174 -0.3694 -0.5616
   15MOL   N21114519   1.645   2.045   5.208  0.1067 -0.0428 -0.0406
   15MOL   C21214520   1.510   2.031   5.220 -0.3416 -0.1550  0.7232
   15MOL   C21314521   1.454   1.900   5.215 -0.8828 -0.3077  0.2397
   15MOL   C21414522   1.318   1.883   5.240 -0.0133  0.6512 -0.0282
   15MOL   C21514523   1.229   1.996   5.268  0.4324  0.3551  0.1087
   15MOL   N21614524   1.090   1.998   5.293 -0.4411 -0.7302 -0.2487
   15MOL   C21714525   1.001   1.887   5.287  0.2962  0.1731 -0.0529
   15MOL   C21814526   0.943   1.835   5.402 -0.8087 -0.0029  0.2324
   15MOL   C21914527   0.863   1.718   5.399  0.1554 -0.5566  0.0276
   15MOL   C22014528   0.832   1.659   5.272  0.3317  0.3338  0.4844
   15MOL   N22114529   0.760   1.541   5.249  0.6456 -0.1702  0.1203
   15MOL   C22214530   0.686   1.458   5.332  0.0067 -0.5473 -1.0002
   15MOL   C22314531   0.699   1.322   5.304 -0.2922 -0.1205  0.1055
   15MOL   C22414532   0.627   1.233   5.388  0.2240  0.2706 -0.2796
   15MOL   C22514533   0.533   1.282   5.487 -0.3922  0.3200  0.1905
   15MOL   C22614534   0.451   1.181   5.571  0.2008  0.6426  0.4379
   15MOL   C22714535   0.521   1.420   5.509 -0.1643 -0.0586  0.1316
   15MOL   C22814536   0.600   1.509   5.434  0.8486  0.0699  0.7761
   15MOL   C22914537   0.887   1.719   5.157  0.1799 -0.1885  0.0593
   15MOL   C23014538   0.974   1.833   5.167  0.3718 -0.1597 -0.5442
   15MOL   C23114539   1.288   2.122   5.267 -0.0579 -0.7086  0.0844
   15MOL   C23214540   1.428   2.141   5.245  0.6096 -1.1827 -0.4976
   15MOL   C23314541   1.886   1.966   5.219 -0.1105 -0.0911  0.3149
   15MOL   C23414542   1.980   1.873   5.264 -0.4194  0.3352  0.3273
   15MOL   H23514543   2.024   1.613   5.476  2.5125 -0.9637 -0.8083
   15MOL   H23614544   1.787   1.753   5.526 -4.5776  0.9488 -0.7148
   15MOL   H23714545   1.622   1.896   5.426 -0.5369 -2.8909 -0.8091
   15MOL   H23814546   1.670   2.119   5.144 -0.8824  1.0768  0.8569
   15MOL   H23914547   1.509   1.809   5.192  1.3995  1.4883 -1.5889
   15MOL   H24014548   1.283   1.782   5.226  0.8023  0.1193  1.6454
   15MOL   H24114549   1.062   2.079   5.346  1.8705  1.4513 -2.2175
   15MOL   H24214550   0.963   1.882   5.497  0.5102  0.8215 -0.4362
   15MOL   H24314551   0.826   1.675   5.490 -2.1877  0.6604 -0.3008
   15MOL   H24414552   0.762   1.510   5.153 -1.8256 -2.3600  0.7211
   15MOL   H24514553   0.776   1.292   5.233 -0.0173 -2.9064  1.5102
   15MOL   H24614554   0.649   1.128   5.373  0.8376  0.4684 -0.7920
   15MOL   H24714555   0.406   1.109   5.503 -0.1974  0.6683  0.6745
   15MOL   H24814556   0.374   1.234   5.626  0.6594 -0.8217  2.5479
   15MOL   H24914557   0.456   1.464   5.584 -0.3553 -0.1585  0.0257
   15MOL   H25014558   0.598   1.616   5.448 -0.2399  0.4159 -1.7916
   15MOL   H25114559   0.882   1.671   5.060  1.9078 -1.3041  0.5037
   15MOL   H25214560   1.005   1.884   5.078 -1.0497  1.4946 -0.1095
   15MOL   H25314561   1.223   2.208   5.275 -1.3481 -1.4597 -1.7338
   15MOL   H25414562   1.469   2.241   5.256 -2.5547  0.1958 -0.5854
   15MOL   H25514563   1.919   2.034   5.142 -2.2238  1.1831  0.4876
   15MOL   H25614564   2.077   1.881   5.218 -0.2339 -2.1365  0.2298
   15MOL   N25714565   0.527   1.096   5.662  0.0870  0.5552 -0.3034
   15MOL   C25814566   0.640   1.152   5.715 -0.3044  0.1293 -0.2199
   15MOL   C25914567   0.770   1.098   5.682  0.3194 -0.2651  0.6798
   15MOL   C26014568   0.887   1.160   5.737  0.8997  0.4261 -0.0179
   15MOL   C26114569   0.878   1.275   5.817  0.1524  0.5619 -0.1355
   15MOL   N26214570   0.994   1.342   5.865  0.4999 -0.0687  0.5136
   15MOL   C26314571   1.086   1.386   5.773 -0.4658  0.1487 -0.7521
   15MOL   C26414572   1.225   1.361   5.798  0.5423  0.0185  0.0478
   15MOL   C26514573   1.319   1.406   5.699 -0.4142 -0.3006 -0.1180
   15MOL   C26614574   1.279   1.463   5.572  0.2112  0.1803  0.8536
   15MOL   N26714575   1.367   1.521   5.480 -0.2451 -0.7179  0.5255
   15MOL   C26814576   1.479   1.474   5.417 -0.3539 -0.0449  0.2026
   15MOL   C26914577   1.577   1.566   5.372  0.4122 -0.6071  0.0016
   15MOL   C27014578   1.695   1.512   5.314 -0.2162  0.1933 -0.2569
   15MOL   C27114579   1.704   1.372   5.292  0.0067 -0.2640 -0.1056
   15MOL   N27214580   1.823   1.327   5.237  0.6656  0.5345 -0.3336
   15MOL   C27314581   1.886   1.200   5.236 -0.4853 -0.0386 -0.7399
   15MOL   C27414582   1.849   1.102   5.326 -0.4186 -0.4549  0.1417
   15MOL   C27514583   1.912   0.973   5.313  0.6566  0.3784 -0.3721
   15MOL   C27614584   2.002   0.951   5.208  0.0478 -0.6315  0.2544
   15MOL   C27714585   2.069   0.815   5.197 -0.7491  0.0319 -0.3142
   15MOL   C27814586   2.039   1.049   5.119  0.0237  0.1805 -0.0964
   15MOL   C27914587   1.989   1.179   5.137  0.1622 -0.0049  0.1501
   15MOL   C28014588   1.601   1.286   5.312  0.3265 -0.2194  0.3751
   15MOL   C28114589   1.488   1.338   5.381  0.3172 -0.8403 -0.6256
   15MOL   C28214590   1.140   1.478   5.550 -0.3619  0.2340 -0.1017
   15MOL   C28314591   1.048   1.441   5.651  0.1151 -0.8224 -0.3366
   15MOL   C28414592   0.752   1.328   5.849 -0.2669 -0.8202 -0.1810
   15MOL   C28514593   0.632   1.269   5.795 -0.4575  0.0356  0.0734
   15MOL   H28614594   0.548   1.010   5.614 -1.6640 -1.3265  2.1628
   15MOL   H28714595   0.781   1.012   5.618 -1.5457 -0.9328  1.2019
   15MOL   H28814596   0.979   1.110   5.711 -1.5679 -3.4022 -1.9852
   15MOL   H28914597   0.989   1.411   5.938  0.1618  0.6920 -0.2200
   15MOL   H29014598   1.257   1.329   5.897  1.0847 -2.1797 -0.8017
   15MOL   H29114599   1.426   1.418   5.713  0.0676  0.0279 -3.6493
   15MOL   H29214600   1.357   1.620   5.460  1.8651 -0.5858  0.0401
   15MOL   H29314601   1.566   1.673   5.383  0.2654 -0.7542  1.2831
   15MOL   H29414602   1.782   1.574   5.296  0.3247 -1.2042 -2.7467
   15MOL   H29514603   1.883   1.393   5.191  1.3170 -0.4306 -0.8908
   15MOL   H29614604   1.771   1.118   5.400 -0.3291  3.8783 -0.5848
   15MOL   H29714605   1.896   0.907   5.396  0.2588 -1.1805 -1.6661
   15MOL   H29814606   2.124   0.813   5.103 -0.4981  1.4953 -0.2028
   15MOL   H29914607   1.989   0.741   5.192 -0.4334 -0.4127  0.9234
   15MOL   H30014608   2.113   1.033   5.042 -1.2352 -1.3333 -1.0044
   15MOL   H30114609   2.019   1.259   5.072 -3.2633  0.4949 -0.9349
   15MOL   H30214610   1.598   1.181   5.286 -2.7835 -0.7213  2.5934
   15MOL   H30314611   1.407   1.275   5.413  0.0172 -0.6849 -1.0840
   15MOL   H30414612   1.091   1.512   5.460  0.2716 -2.4412 -1.5254
   15MOL   H30514613   0.944   1.464   5.631  0.0470  0.0767  0.9608
   15MOL   H30614614   0.743   1.420   5.905 -2.5422  0.9830 -3.2850
   15MOL   H30714615   0.533   1.311   5.809 -0.4734  0.3966 -1.0614
   15MOL   N30814616   2.159   0.788   5.310  0.5033 -0.4149 -0.3615
   15MOL   C30914617   2.244   0.683   5.315  0.3693  0.5840  0.3283
   15MOL   C31014618   2.248   0.593   5.210  0.6458 -0.1277  0.4474
   15MOL   C31114619   2.343   0.486   5.210  0.2650 -0.0149 -0.5300
   15MOL   C31214620   2.437   0.477   5.318 -0.2039 -0.0505 -0.4972
   15MOL   N31314621   2.543   0.391   5.320 -0.6471  0.0124  0.1754
   15MOL   C31414622   2.572   0.307   5.427 -0.1839  0.5082  0.2543
   15MOL   C31514623   2.503   0.181   5.440  0.3094  0.7691 -0.5263
   15MOL   C31614624   2.520   0.100   5.557  0.1409 -0.4490  0.6626
   15MOL   C31714625   2.618   0.134   5.652  0.5366 -0.9181 -1.1206
   15MOL   N31814626   2.634   0.060   5.774 -0.3324 -0.0477  0.1051
   15MOL   C31914627   2.758   0.011   5.824  0.2037 -0.1577  0.1160
   15MOL   C32014628   2.772   0.003   5.961 -0.2118  0.4845  0.2218
   15MOL   C32114629   2.890   7.931   6.013  0.8951 -0.1026  0.1164
   15MOL   C32214630   3.001   7.895   5.934  0.2170  0.2582 -0.2902
   15MOL   N32314631   3.119   7.842   5.990 -0.1106  0.7878 -0.8123
   15MOL   C32414632   3.239   7.805   5.935 -0.2573 -0.3062  0.4392
   15MOL   C32514633   3.308   7.891   5.845 -0.0237  0.2491 -1.3279
   15MOL   C32614634   3.439   7.858   5.804  0.4017 -0.0311  0.3382
   15MOL   C32714635   3.496   7.735   5.835  0.8833  0.4182  0.7048
   15MOL   C32814636   3.625   7.701   5.779 -0.8917  0.6260  0.6092
   15MOL   C32914637   3.427   7.646   5.921 -0.0778 -0.2508  0.2714
   15MOL   C33014638   3.301   7.686   5.971 -0.3353  0.8830 -0.4977
   15MOL   C33114639   2.989   7.904   5.792 -0.0901  0.4496 -0.8294
   15MOL   C33214640   2.862   7.949   5.740  0.1744  0.5850 -0.0418
   15MOL   C33314641   2.696   0.249   5.636 -0.2539  0.4589 -0.3170
   15MOL   C33414642   2.672   0.339   5.525 -0.0569 -0.2895  0.6885
   15MOL   C33514643   2.415   0.560   5.428  0.1416 -0.1825 -0.2241
   15MOL   C33614644   2.327   0.670   5.424 -0.5436 -0.0036  0.2000
   15MOL   H33714645   2.132   0.843   5.390  0.6438 -0.2467 -0.4295
   15MOL   H33814646   2.181   0.605   5.126  0.7810 -0.7515  0.2497
   15MOL   H33914647   2.337   0.414   5.130 -0.6999 -0.2999 -0.2132
   15MOL   H34014648   2.575   0.362   5.229 -0.5139  2.2877 -0.5546
   15MOL   H34114649   2.435   0.152   5.362  0.9532  0.1655 -0.8737
   15MOL   H34214650   2.459   0.012   5.550 -1.2684  0.5178  0.6170
   15MOL   H34314651   2.556   0.001   5.797 -0.4970  0.5336  1.0547
   15MOL   H34414652   2.692   0.042   6.024 -0.1803  1.7896 -0.5389
   15MOL   H34514653   2.900   7.930   6.121 -0.9734  0.5802  0.3207
   15MOL   H34614654   3.105   7.786   6.073  1.7074 -0.2212 -1.1482
   15MOL   H34714655   3.264   0.005   5.823 -0.3372  0.2709 -0.6150
   15MOL   H34814656   3.489   7.924   5.734 -2.4252 -0.7020 -2.4407
   15MOL   H34914657   3.684   7.678   5.868 -0.5458 -2.9176 -0.4597
   15MOL   H35014658   3.672   7.782   5.722 -0.4783 -2.0765 -3.1238
   15MOL   H35114659   3.477   7.555   5.952 -1.7798 -1.6013 -0.9192
   15MOL   H35214660   3.262   7.624   6.050  1.6352  1.4707  1.0002
   15MOL   H35314661   3.068   7.881   5.721  2.5509  1.4611  1.6919
   15MOL   H35414662   2.855   7.963   5.633 -0.6459  0.8187  0.0346
   15MOL   H35514663   2.756   0.273   5.723 -0.1827  1.1670 -0.5586
   15MOL   H35614664   2.726   0.433   5.517  0.1605 -0.3957  0.9209
   15MOL   H35714665   2.476   0.546   5.516 -1.4564  1.8380  1.2526
   15MOL   H35814666   2.336   0.745   5.501 -0.7507 -0.3159  0.5322
   15MOL   N35914667   3.613   7.586   5.688  0.2147 -0.1359 -0.4429
   15MOL   C36014668   3.718   7.496   5.683 -0.3914  0.2930 -0.0146
   15MOL   C36114669   3.844   7.527   5.643  0.1924  0.2529  0.0243
   15MOL   C36214670   3.934   7.415   5.628  0.0519 -0.0468 -0.0731
   15MOL   C36314671   3.897   7.281   5.648 -0.7789  0.3711  0.1375
   15MOL   N36414672   3.989   7.175   5.630  0.1088 -0.1097  0.2920
   15MOL   C36514673   3.997   7.055   5.697 -0.4393  0.1595  0.7302
   15MOL   C36614674   3.972   7.049   5.838 -0.0424 -0.0268  0.3325
   15MOL   C36714675   3.996   6.926   5.909 -0.0802  0.4215 -0.0390
   15MOL   C36814676   4.034   6.810   5.838  0.1011 -0.1885 -0.1849
   15MOL   N36914677   4.045   6.681   5.893 -0.2351 -0.7415 -0.2652
   15MOL   C37014678   3.954   6.597   5.957  0.1468 -0.2646 -0.1240
   15MOL   C37114679   3.834   6.644   6.002 -0.3110 -0.2215  0.2542
   15MOL   C37214680   3.733   6.565   6.065 -0.2943 -0.0934  0.8017
   15MOL   C37314681   3.757   6.427   6.069 -0.3720 -0.4947 -0.6273
   15MOL   N37414682   3.669   6.344   6.137  0.0800  0.5550 -0.2291
   15MOL   C37514683   3.645   6.212   6.124  0.6999  0.5710  0.4371
   15MOL   C37614684   3.599   6.136   6.235 -0.7471 -0.0284 -0.1521
   15MOL   C37714685   3.571   5.999   6.227  0.1002  0.1230  0.3809
   15MOL   C37814686   3.583   5.937   6.104  0.7505 -0.1249  0.3867
   15MOL   C37914687   3.546   5.785   6.077  0.3477 -0.5094  0.4452
   15MOL   C38014688   3.626   6.017   5.994  0.7899 -0.6220  0.4618
   15MOL   C38114689   3.672   6.147   6.003  0.3251  0.9187  0.0547
   15MOL   C38214690   3.879   6.370   6.023 -0.0144 -0.4860  0.1225
   15MOL   C38314691   3.982   6.457   5.974 -0.3859 -0.2966 -0.1618
   15MOL   C38414692   4.064   6.823   5.699 -0.3953 -0.5772  0.5058
   15MOL   C38514693   4.051   6.942   5.631 -0.2200  0.1705 -0.1284
   15MOL   C38614694   3.769   7.259   5.698  0.5185 -0.2394  0.6992
   15MOL   C38714695   3.685   7.364   5.721 -0.1047 -0.4490  0.1335
   15MOL   H38814696   3.524   7.541   5.697 -0.4552  1.1635 -0.4584
   15MOL   H38914697   3.861   7.626   5.601 -0.9024  1.4056  2.2233
   15MOL   H39014698   4.037   7.422   5.598  0.5052  1.6525  1.8330
   15MOL   H39114699   4.052   7.191   5.553 -0.9215  1.3298 -0.2629
   15MOL   H39214700   3.937   7.139   5.886 -1.7467  0.8815 -2.4933
   15MOL   H39314701   3.977   6.920   6.015  2.2270 -1.7713  0.3044
   15MOL   H39414702   4.138   6.641   5.886  0.2557  0.3738 -0.2597
   15MOL   H39514703   3.806   6.748   5.999  0.7762  0.0511 -0.8063
   15MOL   H39614704   3.637   6.601   6.098  0.1049  0.7017  1.1286
   15MOL   H39714705   3.608   6.394   6.200 -1.1438 -0.6927 -0.3788
   15MOL   H39814706   3.587   6.190   6.328 -1.5983  1.3133 -1.0095
   15MOL   H39914707   3.536   5.956   6.320 -0.3278 -0.7391 -0.1730
   15MOL   H40014708   3.612   5.729   6.143  2.5158  2.0587  0.5802
   15MOL   H40114709   3.573   5.755   5.976 -0.1676 -1.3377  0.5559
   15MOL   H40214710   3.639   5.978   5.894 -3.1889  2.0997 -1.2305
   15MOL   H40314711   3.691   6.207   5.915  0.4912  1.2756  0.3360
   15MOL   H40414712   3.889   6.263   6.030 -0.3405 -0.3934  2.2336
   15MOL   H40514713   4.068   6.411   5.928  0.9419  2.0082 -0.0842
   15MOL   H40614714   4.085   6.730   5.648  1.9383 -1.5727  3.1934
   15MOL   H40714715   4.067   6.934   5.524  0.5082  0.7258 -0.0647
   15MOL   H40814716   3.744   7.157   5.722  1.6259 -0.6404  0.1521
   15MOL   H40914717   3.589   7.334   5.760  0.2857 -0.6772  0.9252
   15MOL   N41014718   3.408   5.754   6.097 -0.3393 -0.2820  0.2349
   15MOL   C41114719   3.391   5.677   6.213  0.5667  0.3029  0.0810
   15MOL   C41214720   3.430   5.541   6.221 -0.5587 -0.7132  0.6754
   15MOL   C41314721   3.383   5.454   6.318  0.3542 -0.6308  0.2546
   15MOL   C41414722   3.290   5.493   6.412 -0.0300 -0.0355 -0.0312
   15MOL   N41514723   3.237   5.400   6.504 -0.5792  0.3519  0.1447
   15MOL   C41614724   3.155   5.419   6.611  0.6022  0.3500  0.1022
   15MOL   C41714725   3.192   5.349   6.729  0.3040 -0.4085  0.7888
   15MOL   C41814726   3.105   5.363   6.839 -0.5175 -0.0777 -0.0637
   15MOL   C41914727   2.990   5.448   6.825  0.3567 -0.5532  0.4102
   15MOL   N42014728   2.919   5.471   6.936  0.3697  0.2640 -0.4059
   15MOL   C42114729   2.972   5.508   7.062 -0.2572 -0.1394  0.4559
   15MOL   C42214730   3.089   5.589   7.068 -0.1855 -0.4884 -0.4863
   15MOL   C42314731   3.140   5.623   7.195  0.0325  0.0338 -0.1394
   15MOL   C42414732   3.073   5.588   7.313  0.7334 -0.0262 -0.8900
   15MOL   N42514733   3.118   5.623   7.444 -0.3863  0.0799 -0.5165
   15MOL   C42614734   3.239   5.676   7.470 -0.3255 -0.7653  0.3059
   15MOL   C42714735   3.366   5.638   7.412 -0.1422 -0.0030 -0.7856
   15MOL   C42814736   3.483   5.705   7.449 -0.1042 -0.1559  0.7337
   15MOL   C42914737   3.476   5.817   7.538  0.1423 -0.0873  0.4839
   15MOL   C43014738   3.596   5.904   7.566  0.1643  0.5548  0.1150
   15MOL   C43114739   3.350   5.857   7.598  0.0343  1.0087  0.0802
   15MOL   C43214740   3.235   5.780   7.565  0.5018 -0.0556 -0.0734
   15MOL   C43314741   2.955   5.517   7.307  0.0741 -0.4373 -0.1580
   15MOL   C43414742   2.907   5.476   7.183  0.6433 -0.1804  0.3626
   15MOL   C43514743   2.961   5.510   6.707  0.2129 -0.3813  0.6479
   15MOL   C43614744   3.043   5.496   6.596 -0.0386  0.0212 -0.2706
   15MOL   C43714745   3.262   5.633   6.420 -0.2576 -0.0458 -0.3578
   15MOL   C43814746   3.304   5.716   6.316  0.1978 -0.5016 -0.2436
   15MOL   H43914747   3.366   5.846   6.091 -0.0430 -0.2576 -1.6825
   15MOL   H44014748   3.493   5.500   6.143 -0.5088  0.3457  0.1615
   15MOL   H44114749   3.414   5.351   6.310  0.9337 -0.4619  0.2922
   15MOL   H44214750   3.265   5.303   6.500 -0.5882  0.3570 -0.0345
   15MOL   H44314751   3.285   5.294   6.727  0.1553 -0.6318 -0.3527
   15MOL   H44414752   3.137   5.326   6.935 -0.4183  1.5325  0.5308
   15MOL   H44514753   2.829   5.426   6.945 -0.0344  1.4001  1.6186
   15MOL   H44614754   3.138   5.613   6.974 -0.9336 -2.8549 -1.5136
   15MOL   H44714755   3.234   5.675   7.208  0.4304 -0.2270 -1.8541
   15MOL   H44814756   3.055   5.663   7.511  1.5445  2.7990 -0.2333
   15MOL   H44914757   3.368   5.554   7.345  0.1879 -0.7659  0.1816
   15MOL   H45014758   3.577   5.671   7.407 -0.1750  0.4134  0.1033
   15MOL   H45114759   3.658   5.904   7.476  1.4479 -1.3188  0.9510
   15MOL   H45214760   3.646   5.852   7.649 -0.7105 -0.7266 -0.1456
   15MOL   H45314761   3.342   5.933   7.675 -1.6327  1.2550 -0.3330
   15MOL   H45414762   3.143   5.801   7.617  0.3421  1.1725 -0.8624
   15MOL   H45514763   2.901   5.481   7.394 -1.4716 -3.6774 -2.3440
   15MOL   H45614764   2.817   5.416   7.179  0.7715 -0.4381  1.1461
   15MOL   H45714765   2.875   5.574   6.693  0.2224 -0.6437 -0.6298
   15MOL   H45814766   3.013   5.551   6.508 -0.8303  0.1014  0.0411
   15MOL   H45914767   3.217   5.681   6.506  1.0391 -0.2209  0.4360
   15MOL   H46014768   3.281   5.822   6.324  1.6320 -0.2301  0.3192
   15MOL   N46114769   3.571   6.036   7.610  0.2294 -0.1915  0.2519
   15MOL   C46214770   3.494   6.135   7.536  0.2460  0.3723 -0.4175
   15MOL   C46314771   3.486   6.267   7.595 -0.2996  0.5576 -0.1924
   15MOL   C46414772   3.420   6.371   7.530 -0.2844 -0.7279  0.4248
   15MOL   C46514773   3.361   6.349   7.401 -0.1310 -0.4206 -0.0510
   15MOL   N46614774   3.293   6.456   7.344 -0.2474  0.2051 -0.1431
   15MOL   C46714775   3.223   6.477   7.224  0.1002 -0.2898  0.1248
   15MOL   C46814776   3.104   6.557   7.233  0.8095 -0.0885  0.0377
   15MOL   C46914777   3.031   6.594   7.120 -0.5286 -0.4816  0.1189
   15MOL   C47014778   3.078   6.559   6.992 -1.1305 -0.0108 -0.1650
   15MOL   N47114779   3.016   6.601   6.876  0.9234 -0.6090  0.8047
   15MOL   C47214780   3.079   6.660   6.768  0.1424 -0.3737  0.7637
   15MOL   C47314781   3.210   6.717   6.773 -0.4770 -0.4395 -0.2487
   15MOL   C47414782   3.245   6.798   6.668 -0.5112 -0.0712  0.6763
   15MOL   C47514783   3.181   6.790   6.536  0.0426  0.1715 -0.1107
   15MOL   N47614784   3.241   6.854   6.426  0.1877  0.0601 -0.2120
   15MOL   C47714785   3.257   6.997   6.406  0.0693 -0.1345  0.2963
   15MOL   C47814786   3.264   7.089   6.514  0.7175 -0.5485  0.4878
   15MOL   C47914787   3.290   7.228   6.496  0.2877  0.2828 -1.0398
   15MOL   C48014788   3.309   7.280   6.365  0.5017 -0.3535  0.2447
   15MOL   C48114789   3.309   7.429   6.345 -0.2159  0.2401  0.8265
   15MOL   C48214790   3.295   7.193   6.257  0.0169 -0.2307  0.0150
   15MOL   C48314791   3.270   7.052   6.277  0.5580 -0.0122  0.0143
   15MOL   C48414792   3.065   6.715   6.530 -0.0917  0.4629 -0.0657
   15MOL   C48514793   3.009   6.661   6.645 -0.7388  0.5896  0.8090
   15MOL   C48614794   3.201   6.483   6.984  0.3193  0.6284  0.1987
   15MOL   C48714795   3.269   6.441   7.093  0.9405  0.1644 -0.3662
   15MOL   C48814796   3.359   6.217   7.344  0.0166  0.0160 -0.6174
   15MOL   C48914797   3.434   6.110   7.406 -0.2633 -0.0339 -0.2322
   15MOL   H49014798   3.643   6.074   7.670 -0.6203 -1.1328  1.8781
   15MOL   H49114799   3.529   6.285   7.693 -1.8878  1.3431  0.3751
   15MOL   H49214800   3.423   6.466   7.582 -0.1441 -0.8925  0.7226
   15MOL   H49314801   3.260   6.524   7.411 -0.9070 -0.9609  0.7361
   15MOL   H49414802   3.064   6.592   7.327  1.8581 -2.5358  1.4330
   15MOL   H49514803   2.941   6.653   7.124  0.1275  1.0087 -4.4139
   15MOL   H49614804   2.921   6.636   6.879 -0.0301 -3.1051  0.7847
   15MOL   H49714805   3.267   6.717   6.865 -2.0353  0.5360  0.7561
   15MOL   H49814806   3.342   6.846   6.666  0.8687 -2.7943 -3.0787
   15MOL   H49914807   3.225   6.798   6.344 -0.2801  0.5292 -0.4463
   15MOL   H50014808   3.250   7.052   6.615 -1.3801 -0.4853  0.2429
   15MOL   H50114809   3.304   7.297   6.579  0.1021  0.1756 -0.9192
   15MOL   H50214810   3.413   7.446   6.314 -0.8082  0.0556 -1.3675
   15MOL   H50314811   3.298   7.479   6.441  0.1611  0.9092  0.5261
   15MOL   H50414812   3.296   7.225   6.154  2.2446  1.2969  0.4524
   15MOL   H50514813   3.260   6.988   6.190 -1.6661 -0.2505  0.4056
   15MOL   H50614814   3.004   6.716   6.441 -2.9797  0.3014  1.8386
   15MOL   H50714815   2.915   6.609   6.645 -1.2839  1.5468  0.1851
   15MOL   H50814816   3.239   6.458   6.886 -1.3437 -0.1195 -0.2876
   15MOL   H50914817   3.363   6.388   7.081  1.5269  1.1665 -0.3063
   15MOL   H51014818   3.302   6.180   7.260 -1.8898 -0.9796  1.0649
   15MOL   H51114819   3.421   6.010   7.369  0.5423  0.2792 -1.3998
   15MOL   N51214820   3.204   7.469   6.261  0.1427 -0.4860  0.0280
   15MOL   C51314821   3.134   7.582   6.304 -0.3909  0.1892 -0.2565
   15MOL   C51414822   3.201   7.701   6.338  0.0439 -0.1173  0.3607
   15MOL   C51514823   3.129   7.821   6.358  0.3682  0.4868 -0.3512
   15MOL   C51614824   2.990   7.814   6.355 -0.0900 -0.7567 -0.4330
   15MOL   N51714825   2.931   7.942   6.379  0.3427 -0.6302 -0.4316
   15MOL   C51814826   2.798   0.009   6.358  0.2708 -0.0053 -0.0510
   15MOL   C51914827   2.682   7.915   6.381  0.0510 -0.2508  0.2946
   15MOL   C52014828   2.551   7.962   6.349 -0.4175  0.2609  0.4058
   15MOL   C52114829   2.541   0.103   6.276 -0.1270  0.9505 -0.4178
   15MOL   N52214830   2.412   0.143   6.245  0.5206  0.1956 -0.0016
   15MOL   C52314831   2.355   0.272   6.231 -0.4498 -0.7403  0.2204
   15MOL   C52414832   2.229   0.271   6.164 -0.1310 -0.7556  0.2662
   15MOL   C52514833   2.153   0.385   6.152  0.0067  0.4321 -0.2634
   15MOL   C52614834   2.203   0.509   6.196 -0.5780  0.3977 -0.1393
   15MOL   N52714835   2.142   0.623   6.162  0.5162  0.3578 -0.3162
   15MOL   C52814836   2.135   0.744   6.238  0.5432  0.3373  0.3628
   15MOL   C52914837   2.128   0.861   6.170  0.2765 -0.0009 -0.3433
   15MOL   C53014838   2.106   0.980   6.243  0.2226 -0.3090  0.2773
   15MOL   C53114839   2.102   0.981   6.383 -0.3254 -0.4717 -0.0805
   15MOL   C53214840   2.085   1.114   6.464  0.6064  0.0353 -0.4201
   15MOL   C53314841   2.116   0.864   6.451  0.2732  0.2067 -0.1136
   15MOL   C53414842   2.124   0.742   6.381 -0.3411 -0.3532  0.7954
   15MOL   C53514843   2.324   0.510   6.263  0.4106 -0.1825  0.8619
   15MOL   C53614844   2.404   0.394   6.284 -0.3049  0.0243 -0.1241
   15MOL   C53714845   2.653   0.193   6.265 -0.0136 -0.2552 -0.8380
   15MOL   C53814846   2.781   0.142   6.308  0.9338  0.0433 -0.1460
   15MOL   C53914847   2.926   7.692   6.320 -0.3061 -1.0591  0.6155
   15MOL   C54014848   2.993   7.574   6.290  0.0765  0.3855 -0.5367
   15MOL   H54114849   3.149   7.394   6.221 -0.4805  1.3197 -2.6011
   15MOL   H54214850   3.308   7.693   6.350  0.2315  1.3845 -0.2091
   15MOL   H54314851   3.186   7.908   6.385  1.5815  1.1965 -4.8079
   15MOL   H54414852   3.003   0.029   6.392  1.0879 -1.6986  1.3613
   15MOL   H54514853   2.682   7.817   6.426  1.5780 -2.3059 -3.9568
   15MOL   H54614854   2.468   7.895   6.368 -1.7515  1.1523 -2.1690
   15MOL   H54714855   2.347   0.066   6.248 -0.0213  0.6335 -0.4702
   15MOL   H54814856   2.188   0.181   6.121  1.2544 -0.3509 -1.9562
   15MOL   H54914857   2.062   0.368   6.096  0.5492 -1.0131 -0.7273
   15MOL   H55014858   2.131   0.640   6.063 -1.8526 -0.6093 -0.2697
   15MOL   H55114859   2.127   0.872   6.062 -1.4910 -2.2789 -0.5821
   15MOL   H55214860   2.103   1.072   6.186 -2.4203 -2.3068 -2.9832
   15MOL   H55314861   2.168   1.180   6.438 -1.0992  2.1527 -0.7119
   15MOL   H55414862   2.097   1.091   6.570 -2.0464 -3.6428 -0.7941
   15MOL   H55514863   2.106   0.862   6.558  1.7762  2.2541  0.1087
   15MOL   H55614864   2.123   0.646   6.432  0.2351 -1.0601 -0.4957
   15MOL   H55714865   2.364   0.605   6.294  1.0259  0.7269 -2.5674
   15MOL   H55814866   2.498   0.390   6.337 -0.0137 -1.8642 -0.7420
   15MOL   H55914867   2.653   0.295   6.229  0.3505  0.2420  0.5418
   15MOL   H56014868   2.863   0.208   6.283 -0.2567  0.7280 -2.4237
   15MOL   H56114869   2.819   7.681   6.321 -0.4681 -0.1181 -1.7860
   15MOL   H56214870   2.945   7.479   6.275  0.5220 -0.1317  1.1666
   15MOL   N56314871   1.961   1.185   6.434 -0.3276  0.2020 -0.0321
   15MOL   C56414872   1.923   1.292   6.512 -0.2463 -0.3189 -0.7274
   15MOL   C56514873   2.008   1.353   6.603  0.0436 -0.6945  0.4654
   15MOL   C56614874   1.964   1.467   6.671  0.4881 -0.3586  0.1746
   15MOL   C56714875   1.843   1.527   6.642 -0.2665  0.0246 -0.4735
   15MOL   N56814876   1.802   1.641   6.716 -0.3368  0.0227 -0.0972
   15MOL   C56914877   1.867   1.765   6.733 -0.3682 -0.2302  0.4722
   15MOL   C57014878   1.796   1.869   6.793 -0.3158 -0.6313  0.2706
   15MOL   C57114879   1.851   2.001   6.801  0.0420 -0.9861  0.5797
   15MOL   C57214880   1.975   2.030   6.737  0.3469  0.1350  0.9298
   15MOL   N57314881   2.023   2.159   6.731  0.1497 -0.1954 -0.4382
   15MOL   C57414882   2.154   2.197   6.744  0.8212 -0.6224 -0.9660
   15MOL   C57514883   2.203   2.293   6.653  0.2788  0.0788 -0.2788
   15MOL   C57614884   2.340   2.335   6.677 -0.7582 -0.5350  0.1774
   15MOL   C57714885   2.421   2.273   6.770 -0.2122  0.0435  0.2222
   15MOL   N57814886   2.557   2.311   6.781 -0.0428 -0.0254 -0.6243
   15MOL   C57914887   2.667   2.269   6.697  0.0330 -0.1537  0.4409
   15MOL   C58014888   2.799   2.310   6.730  0.5779  0.2018  0.5640
   15MOL   C58114889   2.908   2.268   6.651  0.2345  0.0008  0.2432
   15MOL   C58214890   2.885   2.186   6.535 -0.3212  1.4450 -0.4863
   15MOL   C58314891   3.004   2.131   6.453  0.5470  0.0087  0.8069
   15MOL   C58414892   2.754   2.164   6.497  0.5015  0.0917 -0.4357
   15MOL   C58514893   2.650   2.199   6.579 -1.0406  0.4662  0.4555
   15MOL   C58614894   2.373   2.175   6.853  0.3278 -0.0500 -0.0389
   15MOL   C58714895   2.236   2.139   6.842  0.0962  0.2248  0.4422
   15MOL   C58814896   2.052   1.924   6.691 -0.2792  0.4581  0.1554
   15MOL   C58914897   1.995   1.792   6.680  0.1348 -0.1417 -0.1608
   15MOL   C59014898   1.756   1.461   6.557  0.7257  0.3181  0.2206
   15MOL   C59114899   1.795   1.344   6.485 -0.0137 -0.2674  0.3737
   15MOL   H59214900   1.894   1.150   6.366  1.9148  0.1895 -2.3082
   15MOL   H59314901   2.114   1.337   6.615  0.2679 -0.3714 -1.0298
   15MOL   H59414902   2.023   1.524   6.741 -1.8743  2.6039 -0.1509
   15MOL   H59514903   1.702   1.652   6.724 -0.6682 -1.3743 -1.8895
   15MOL   H59614904   1.705   1.847   6.847  0.1861 -1.2168  0.8793
   15MOL   H59714905   1.785   2.073   6.847 -0.0079 -0.3728 -0.4398
   15MOL   H59814906   1.954   2.227   6.704 -0.3909 -2.1759 -4.4293
   15MOL   H59914907   2.140   2.343   6.581  0.8394  1.5614  0.2405
   15MOL   H60014908   2.379   2.398   6.598 -4.3595  0.5723 -0.7963
   15MOL   H60114909   2.575   2.378   6.855  0.8326 -1.1976  0.2477
   15MOL   H60214910   2.816   2.375   6.814 -0.1890  1.8149 -0.5080
   15MOL   H60314911   3.006   2.291   6.689  0.1272 -0.1105  0.5911
   15MOL   H60414912   3.067   2.216   6.426  0.6654 -0.0842  0.7892
   15MOL   H60514913   2.968   2.090   6.359  0.7487  1.4523  0.0825
   15MOL   H60614914   2.721   2.100   6.417  3.0185 -0.4492 -1.0625
   15MOL   H60714915   2.547   2.184   6.551 -0.5543  0.5023 -1.4825
   15MOL   H60814916   2.431   2.140   6.937 -0.9880 -0.9257  0.5152
   15MOL   H60914917   2.199   2.063   6.909  0.4765  0.0437  0.4474
   15MOL   H61014918   2.152   1.929   6.651 -1.3496  0.2358 -2.6457
   15MOL   H61114919   2.056   1.714   6.636  1.2700  0.1094  0.9621
   15MOL   H61214920   1.656   1.498   6.541  0.9103  1.2459  1.2304
   15MOL   H61314921   1.726   1.295   6.418  1.2798 -0.9813 -0.4298
   15MOL   N61414922   3.075   2.026   6.528  0.3107 -0.4589  0.6448
   15MOL   C61514923   3.171   1.954   6.459 -0.0482 -0.1559 -0.0473
   15MOL   C61614924   3.251   2.014   6.357  0.2896  0.4012  0.0661
   15MOL   C61714925   3.342   1.929   6.290  0.0818  0.0290 -0.0289
   15MOL   C61814926   3.354   1.797   6.320  0.3367  0.3290 -0.3685
   15MOL   N61914927   3.430   1.725   6.235  0.0449 -0.3390  0.3456
   15MOL   C62014928   3.536   1.649   6.271 -0.5185  0.4721 -0.4050
   15MOL   C62114929   3.567   1.616   6.409 -0.2663 -0.4694  0.0505
   15MOL   C62214930   3.690   1.549   6.430  0.0929  0.6129 -0.1260
   15MOL   C62314931   3.779   1.510   6.329  0.5334  0.3416 -0.5611
   15MOL   N62414932   3.892   1.437   6.369 -0.2527 -0.8717 -0.2819
   15MOL   C62514933   4.005   1.412   6.288  0.9289 -0.6556 -0.6662
   15MOL   C62614934   4.070   1.287   6.300 -0.2788  0.2980 -0.3810
   15MOL   C62714935   4.184   1.259   6.213 -0.5484 -0.7058 -0.4353
   15MOL   C62814936   4.225   1.355   6.119  0.3805 -0.2246 -0.6071
   15MOL   N62914937   4.342   1.332   6.046 -0.2453  0.3134 -0.4770
   15MOL   C63014938   4.461   1.403   6.037  0.0486  0.1688 -0.3355
   15MOL   C63114939   4.506   1.495   6.139  0.6717  0.0545  0.4726
   15MOL   C63214940   4.618   1.582   6.124 -0.6812  0.7475  0.4331
   15MOL   C63314941   4.692   1.572   6.002 -0.0659  0.2611 -0.2453
   15MOL   C63414942   4.792   1.680   5.964 -0.4808 -0.2825  0.0695
   15MOL   C63514943   4.646   1.485   5.900 -0.7729  0.2249 -0.5808
   15MOL   C63614944   4.536   1.395   5.915 -0.6255 -0.0003 -0.3131
   15MOL   C63714945   4.162   1.481   6.108  0.0968  0.0555 -0.2133
   15MOL   C63814946   4.055   1.512   6.195 -0.0151  0.1258 -0.0308
   15MOL   C63914947   3.739   1.534   6.200  0.1505 -0.8756  0.1976
   15MOL   C64014948   3.618   1.602   6.172 -0.1604  0.4498  0.7090
   15MOL   C64114949   3.282   1.738   6.423  0.1770  0.2297 -0.2401
   15MOL   C64214950   3.192   1.816   6.492  0.4192  0.6382 -0.5319
   15MOL   H64314951   3.019   1.974   6.594  0.2337 -1.6688 -0.3623
   15MOL   H64414952   3.227   2.115   6.329  1.3105  0.9539  1.1096
   15MOL   H64514953   3.406   1.986   6.224 -1.0084  1.7922  0.4079
   15MOL   H64614954   3.403   1.757   6.143 -0.6953  3.0800  1.6597
   15MOL   H64714955   3.510   1.636   6.499  0.6853  2.2070  0.0897
   15MOL   H64814956   3.704   1.512   6.530  0.0932 -0.7184 -0.5985
   15MOL   H64914957   3.880   1.395   6.460 -1.0446  1.2072  0.5962
   15MOL   H65014958   4.042   1.214   6.374  0.2481  0.7278  0.2533
   15MOL   H65114959   4.233   1.164   6.223  0.3581 -0.2068 -0.0725
   15MOL   H65214960   4.362   1.233   6.042  2.3798  0.7590  1.1180
   15MOL   H65314961   4.438   1.504   6.223 -0.4868 -0.9140 -0.3448
   15MOL   H65414962   4.649   1.653   6.199  2.5780  0.9800 -1.0373
   15MOL   H65514963   4.803   1.751   6.045 -0.9800 -0.2248  0.0841
   15MOL   H65614964   4.749   1.735   5.881 -0.3844 -0.4511 -0.0956
   15MOL   H65714965   4.692   1.486   5.802  0.2510 -0.0188 -0.1090
   15MOL   H65814966   4.503   1.346   5.824 -1.6569  1.2549 -0.6226
   15MOL   H65914967   4.190   1.547   6.028  2.3851  1.1069  1.4247
   15MOL   H66014968   4.016   1.613   6.190  1.5286  0.6444 -2.4932
   15MOL   H66114969   3.812   1.504   6.126 -1.4498  0.4590 -1.9873
   15MOL   H66214970   3.592   1.625   6.070 -1.4284 -2.8610  0.2196
   15MOL   H66314971   3.293   1.631   6.423 -1.7765 -0.0153  1.7915
   15MOL   H66414972   3.125   1.767   6.561  1.2823 -0.6120 -0.5613
   15MOL   N66514973   4.921   1.633   5.925 -0.1846 -0.6156 -0.3301
   15MOL   C66614974   5.010   1.731   5.895  0.1042 -0.2046  0.3193
   15MOL   C66714975   5.132   1.716   5.962  0.3125  0.1085  0.2170
   15MOL   C66814976   5.226   1.813   5.950  0.2014 -0.0266 -0.6451
   15MOL   C66914977   5.215   1.914   5.851 -0.1290 -0.0921  0.4645
   15MOL   N67014978   5.320   2.003   5.845 -0.0881  0.1024  0.1923
   15MOL   C67114979   5.336   2.126   5.774  0.1296  0.5881 -0.5365
   15MOL   C67214980   5.229   2.211   5.767  0.0353 -0.2339 -0.2988
   15MOL   C67314981   5.240   2.330   5.703 -0.2271  0.2485 -0.3265
   15MOL   C67414982   5.363   2.371   5.650  0.2760 -0.5236  0.3391
   15MOL   N67514983   5.385   2.491   5.588 -0.0596  0.3323 -0.7423
   15MOL   C67614984   5.292   2.567   5.514 -0.9714  0.3407 -0.3262
   15MOL   C67714985   5.302   2.575   5.374  0.6730  0.2312 -1.2397
   15MOL   C67814986   5.206   2.643   5.296 -0.2949 -0.7532  0.9566
   15MOL   C67914987   5.097   2.709   5.354  0.0596 -0.2810  1.1555
   15MOL   N68014988   5.001   2.761   5.265 -1.2463  0.8654 -0.0146
   15MOL   C68114989   4.862   2.732   5.262 -0.3258 -0.4477  0.0545
   15MOL   C68214990   4.802   2.637   5.349 -0.1574 -0.4435 -0.7171
   15MOL   C68314991   4.668   2.604   5.332 -0.7316 -0.3288  0.1626
   15MOL   C68414992   4.583   2.667   5.231  1.4232 -0.2667  0.1345
   15MOL   C68514993   4.428   2.643   5.232  0.4453 -0.6003  0.3784
   15MOL   C68614994   4.648   2.761   5.146 -0.3602  0.6113  0.3713
   15MOL   C68714995   4.783   2.793   5.164  0.9075  0.5982 -0.0495
   15MOL   C68814996   5.090   2.703   5.494  0.0637  0.8616 -0.3927
   15MOL   C68914997   5.186   2.639   5.573  0.7921  0.2278 -0.1987
   15MOL   C69014998   5.476   2.286   5.658 -0.1646  0.0851  0.8411
   15MOL   C69114999   5.457   2.167   5.726 -0.3755  1.1648 -0.2370
   15MOL   C69215000   5.093   1.928   5.784  0.3946 -0.0020 -0.3849
   15MOL   C69315001   4.989   1.837   5.805  0.1851  0.1636  0.1490
   15MOL   H69415002   4.969   1.577   5.993  0.2198 -0.3050 -0.3563
   15MOL   H69515003   5.160   1.627   6.016 -0.8658 -0.5580 -0.2493
   15MOL   H69615004   5.318   1.802   6.007 -1.2241  1.0757  1.9759
   15MOL   H69715005   5.393   1.973   5.909 -1.0516 -0.6664  0.9455
   15MOL   H69815006   5.140   2.181   5.820  0.4826 -0.4642  0.3233
   15MOL   H69915007   5.156   2.398   5.695 -0.7866 -0.1368  2.0452
   15MOL   H70015008   5.483   2.505   5.569  0.5645 -0.0273  2.0205
   15MOL   H70115009   5.377   2.517   5.322 -0.4544 -1.7240 -0.7680
   15MOL   H70215010   5.202   2.637   5.188 -0.3015  0.3949  0.8870
   15MOL   H70315011   5.034   2.806   5.181 -0.1168  1.5097  0.7673
   15MOL   H70415012   4.862   2.574   5.413  0.0088 -2.4605 -2.7888
   15MOL   H70515013   4.628   2.535   5.404 -1.2395  2.8450  3.0734
   15MOL   H70615014   4.396   2.563   5.165 -0.6750  0.4864 -0.3958
   15MOL   H70715015   4.375   2.728   5.190 -1.3393 -1.3993  0.9571
   15MOL   H70815016   4.573   2.817   5.091 -0.7571 -0.9397 -0.7001
   15MOL   H70915017   4.820   2.869   5.097  1.7204  0.7179  0.5314
   15MOL   H71015018   5.012   2.750   5.552 -0.6278  0.3182 -0.8652
   15MOL   H71115019   5.172   2.645   5.680 -0.1879  1.1628 -0.3738
   15MOL   H71215020   5.569   2.318   5.613 -1.4755  2.4547 -0.3012
   15MOL   H71315021   5.539   2.098   5.738 -0.6812  1.0154  1.1556
   15MOL   H71415022   5.084   2.003   5.707  1.9327 -0.5426 -1.1083
   15MOL   H71515023   4.898   1.850   5.748 -0.9246 -0.8296  1.6548
   15MOL   N71615024   4.374   2.607   5.361 -0.2553  0.8951  0.2852
   15MOL   C71715025   4.369   2.480   5.418  0.5369  0.4495 -0.4259
   15MOL   C71815026   4.307   2.475   5.547  0.0950 -0.0126 -0.1641
   15MOL   C71915027   4.268   2.355   5.607 -0.2607  0.0269  0.3723
   15MOL   C72015028   4.295   2.235   5.537 -1.7091  0.4208  0.6939
   15MOL   N72115029   4.244   2.112   5.582 -0.2355  0.1609 -0.4748
   15MOL   C72215030   4.199   2.087   5.709  0.3918 -0.6542  0.6602
   15MOL   C72315031   4.070   2.049   5.735  0.1944 -0.0430 -0.0597
   15MOL   C72415032   4.030   2.022   5.865  0.6455  0.5208 -0.2495
   15MOL   C72515033   4.118   2.040   5.976 -0.3568 -0.2698 -0.9164
   15MOL   N72615034   4.093   2.013   6.109 -0.0876  0.3698 -0.4002
   15MOL   C72715035   3.975   2.031   6.179 -0.2453 -0.3007 -0.2217
   15MOL   C72815036   3.970   2.113   6.298 -0.0945 -0.2686  0.4777
   15MOL   C72915037   3.853   2.111   6.377  0.2244  0.5280 -0.0059
   15MOL   C73015038   3.747   2.030   6.348 -0.0133  0.1097 -0.4548
   15MOL   N73115039   3.638   2.012   6.430 -0.6991 -0.0017  0.3279
   15MOL   C73215040   3.571   2.097   6.509 -0.0489 -0.8116  0.5321
   15MOL   C73315041   3.502   2.053   6.618  0.2445  0.3618  0.2921
   15MOL   C73415042   3.437   2.150   6.699  0.1075 -0.0405 -0.1163
   15MOL   C73515043   3.434   2.284   6.659  0.4301 -0.6087 -0.4085
   15MOL   C73615044   3.340   2.380   6.743  0.0316 -0.5709  0.9611
   15MOL   C73715045   3.498   2.328   6.542 -0.1052 -0.4130  0.7659
   15MOL   C73815046   3.571   2.236   6.471 -0.0550  0.0605  0.4273
   15MOL   C73915047   3.743   1.962   6.230  0.0016  0.4024  0.2788
   15MOL   C74015048   3.858   1.956   6.144  0.3383 -0.2419  0.0154
   15MOL   C74115049   4.246   2.083   5.946 -0.7019 -0.4413 -0.0920
   15MOL   C74215050   4.291   2.109   5.818  0.1511 -0.3828  0.0925
   15MOL   C74315051   4.354   2.242   5.411  0.8811  0.7360  0.5016
   15MOL   C74415052   4.391   2.361   5.349 -0.5052  0.5171  0.4525
   15MOL   H74515053   4.362   2.685   5.424 -2.5323 -0.1694  1.2464
   15MOL   H74615054   4.275   2.567   5.593 -1.3191 -1.0424  0.9424
   15MOL   H74715055   4.211   2.376   5.696 -0.3891  2.1723 -0.1790
   15MOL   H74815056   4.224   2.040   5.514  1.0025 -2.2279  1.6269
   15MOL   H74915057   3.998   2.038   5.655  0.9190 -0.3994 -0.6682
   15MOL   H75015058   3.933   1.978   5.879  0.6830  0.5233  0.0282
   15MOL   H75115059   4.171   2.004   6.173  1.1328  2.6413 -1.4907
   15MOL   H75215060   4.057   2.163   6.339 -0.6895 -0.4981  2.0629
   15MOL   H75315061   3.841   2.154   6.476  0.6819 -1.4032  0.9011
   15MOL   H75415062   3.627   1.914   6.452  1.7036 -0.0760  1.3697
   15MOL   H75515063   3.496   1.954   6.660  1.5056  0.6828  1.2624
   15MOL   H75615064   3.375   2.133   6.785  0.1736 -0.4396 -0.1494
   15MOL   H75715065   3.375   2.385   6.847  0.7902  0.9979  0.6507
   15MOL   H75815066   3.242   2.334   6.735 -0.0302 -0.1040 -1.0721
   15MOL   H75915067   3.486   2.431   6.512 -3.1867 -0.8656  0.2917
   15MOL   H76015068   3.608   2.269   6.375  1.2409  1.9626  1.5276
   15MOL   H76115069   3.656   1.905   6.200 -0.5619  2.0471 -1.2485
   15MOL   H76215070   3.843   1.890   6.061 -0.3301  1.0701 -0.9259
   15MOL   H76315071   4.316   2.083   6.028  0.6567 -0.6926 -1.2431
   15MOL   H76415072   4.392   2.141   5.801 -0.2659  1.0950  0.3848
   15MOL   H76515073   4.379   2.152   5.356  0.0950  2.6509 -3.1517
   15MOL   H76615074   4.447   2.354   5.257 -0.6134 -2.5493  0.5680
   15MOL   N76715075   3.343   2.524   6.705  0.4145 -0.3613  0.0612
   15MOL   C76815076   3.229   2.574   6.638  0.1535  0.2870  0.4015
   15MOL   C76915077   3.153   2.492   6.552  0.4035 -0.5263 -0.1015
   15MOL   C77015078   3.043   2.537   6.480 -0.0261  0.0394  0.9034
   15MOL   C77115079   3.008   2.675   6.498 -0.1130 -0.0111 -0.2752
   15MOL   N77215080   2.909   2.733   6.418  0.1949 -0.0107  0.6031
   15MOL   C77315081   2.794   2.668   6.371 -0.8100 -0.0444  0.6625
   15MOL   C77415082   2.738   2.698   6.243  0.2079 -0.3757 -0.0865
   15MOL   C77515083   2.618   2.645   6.202  0.6802 -0.6572  0.0026
   15MOL   C77615084   2.544   2.560   6.289 -0.2351 -0.2080  0.0598
   15MOL   N77715085   2.425   2.508   6.244  0.0072  0.1763  0.2342
   15MOL   C77815086   2.370   2.380   6.279  0.6253 -0.1083 -0.3688
   15MOL   C77915087   2.455   2.268   6.293  0.3041  0.1699  0.4251
   15MOL   C78015088   2.400   2.147   6.340 -0.1687  0.7800  0.4826
   15MOL   C78115089   2.264   2.131   6.367  0.2269  0.9410  0.6158
   15MOL   N78215090   2.225   2.006   6.428  0.1908 -0.0672 -0.2167
   15MOL   C78315091   2.305   1.895   6.457 -0.2923  0.1219  0.2172
   15MOL   C78415092   2.411   1.906   6.556  0.6674 -0.0901  0.2185
   15MOL   C78515093   2.485   1.791   6.570 -0.1673 -0.0135 -0.0206
   15MOL   C78615094   2.467   1.683   6.489  0.8612 -0.4812 -0.1405
   15MOL   C78715095   2.555   1.564   6.513  0.2539  0.2704 -0.4173
   15MOL   C78815096   2.362   1.676   6.394 -0.7642 -0.1760 -0.1773
   15MOL   C78915097   2.275   1.785   6.382 -0.6606 -0.5045 -0.2613
   15MOL   C79015098   2.181   2.231   6.329  0.2420 -0.2494 -0.4368
   15MOL   C79115099   2.229   2.357   6.290 -0.1226 -0.4498  0.1079
   15MOL   C79215100   2.597   2.534   6.416 -0.6411 -0.0416  0.9864
   15MOL   C79315101   2.724   2.581   6.450  0.1706  0.1177  0.8538
   15MOL   C79415102   3.077   2.758   6.586 -0.3760 -0.3213  0.2315
   15MOL   C79515103   3.188   2.706   6.653  0.8248  0.2989  0.0023
   15MOL   H79615104   3.388   2.569   6.784  1.1703 -0.4793 -0.3035
   15MOL   H79715105   3.192   2.394   6.526 -1.7704 -1.6168  0.6608
   15MOL   H79815106   2.991   2.485   6.400  0.3436  4.4287 -2.3855
   15MOL   H79915107   2.925   2.830   6.394 -2.3933  0.5053  0.8309
   15MOL   H80015108   2.795   2.759   6.174 -0.7056  1.0883  0.4206
   15MOL   H80115109   2.585   2.672   6.103  0.7842  1.1234  0.4431
   15MOL   H80215110   2.390   2.544   6.156  1.9059  0.8573 -0.2839
   15MOL   H80315111   2.560   2.282   6.273  0.1586  1.3710  0.4929
   15MOL   H80415112   2.484   2.082   6.359  1.4452  2.0045 -2.1021
   15MOL   H80515113   2.129   2.011   6.461  0.1912 -1.4680  0.0035
   15MOL   H80615114   2.430   1.997   6.610  0.6560 -0.2109  0.4262
   15MOL   H80715115   2.574   1.796   6.630  1.0512 -0.3909 -1.7692
   15MOL   H80815116   2.604   1.557   6.610  2.3502  0.8320 -1.4078
   15MOL   H80915117   2.630   1.584   6.436 -0.8532  0.3773 -1.4809
   15MOL   H81015118   2.347   1.582   6.343 -1.0850 -1.0779  1.5604
   15MOL   H81115119   2.190   1.784   6.315 -0.7487 -0.4946 -0.1513
   15MOL   H81215120   2.075   2.221   6.348  0.5931 -0.8331  1.3204
   15MOL   H81315121   2.161   2.435   6.259 -1.6083 -0.9039  2.0904
   15MOL   H81415122   2.555   2.469   6.492 -1.2900 -0.7966 -0.0004
   15MOL   H81515123   2.743   2.552   6.552 -1.6335 -2.1319  0.5840
   15MOL   H81615124   3.039   2.856   6.610  0.6718  0.6019 -1.8096
   15MOL   H81715125   3.246   2.776   6.711  1.0021  1.0809 -1.0912
   15MOL   N81815126   2.507   1.431   6.463 -0.6200  0.5208  0.0438
   15MOL   C81915127   2.453   1.348   6.564 -0.5517 -0.7339  0.4695
   15MOL   C82015128   2.394   1.398   6.683  0.2639 -0.1553  0.4614
   15MOL   C82115129   2.346   1.304   6.777 -0.2026 -0.0918  0.7193
   15MOL   C82215130   2.341   1.160   6.752 -0.1712 -0.4666 -0.6279
   15MOL   N82315131   2.287   1.071   6.844 -0.3101 -0.2477 -0.0680
   15MOL   C82415132   2.242   1.093   6.973  0.5958 -0.1722 -0.9543
   15MOL   C82515133   2.125   1.178   7.005 -0.1746  0.7095  0.0044
   15MOL   C82615134   2.084   1.198   7.136  0.1703  0.6112  0.0505
   15MOL   C82715135   2.138   1.113   7.236  0.2008 -0.2296 -0.0057
   15MOL   N82815136   2.077   1.127   7.359  0.0336 -0.1051  0.7248
   15MOL   C82915137   2.073   1.241   7.440 -0.5210  0.3532 -0.4553
   15MOL   C83015138   2.170   1.342   7.428 -0.7981  0.4985  0.4561
   15MOL   C83115139   2.167   1.457   7.506  0.3910  0.5444 -0.3078
   15MOL   C83215140   2.076   1.467   7.613 -0.1412  0.7816  0.2379
   15MOL   N83315141   2.072   1.575   7.704  0.4612  0.0800  0.8441
   15MOL   C83415142   2.185   1.615   7.782 -0.0232 -0.0208  0.3569
   15MOL   C83515143   2.158   1.717   7.876  0.4041 -0.2201  0.1058
   15MOL   C83615144   2.257   1.775   7.957  0.5450  0.1118 -0.1812
   15MOL   C83715145   2.387   1.729   7.949 -0.1387  0.1578 -0.5184
   15MOL   C83815146   2.501   1.778   0.055  0.0707  0.0328  0.9264
   15MOL   C83915147   2.418   1.626   7.857 -0.0172 -0.5099  0.4075
   15MOL   C84015148   2.321   1.568   7.777  0.5927  0.2173  0.3083
   15MOL   C84115149   1.973   1.371   7.626 -0.5372  0.2240  0.4811
   15MOL   C84215150   1.975   1.258   7.540  0.0682  0.4573  0.2908
   15MOL   C84315151   2.244   1.024   7.205  0.4426 -0.1436  0.6103
   15MOL   C84415152   2.300   1.025   7.075  0.1664  0.1842  0.4571
   15MOL   C84515153   2.385   1.119   6.625 -0.2315  0.1989 -0.3992
   15MOL   C84615154   2.445   1.208   6.535 -0.0665  0.0164 -0.0601
   15MOL   H84715155   2.547   1.390   6.380 -0.0928  0.3439  0.3833
   15MOL   H84815156   2.385   1.504   6.699  2.2502  0.0972  0.0797
   15MOL   H84915157   2.314   1.347   6.871 -1.5386  0.4383  0.0361
   15MOL   H85015158   2.320   0.978   6.826  0.6625  0.0256  0.2797
   15MOL   H85115159   2.079   1.230   6.922  0.0586  0.4151 -0.3157
   15MOL   H85215160   1.995   1.256   7.155 -0.4740 -0.7617  1.2945
   15MOL   H85315161   2.053   1.036   7.395  2.8110 -1.5157 -0.8372
   15MOL   H85415162   2.242   1.333   7.349 -0.6130 -0.2287  0.6978
   15MOL   H85515163   2.240   1.534   7.484 -1.2264  0.9547 -4.6012
   15MOL   H85615164   1.981   1.603   7.737 -0.1972 -1.7938  0.7019
   15MOL   H85715165   2.062   1.766   7.880 -0.0630 -1.1234  0.1387
   15MOL   H85815166   2.245   1.849   0.052  0.1760 -0.6003  0.4518
   15MOL   H85915167   2.566   1.849   0.003 -0.9325 -1.1982 -2.0867
   15MOL   H86015168   2.561   1.687   0.063  0.5699  0.0234 -2.3147
   15MOL   H86115169   2.522   1.600   7.849  0.4902  2.0125 -1.7034
   15MOL   H86215170   2.341   1.488   7.708 -2.1895  1.3274 -1.8980
   15MOL   H86315171   1.891   1.381   7.697 -2.7419 -3.5214 -1.3798
   15MOL   H86415172   1.896   1.185   7.543  1.0764 -0.5803  2.8197
   15MOL   H86515173   2.284   0.958   7.281 -1.8577 -1.4637  0.7525
   15MOL   H86615174   2.383   0.958   7.060 -0.7447 -1.7383  3.5123
   15MOL   H86715175   2.367   1.017   6.594  0.6241  0.1513 -0.7406
   15MOL   H86815176   2.489   1.171   6.443  0.0647  1.7416 -0.7085
   15MOL   N86915177   2.452   1.812   0.188  0.7336  0.0838  0.0976
   15MOL   C87015178   2.548   1.834   0.279  0.6297  0.5410 -0.6980
   15MOL   C87115179   2.619   1.950   0.258 -0.1106 -0.3063 -0.1292
   15MOL   C87215180   2.723   1.982   0.350 -0.2227 -0.1561 -0.1289
   15MOL   C87315181   2.751   1.894   0.457 -0.2278 -0.6123  0.3362
   15MOL   N87415182   2.852   1.921   0.548 -0.2167  0.0390  0.0033
   15MOL   C87515183   2.837   2.016   0.641  0.4445 -0.4484 -0.4150
   15MOL   C87615184   2.868   1.980   0.771  0.0341  0.3533 -0.1789
   15MOL   C87715185   2.876   2.070   0.875  0.2961  0.2207 -0.5418
   15MOL   C87815186   2.835   2.208   0.854 -0.1572 -0.5114  0.4673
   15MOL   N87915187   2.854   2.305   0.946  0.3904  0.9953 -0.1502
   15MOL   C88015188   2.854   2.287   1.086  0.2996  0.1230  0.3677
   15MOL   C88115189   2.938   2.366   1.165 -0.3000  0.0683  0.1532
   15MOL   C88215190   2.953   2.332   1.302 -1.2754 -0.5465 -0.2392
   15MOL   C88315191   2.873   2.231   1.359 -0.0797 -0.4543 -0.4880
   15MOL   N88415192   2.867   2.211   1.497 -0.0153  0.2744 -0.5976
   15MOL   C88515193   2.981   2.190   1.581  0.2027 -0.0638 -1.1474
   15MOL   C88615194   3.114   2.171   1.535  0.6934 -0.6535 -0.5771
   15MOL   C88715195   3.218   2.150   1.623 -0.4613  0.2729 -0.5490
   15MOL   C88815196   3.193   2.152   1.762 -0.5646 -0.8249 -0.5388
   15MOL   C88915197   3.309   2.153   1.862  0.2164 -0.5729  1.1381
   15MOL   C89015198   3.054   2.174   1.807 -0.2873  0.2896  0.1229
   15MOL   C89115199   2.949   2.177   1.719  0.0443 -0.5223 -0.0843
   15MOL   C89215200   2.780   2.166   1.281 -0.1580 -0.5338  0.5831
   15MOL   C89315201   2.763   2.197   1.146 -0.2549 -0.4481 -0.0272
   15MOL   C89415202   2.789   2.246   0.729  0.2164 -0.4173  0.0552
   15MOL   C89515203   2.794   2.153   0.623 -1.1132 -0.2060  0.0944
   15MOL   C89615204   2.688   1.773   0.463 -0.1783 -0.1228 -0.0857
   15MOL   C89715205   2.582   1.734   0.377 -0.3096  0.1381 -0.0028
   15MOL   H89815206   2.398   1.729   0.210 -2.7231  2.4688  1.1000
   15MOL   H89915207   2.600   2.027   0.184  1.3794 -0.2219 -0.4327
   15MOL   H90015208   2.781   2.071   0.331 -0.0758 -0.4516 -1.0955
   15MOL   H90115209   2.881   1.840   0.600  0.7139 -0.3649 -1.1071
   15MOL   H90215210   2.907   1.881   0.787 -2.6741 -0.2954  2.7965
   15MOL   H90315211   2.914   2.040   0.972 -0.2173  0.8079 -0.1543
   15MOL   H90415212   2.859   2.399   0.911  1.8621  0.5048 -1.2994
   15MOL   H90515213   3.002   2.441   1.120  0.8929 -0.0784  1.5824
   15MOL   H90615214   3.023   2.388   1.362 -2.0270  1.6519 -1.3805
   15MOL   H90715215   2.775   2.183   1.529  1.1340  0.1320  2.8624
   15MOL   H90815216   3.121   2.178   1.427 -1.1907 -1.3168 -0.7636
   15MOL   H90915217   3.320   2.146   1.587  0.2045  2.7302  0.8969
   15MOL   H91015218   3.393   2.091   1.830  0.8531  1.3766 -1.1503
   15MOL   H91115219   3.274   2.119   1.960 -1.1780 -1.4669  0.3572
   15MOL   H91215220   3.021   2.162   1.909  1.4352 -3.8879  0.3168
   15MOL   H91315221   2.849   2.194   1.754  0.9915  4.6927  0.4726
   15MOL   H91415222   2.703   2.102   1.322 -0.3029 -1.0979 -0.5428
   15MOL   H91515223   2.689   2.131   1.103  0.5537 -1.5449  0.2442
   15MOL   H91615224   2.773   2.349   0.698 -0.6688 -0.4551  0.3915
   15MOL   H91715225   2.779   2.195   0.524  0.2059 -1.2600 -0.5660
   15MOL   H91815226   2.736   1.704   0.531  2.3292  1.9511  0.2998
   15MOL   H91915227   2.513   1.658   0.410 -1.7760  1.7933  0.7878
   15MOL   N92015228   3.343   2.294   1.871  0.0163  0.0808 -0.2488
   15MOL   C92115229   3.467   2.343   1.835 -0.5560 -0.2686  0.2373
   15MOL   C92215230   3.582   2.261   1.849  0.6570 -0.4984  0.1179
   15MOL   C92315231   3.711   2.310   1.825  0.0757 -0.2700 -0.2726
   15MOL   C92415232   3.734   2.443   1.797  0.2911 -0.2517  0.6142
   15MOL   N92515233   3.865   2.494   1.795  0.2943 -0.1921 -0.1285
   15MOL   C92615234   3.903   2.614   1.863  0.0705  0.2731  0.4069
   15MOL   C92715235   4.009   2.687   1.805  0.0924  0.8196  0.2080
   15MOL   C92815236   4.060   2.800   1.858 -0.4856  1.0142  0.3556
   15MOL   C92915237   3.998   2.852   1.977 -0.0070  0.0495  0.4753
   15MOL   N93015238   4.043   2.978   2.023 -0.0382 -0.0946 -0.7695
   15MOL   C93115239   3.977   3.063   2.106  0.2155  0.4576  0.3961
   15MOL   C93215240   3.859   3.112   2.051  0.0056 -0.3761  0.3217
   15MOL   C93315241   3.766   3.179   2.135  0.3036 -0.3318 -0.1185
   15MOL   C93415242   3.791   3.194   2.271  0.0018 -0.6985  0.6278
   15MOL   N93515243   3.701   3.259   2.355  0.2978  0.5831 -0.3755
   15MOL   C93615244   3.565   3.263   2.346 -0.3640  0.2137  0.4407
   15MOL   C93715245   3.508   3.334   2.238  0.5662  0.2797  0.0380
   15MOL   C93815246   3.368   3.353   2.247 -0.3593  0.9379 -0.0941
   15MOL   C93915247   3.284   3.289   2.346  0.4695 -0.1846  0.6303
   15MOL   C94015248   3.141   3.323   2.339  0.2560 -0.2042  0.2949
   15MOL   C94115249   3.346   3.197   2.434 -0.0260 -0.7628  0.2039
   15MOL   C94215250   3.488   3.195   2.446  0.0859 -0.1527 -0.3872
   15MOL   C94315251   3.921   3.161   2.319  0.5678 -0.3386 -0.7943
   15MOL   C94415252   4.013   3.088   2.240 -0.6998 -0.1270 -0.0893
   15MOL   C94515253   3.896   2.781   2.042  0.4162  0.2123  0.7070
   15MOL   C94615254   3.844   2.660   1.980  0.5361  0.1160 -0.7312
   15MOL   C94715255   3.619   2.529   1.779 -0.0441 -0.4678  0.0579
   15MOL   C94815256   3.489   2.479   1.804  0.0644 -0.1187 -0.4343
   15MOL   H94915257   3.268   2.357   1.849 -0.5020 -0.9031 -1.3434
   15MOL   H95015258   3.581   2.161   1.890 -0.0261 -0.1946  0.8436
   15MOL   H95115259   3.793   2.245   1.851  1.9856  2.1495 -0.0600
   15MOL   H95215260   3.942   2.433   1.770  0.6166  0.8798 -1.8171
   15MOL   H95315261   4.054   2.649   1.715 -1.1429 -0.0330 -0.0478
   15MOL   H95415262   4.137   2.851   1.803  0.5068 -0.3163  0.4737
   15MOL   H95515263   4.086   3.024   1.944 -0.0402 -1.1091 -1.3756
   15MOL   H95615264   3.833   3.096   1.947  0.1898  0.4001  0.1524
   15MOL   H95715265   3.676   3.209   2.084 -0.1626  2.3332  2.1451
   15MOL   H95815266   3.739   3.274   2.447  1.6238  0.4055 -0.8891
   15MOL   H95915267   3.565   3.389   2.165  1.0620  1.1038  1.0333
   15MOL   H96015268   3.330   3.421   2.171 -0.2389 -0.2670 -1.2488
   15MOL   H96115269   3.112   3.313   2.444  1.4973  0.9711  0.7718
   15MOL   H96215270   3.091   3.239   2.291  0.7250  0.4534 -1.3608
   15MOL   H96315271   3.295   3.146   2.515 -2.4201 -0.6044 -1.1691
   15MOL   H96415272   3.540   3.139   2.522 -3.4233 -2.2612  0.5415
   15MOL   H96515273   3.960   3.191   2.414  1.7367 -1.1894 -0.9945
   15MOL   H96615274   4.106   3.047   2.275 -1.1807 -2.6609 -1.6320
   15MOL   H96715275   3.846   2.814   2.132 -0.9578 -0.5421  0.2431
   15MOL   H96815276   3.759   2.610   2.023  1.3398  0.3303  1.1841
   15MOL   H96915277   3.637   2.634   1.763 -2.7900 -0.1147 -0.8544
   15MOL   H97015278   3.407   2.548   1.790 -1.3935 -1.5328  0.9629
   15MOL   N97115279   3.103   3.456   2.292  0.3234  0.5606  0.2593
   15MOL   C97215280   3.119   3.580   2.355 -0.6416 -0.2772 -0.1771
   15MOL   C97315281   3.171   3.597   2.488 -0.1067 -0.1798 -0.1728
   15MOL   C97415282   3.182   3.723   2.545 -0.7200  0.3408  0.1997
   15MOL   C97515283   3.147   3.840   2.477 -0.1139  1.0399 -0.5491
   15MOL   N97615284   3.151   3.973   2.532 -0.1299  0.7997  0.1879
   15MOL   C97715285   3.173   4.004   2.671  0.3468 -0.4033  0.4337
   15MOL   C97815286   3.116   3.919   2.768  0.7715  0.9093  0.5057
   15MOL   C97915287   3.129   3.946   2.901 -0.1886  0.1081 -0.2393
   15MOL   C98015288   3.195   4.060   2.944  0.2690 -0.4097  0.4080
   15MOL   N98115289   3.218   4.083   3.081 -0.2010 -0.1159 -0.5458
   15MOL   C98215290   3.285   4.003   3.170  0.1192 -0.2672 -0.3133
   15MOL   C98315291   3.340   3.884   3.123 -0.5376 -0.2792  0.3454
   15MOL   C98415292   3.419   3.807   3.207  0.1691  0.1761  0.5541
   15MOL   C98515293   3.447   3.854   3.338 -0.2334 -0.3588 -0.0862
   15MOL   N98615294   3.531   3.770   3.410 -0.1143  0.2717  0.6502
   15MOL   C98715295   3.651   3.711   3.364  0.3502 -0.3407 -0.3550
   15MOL   C98815296   3.727   3.744   3.247 -0.5655  1.0459 -0.0963
   15MOL   C98915297   3.830   3.665   3.195  0.6908  0.3067  0.1224
   15MOL   C99015298   3.866   3.552   3.262 -0.3028 -0.6283 -0.1134
   15MOL   C99115299   3.990   3.477   3.216 -0.1241  0.1905  0.1789
   15MOL   C99215300   3.799   3.516   3.387 -0.2162 -0.2122  0.3210
   15MOL   C99315301   3.700   3.605   3.436 -0.6109 -0.2901  0.5158
   15MOL   C99415302   3.389   3.972   3.392  0.5013  0.2123 -0.0198
   15MOL   C99515303   3.314   4.053   3.301 -0.0781 -0.0236  0.1540
   15MOL   C99615304   3.234   4.155   2.851 -0.1837  0.5612 -0.5632
   15MOL   C99715305   3.226   4.124   2.715  0.0991  0.7402 -0.1963
   15MOL   C99815306   3.104   3.831   2.341  0.1887  0.2954  0.0417
   15MOL   C99915307   3.098   3.702   2.279 -0.9744  0.9047 -0.2342
   15MOL     H115308   3.074   3.458   2.196 -1.7200  2.2439  0.8639
   15MOL     H215309   3.205   3.512   2.546 -1.1039  2.0199  3.8211
   15MOL     H315310   3.232   3.730   2.640  1.3755  4.8683 -1.0468
   15MOL     H415311   3.146   4.049   2.466  1.7695 -0.0001 -0.9073
   15MOL     H515312   3.073   3.825   2.736 -0.6187  1.1488  1.5959
   15MOL     H615313   3.092   3.880   2.978  0.1590  2.2215  1.7940
   15MOL     H715314   3.230   4.183   3.090  1.2661 -0.3133 -0.0711
   15MOL     H815315   3.327   3.854   3.020 -2.0197 -2.8014  1.2152
   15MOL     H915316   3.447   3.711   3.167  3.9426  1.2582  0.4623
   15MOL    H1015317   3.509   3.767   3.509 -0.4924  0.3944  0.5712
   15MOL    H1115318   3.698   3.827   3.185 -0.0422  1.4807  0.2354
   15MOL    H1215319   3.881   3.700   3.106 -0.0077  1.9516  0.3386
   15MOL    H1315320   4.086   3.493   3.266 -0.6582 -1.3585  1.7656
   15MOL    H1415321   3.994   3.483   3.107 -1.8846 -2.6071 -0.0984
   15MOL    H1515322   3.831   3.428   3.441  2.2263  0.3632 -0.1219
   15MOL    H1615323   3.656   3.590   3.533 -0.0896  0.5533  0.8947
   15MOL    H1715324   3.397   4.016   3.491 -1.2317  0.6432 -0.0510
   15MOL    H1815325   3.273   4.147   3.337  1.0086  0.7263 -0.5388
   15MOL    H1915326   3.288   4.242   2.884 -0.5743  0.5169  0.2164
   15MOL    H2015327   3.263   4.202   2.649  2.2945  1.3343  1.6931
   15MOL    H2115328   3.086   3.916   2.277  0.2409  1.4882  1.5832
   15MOL    H2215329   3.075   3.696   2.174  0.6760  1.0699 -0.6101
   15MOL    H2315330   3.963   3.372   3.228 -1.9558  0.5379 -0.8155
   16MOL     N115331   3.092   4.220   4.657  0.4012 -0.0037  0.3377
   16MOL     C215332   3.112   4.347   4.698  0.3797 -0.4218  0.8018
   16MOL     C315333   3.011   4.448   4.673 -0.3499 -0.2761  0.2059
   16MOL     C415334   3.025   4.569   4.736  0.2039 -0.1797 -0.0385
   16MOL     C515335   3.136   4.604   4.815 -0.1391 -0.4817 -0.0694
   16MOL     N615336   3.160   4.736   4.843  0.1753  0.5528  0.0625
   16MOL     C715337   3.279   4.806   4.864  0.2456 -0.5450 -1.3299
   16MOL     C815338   3.273   4.936   4.927 -0.5226 -0.2968 -0.1831
   16MOL     C915339   3.388   5.015   4.934  0.4595  0.7081  0.3621
   16MOL    C1015340   3.513   4.972   4.873  0.5167 -0.0064 -0.4724
   16MOL    N1115341   3.628   5.048   4.872 -0.5738  0.1035 -0.3717
   16MOL    C1215342   3.660   5.166   4.935 -0.7571  0.2105 -0.1468
   16MOL    C1315343   3.730   5.265   4.864  0.0471 -0.7522  0.2262
   16MOL    C1415344   3.759   5.394   4.915 -0.1949  0.4180 -0.4784
   16MOL    C1515345   3.723   5.422   5.049  0.1781 -0.1179 -0.2800
   16MOL    N1615346   3.754   5.543   5.104 -0.5408 -0.5714 -0.5234
   16MOL    C1715347   3.847   5.550   5.211 -0.5746  0.2041  0.1935
   16MOL    C1815348   3.929   5.444   5.253 -0.2729 -0.2709  0.6170
   16MOL    C1915349   4.043   5.463   5.336 -0.1773 -0.3031 -0.1260
   16MOL    C2015350   4.059   5.599   5.383 -0.1431 -0.2579 -0.0079
   16MOL    C2115351   4.180   5.624   5.475  0.2932 -0.6516 -0.2635
   16MOL    C2215352   3.982   5.707   5.340 -0.1291  0.2694 -0.7729
   16MOL    C2315353   3.870   5.680   5.259  0.8081  0.3661  0.7724
   16MOL    C2415354   3.654   5.318   5.120 -0.2081  0.6887 -0.2793
   16MOL    C2515355   3.619   5.198   5.061 -0.0832  0.9353 -0.1252
   16MOL    C2615356   3.515   4.849   4.806  0.0726 -0.0231  0.5160
   16MOL    C2715357   3.405   4.764   4.811 -1.2669 -0.1071 -0.6619
   16MOL    C2815358   3.229   4.505   4.850  0.5764  0.0121  0.0581
   16MOL    C2915359   3.218   4.377   4.784  0.9485  0.1157  0.5279
   16MOL    H3015360   2.996   4.192   4.644 -0.4681  2.6298  0.9358
   16MOL    H3115361   2.927   4.438   4.606 -0.6135 -0.0616  0.5105
   16MOL    H3215362   2.964   4.645   4.690 -0.2222 -0.6803 -0.3125
   16MOL    H3315363   3.073   4.787   4.851 -1.5919 -1.7847 -2.8289
   16MOL    H3415364   3.178   4.976   4.959 -0.0920  0.7941 -0.2616
   16MOL    H3515365   3.375   5.116   4.968 -0.7524  0.4994  0.5392
   16MOL    H3615366   3.671   5.025   4.783 -1.5034 -1.4582 -0.4273
   16MOL    H3715367   3.759   5.247   4.762  1.0037 -0.6698  0.4753
   16MOL    H3815368   3.809   5.466   4.851  0.3712  0.0203 -0.4879
   16MOL    H3915369   3.744   5.627   5.049 -2.7822  0.1432  0.8572
   16MOL    H4015370   3.917   5.346   5.208  0.1302  0.2861 -0.7190
   16MOL    H4115371   4.113   5.385   5.362 -0.3206 -0.0025  1.1885
   16MOL    H4215372   4.267   5.617   5.410  1.6317  2.9966  0.9845
   16MOL    H4315373   4.182   5.544   5.548  1.4904  0.7334  1.2653
   16MOL    H4415374   4.004   5.809   5.367 -0.3520  0.6980 -2.1672
   16MOL    H4515375   3.809   5.754   5.210  0.2927 -0.7742 -0.3553
   16MOL    H4615376   3.630   5.328   5.225 -3.2172 -0.8081 -0.7799
   16MOL    H4715377   3.578   5.114   5.116  0.7557  0.0081 -0.8970
   16MOL    H4815378   3.607   4.815   4.760  0.2573 -1.1648  1.7254
   16MOL    H4915379   3.417   4.667   4.765 -0.3956 -1.6434  2.6857
   16MOL    H5015380   3.313   4.521   4.915  2.0510 -2.7528 -1.0708
   16MOL    H5115381   3.294   4.306   4.813 -0.9988 -0.9904  3.0913
   16MOL    H5215382   3.146   4.149   4.706  2.4059  1.2758  0.0528
   16MOL    N5315383   4.172   5.751   5.549 -0.0601 -0.1068  0.6637
   16MOL    C5415384   4.290   5.814   5.586 -0.1740  0.9693  0.7410
   16MOL    C5515385   4.406   5.731   5.614  0.1575 -0.4566  0.0512
   16MOL    C5615386   4.524   5.789   5.654 -0.2041 -0.2819 -0.3828
   16MOL    C5715387   4.537   5.930   5.658 -0.0674  0.5081  0.0587
   16MOL    N5815388   4.663   5.981   5.690 -0.5959  0.4444  0.2186
   16MOL    C5915389   4.710   6.106   5.720  0.1170  0.9725 -0.1940
   16MOL    C6015390   4.835   6.149   5.665 -0.5008 -0.5258 -0.0758
   16MOL    C6115391   4.882   6.273   5.701 -0.1654  0.2731  0.1577
   16MOL    C6215392   4.811   6.355   5.793  0.1453  0.0764 -0.4707
   16MOL    N6315393   4.860   6.483   5.818 -0.3941 -0.0587  0.0366
   16MOL    C6415394   4.829   6.576   5.916  0.1430  0.2112  0.1850
   16MOL    C6515395   4.798   6.543   6.052 -0.1967 -0.1164  0.3177
   16MOL    C6615396   4.780   6.648   6.147 -0.2003  0.3990 -0.1690
   16MOL    C6715397   4.782   6.784   6.106  0.2235  0.3170  0.0293
   16MOL    N6815398   4.758   6.883   6.205  0.2584 -0.1873  0.4047
   16MOL    C6915399   4.626   6.902   6.259 -0.7032 -0.0647  0.3142
   16MOL    C7015400   4.516   6.818   6.230 -0.2170  0.4524  0.6440
   16MOL    C7115401   4.385   6.852   6.260 -0.1545 -0.3825  0.0285
   16MOL    C7215402   4.366   6.967   6.339  0.1105 -0.9313  0.9804
   16MOL    C7315403   4.224   7.002   6.389  0.1508  0.8506 -0.2418
   16MOL    C7415404   4.475   7.045   6.377  0.2163 -0.0476 -0.5325
   16MOL    C7515405   4.604   7.010   6.342  0.1894  0.0283 -0.1432
   16MOL    C7615406   4.804   6.820   5.966 -0.5373  0.5816  0.1154
   16MOL    C7715407   4.830   6.716   5.885 -0.3472 -0.4556 -0.8318
   16MOL    C7815408   4.690   6.307   5.847 -0.2158 -0.2754 -0.9576
   16MOL    C7915409   4.642   6.180   5.813 -0.3443  0.2564  0.2049
   16MOL    C8015410   4.425   6.015   5.627 -0.8288  0.0184 -0.5155
   16MOL    C8115411   4.298   5.954   5.601 -0.7149 -0.9694  0.9134
   16MOL    H8215412   4.091   5.807   5.527 -0.4705 -0.9143  0.0943
   16MOL    H8315413   4.405   5.623   5.604 -0.7059 -0.8686  3.7852
   16MOL    H8415414   4.606   5.723   5.680 -0.5003 -0.3534  0.3826
   16MOL    H8515415   4.736   5.928   5.644 -0.4974  0.6065  0.1877
   16MOL    H8615416   4.890   6.087   5.595 -2.1098 -0.1880 -1.6833
   16MOL    H8715417   4.973   6.313   5.659 -0.2551  0.7349  0.3934
   16MOL    H8815418   4.899   6.522   5.734  1.2265 -0.6793  0.4748
   16MOL    H8915419   4.804   6.444   6.095  1.5823 -0.6743 -1.1484
   16MOL    H9015420   4.771   6.631   6.253 -0.0644  1.1688 -0.0347
   16MOL    H9115421   4.819   6.963   6.212 -0.5489  0.3901  1.0051
   16MOL    H9215422   4.531   6.722   6.181 -2.5117 -0.2831  1.3460
   16MOL    H9315423   4.312   6.774   6.245 -1.2811  0.8595 -1.1081
   16MOL    H9415424   4.154   7.015   6.307  0.2679  1.5471 -0.2304
   16MOL    H9515425   4.237   7.097   6.440 -0.9561 -0.7608  3.2494
   16MOL    H9615426   4.464   7.142   6.424  0.7475 -0.1815 -0.1196
   16MOL    H9715427   4.686   7.075   6.368 -0.0068  0.1758  0.1071
   16MOL    H9815428   4.814   6.920   5.927  4.3677 -0.0154 -0.5704
   16MOL    H9915429   4.858   6.745   5.785  1.7498  2.0784  0.4322
   16MOL   H10015430   4.634   6.354   5.927 -0.3662 -1.0582 -0.6043
   16MOL   H10115431   4.546   6.147   5.852  0.8960 -1.3598  2.0231
   16MOL   H10215432   4.434   6.123   5.620 -2.0925  0.2291  0.8825
   16MOL   H10315433   4.220   6.020   5.565  0.3745 -1.4757 -2.5636
   16MOL   N10415434   4.174   6.914   6.495 -0.4190  0.3857  0.5596
   16MOL   C10515435   4.124   6.794   6.449 -0.3923 -0.4078 -0.0575
   16MOL   C10615436   4.007   6.788   6.372 -0.1268  0.0632 -0.2013
   16MOL   C10715437   3.961   6.660   6.335  0.2635  0.0745 -0.4061
   16MOL   C10815438   4.027   6.542   6.389  0.0273  0.1766  0.5969
   16MOL   N10915439   3.973   6.418   6.365  0.2752 -0.5709 -0.6430
   16MOL   C11015440   3.966   6.303   6.442  0.7689  0.5887 -0.0634
   16MOL   C11115441   4.003   6.297   6.584 -0.6673  0.6702  0.3377
   16MOL   C11215442   3.987   6.175   6.652  0.5600  0.3465 -0.6209
   16MOL   C11315443   3.949   6.058   6.585 -0.1120  0.8348  0.1162
   16MOL   N11415444   3.930   5.934   6.657  0.5864  0.2330  0.8007
   16MOL   C11515445   4.004   5.882   6.762 -0.0252  0.1787  0.1693
   16MOL   C11615446   4.134   5.929   6.800 -0.6254  0.1029  0.0972
   16MOL   C11715447   4.213   5.868   6.896 -0.0967 -0.2484 -0.3926
   16MOL   C11815448   4.164   5.752   6.965  0.1560 -0.4385  0.2061
   16MOL   N11915449   4.230   5.681   7.063  0.1513  0.9172  0.0095
   16MOL   C12015450   4.369   5.657   7.072  0.7543  0.7345  0.1894
   16MOL   C12115451   4.422   5.598   7.185  0.6200  0.5296  0.2892
   16MOL   C12215452   4.558   5.558   7.200 -0.9819 -0.6692 -0.3803
   16MOL   C12315453   4.647   5.588   7.098 -0.5170  0.2196  0.7221
   16MOL   C12415454   4.795   5.575   7.104 -0.6296 -0.0275  0.2004
   16MOL   C12515455   4.594   5.657   6.983  0.2278  0.4973  0.6939
   16MOL   C12615456   4.458   5.682   6.969  0.9194 -0.1333 -0.0058
   16MOL   C12715457   4.030   5.713   6.938 -0.2268  0.2051  0.1138
   16MOL   C12815458   3.954   5.770   6.835  0.2630 -0.9561 -0.5099
   16MOL   C12915459   3.907   6.065   6.450 -0.5379  0.0597  0.0154
   16MOL   C13015460   3.910   6.187   6.386 -0.0109 -0.1471 -0.0569
   16MOL   C13115461   4.152   6.552   6.457 -0.0825  0.2170  0.2686
   16MOL   C13215462   4.196   6.678   6.489  0.0535 -0.0097  0.1092
   16MOL   H13315463   4.248   6.912   6.564  0.1623 -1.3955 -0.1043
   16MOL   H13415464   3.948   6.875   6.344 -1.8187 -0.7861  0.6654
   16MOL   H13515465   3.871   6.645   6.277  0.3662 -0.3413 -0.4589
   16MOL   H13615466   3.917   6.415   6.281 -0.8976  0.1735  0.1100
   16MOL   H13715467   4.039   6.386   6.633  0.0166  0.3729  0.3849
   16MOL   H13815468   4.011   6.164   6.757 -0.1306 -0.2283 -0.5171
   16MOL   H13915469   3.883   5.866   6.598 -0.1350  1.0396  0.4213
   16MOL   H14015470   4.174   6.009   6.740 -0.4968 -1.1724 -1.5725
   16MOL   H14115471   4.308   5.912   6.924 -0.2838  0.5729 -1.0395
   16MOL   H14215472   4.170   5.636   7.131  1.8603  0.4377  1.2223
   16MOL   H14315473   4.358   5.591   7.272 -0.6974 -1.4211 -0.8194
   16MOL   H14415474   4.593   5.524   7.296  1.9591 -0.1942 -1.2368
   16MOL   H14515475   4.847   5.574   7.008 -0.7794  2.6698  0.0592
   16MOL   H14615476   4.815   5.472   7.132  2.5798  0.3657 -0.4299
   16MOL   H14715477   4.661   5.684   6.903 -0.2124 -2.2125 -0.6558
   16MOL   H14815478   4.445   5.725   6.871 -0.9284 -1.8065 -0.5382
   16MOL   H14915479   3.985   5.632   6.993 -0.5847  0.9138  0.8726
   16MOL   H15015480   3.861   5.721   6.814 -1.7507  2.8487 -0.9777
   16MOL   H15115481   3.872   5.976   6.399  0.9785  0.6136 -2.1008
   16MOL   H15215482   3.876   6.186   6.283 -1.1230 -0.2589  0.3082
   16MOL   H15315483   4.201   6.465   6.500  1.3597  0.9489  0.1262
   16MOL   H15415484   4.290   6.695   6.540 -0.6638 -1.6614  2.0177
   16MOL   N15515485   4.859   5.664   7.192  0.1618 -0.0590  0.0558
   16MOL   C15615486   4.993   5.649   7.223 -0.0174  0.4053 -0.0570
   16MOL   C15715487   5.060   5.526   7.205 -0.2765  0.4510 -0.1929
   16MOL   C15815488   5.187   5.510   7.247  0.2386 -0.0095 -0.2732
   16MOL   C15915489   5.252   5.626   7.303 -0.4562  0.1052 -0.4045
   16MOL   N16015490   5.380   5.613   7.354 -0.0873  0.0949  0.2311
   16MOL   C16115491   5.432   5.509   7.433 -0.3066  0.4459  0.0768
   16MOL   C16215492   5.344   5.414   7.495 -0.2337  0.4670  0.2697
   16MOL   C16315493   5.397   5.307   7.566 -0.0709 -0.0760  0.3202
   16MOL   C16415494   5.535   5.286   7.569 -0.3531  0.9083 -0.2335
   16MOL   N16515495   5.573   5.162   7.624  0.7310  0.1316 -0.4775
   16MOL   C16615496   5.523   5.099   7.743  0.0174 -0.0968 -0.1337
   16MOL   C16715497   5.426   5.151   7.839 -0.5705  0.5090 -0.2300
   16MOL   C16815498   5.391   5.069   7.947  0.8979  0.1606 -0.7262
   16MOL   C16915499   5.437   4.941   7.961  0.3059  0.0708 -0.1071
   16MOL   N17015500   5.391   4.865   0.083  0.4778 -0.2936  0.1342
   16MOL   C17115501   5.456   4.764   0.163 -0.1630 -0.2877 -0.7826
   16MOL   C17215502   5.389   4.646   0.225 -0.9587  0.4009  0.3204
   16MOL   C17315503   5.474   4.550   0.294  0.3657 -0.0344  0.3509
   16MOL   C17415504   5.613   4.561   0.301 -0.4948 -0.3683  0.8596
   16MOL   C17515505   5.692   4.449   0.362  0.1575 -0.3825  0.6189
   16MOL   C17615506   5.673   4.669   0.240  0.7035  0.6825  0.8324
   16MOL   C17715507   5.597   4.776   0.184  0.2577 -0.5052  0.1810
   16MOL   C17815508   5.536   4.893   7.873 -1.0207  0.0339 -0.7173
   16MOL   C17915509   5.580   4.969   7.760  0.9215 -0.0409  0.3825
   16MOL   C18015510   5.626   5.376   7.512 -1.3380  0.4382 -0.9328
   16MOL   C18115511   5.573   5.491   7.450 -0.6724  0.2780  0.2488
   16MOL   C18215512   5.189   5.755   7.309  0.1415 -0.0815  0.1783
   16MOL   C18315513   5.060   5.764   7.270  0.3231  0.3442 -0.2132
   16MOL   H18415514   4.797   5.724   7.245 -1.2173 -1.5700  0.1791
   16MOL   H18515515   5.011   5.445   7.152 -0.8257  0.4125  0.3700
   16MOL   H18615516   5.236   5.414   7.254  2.4449  0.8726 -2.9070
   16MOL   H18715517   5.438   5.695   7.342 -0.0903  0.7446  4.0583
   16MOL   H18815518   5.236   5.417   7.493 -0.2045  0.9612 -2.8964
   16MOL   H18915519   5.335   5.225   7.599 -1.1863  1.2998  1.7642
   16MOL   H19015520   5.646   5.104   7.585 -0.5254 -1.4276 -0.5715
   16MOL   H19115521   5.379   5.245   7.815 -0.0407  1.6348  2.9221
   16MOL   H19215522   5.313   5.111   0.027 -0.2182  0.6944 -2.4433
   16MOL   H19315523   5.308   4.893   0.132 -0.7536 -2.5845 -0.5752
   16MOL   H19415524   5.283   4.628   0.215 -0.9207  0.2011  0.2757
   16MOL   H19515525   5.428   4.469   0.347  0.1400  0.7062  1.3195
   16MOL   H19615526   5.619   4.395   0.422 -1.1862  0.2629 -0.4286
   16MOL   H19715527   5.772   4.492   0.422  1.9714 -1.2948 -1.0481
   16MOL   H19815528   5.778   4.671   0.217  0.4665 -2.3787 -0.7589
   16MOL   H19915529   5.650   4.860   0.142 -1.1584  0.4474  0.2271
   16MOL   H20015530   5.580   4.797   7.894  0.2273  0.7780  0.1174
   16MOL   H20115531   5.652   4.917   7.699  0.4479  0.4565 -0.5983
   16MOL   H20215532   5.733   5.366   7.518 -1.7067 -3.4113  1.1348
   16MOL   H20315533   5.650   5.554   7.407  1.5572 -1.9622  0.8542
   16MOL   H20415534   5.248   5.833   7.355 -1.1413 -0.3075  2.2942
   16MOL   H20515535   5.007   5.856   7.290 -1.6418 -0.8585  0.2845
   16MOL   N20615536   5.736   4.347   0.267  0.4375  0.6150 -0.4885
   16MOL   C20715537   5.806   4.236   0.306 -0.2051  0.1428  0.2449
   16MOL   C20815538   5.827   4.197   0.437 -0.0530  0.2593 -0.3186
   16MOL   C20915539   5.879   4.073   0.460  0.3222 -0.5780 -0.8864
   16MOL   C21015540   5.920   3.987   0.361 -0.0671  0.1233  0.6560
   16MOL   N21115541   5.959   3.857   0.388  0.3353 -0.6575  0.1100
   16MOL   C21215542   5.950   3.790   0.507  0.1802  0.3610  0.1393
   16MOL   C21315543   5.821   3.769   0.569 -0.2968 -0.8640 -0.3865
   16MOL   C21415544   5.815   3.723   0.704  0.3214 -0.1268 -0.0750
   16MOL   C21515545   5.934   3.689   0.772 -0.2756  0.2261 -0.2296
   16MOL   N21615546   5.939   3.648   0.908  0.2541 -0.2169 -0.1065
   16MOL   C21715547   5.849   3.574   0.978 -0.2971 -0.2610 -0.1167
   16MOL   C21815548   5.833   3.589   1.117 -0.5323 -0.4151 -0.1636
   16MOL   C21915549   5.720   3.538   1.184  0.8222  0.1801 -0.2058
   16MOL   C22015550   5.636   3.452   1.111 -0.3569 -0.7420  0.0031
   16MOL   N22115551   5.532   3.385   1.181 -0.0103  0.5434  0.0184
   16MOL   C22215552   5.514   3.369   1.318 -0.1578 -0.7465  0.3147
   16MOL   C22315553   5.513   3.245   1.365 -0.2959  0.3138  0.1526
   16MOL   C22415554   5.476   3.218   1.500 -0.2119  0.1466  0.0173
   16MOL   C22515555   5.442   3.324   1.586  0.0940 -0.3535 -0.1967
   16MOL   C22615556   5.395   3.308   1.727 -0.3880  0.4034 -0.4054
   16MOL   C22715557   5.452   3.452   1.539  0.1453 -0.3573 -0.1717
   16MOL   C22815558   5.487   3.475   1.406 -0.3847  0.3926  0.1672
   16MOL   C22915559   5.656   3.432   0.974 -0.4573  0.6353 -0.1533
   16MOL   C23015560   5.755   3.503   0.905 -0.2705  0.3396  0.4701
   16MOL   C23115561   6.059   3.717   0.717 -0.0227 -0.1806  0.2531
   16MOL   C23215562   6.063   3.764   0.585 -0.5752 -0.1823 -0.1752
   16MOL   C23315563   5.911   4.031   0.229 -0.3955  0.1626  0.0002
   16MOL   C23415564   5.849   4.155   0.204 -0.2163  0.7145 -0.3975
   16MOL   H23515565   5.730   4.366   0.168  2.0175  0.2263 -0.6742
   16MOL   H23615566   5.786   4.252   0.520  0.3774 -1.1231  0.8266
   16MOL   H23715567   5.874   4.029   0.558 -0.2998  0.1845 -0.5718
   16MOL   H23815568   6.027   3.813   0.327  0.5505 -0.5169  0.2486
   16MOL   H23915569   5.729   3.792   0.518  0.2615  0.0226 -0.9973
   16MOL   H24015570   5.719   3.711   0.752  0.9785 -2.2372  0.7566
   16MOL   H24115571   6.013   3.707   0.944 -2.4664  2.8028  0.6931
   16MOL   H24215572   5.909   3.650   1.164 -1.0302 -0.1427  0.2871
   16MOL   H24315573   5.706   3.563   1.288 -1.7059  0.6842 -0.6218
   16MOL   H24415574   5.485   3.318   1.123  0.3485  0.3134 -0.0094
   16MOL   H24515575   5.550   3.160   1.309  1.5118  1.4633 -0.4634
   16MOL   H24615576   5.480   3.117   1.538 -0.3009 -0.5866 -1.8768
   16MOL   H24715577   5.329   3.221   1.727  0.7477 -0.4694 -1.0368
   16MOL   H24815578   5.344   3.398   1.761  1.5387  0.6172  2.0583
   16MOL   H24915579   5.413   3.542   1.584 -1.9437 -0.0631 -2.4275
   16MOL   H25015580   5.489   3.577   1.372 -0.4524  0.9661  1.8341
   16MOL   H25115581   5.595   3.358   0.925 -1.4734  1.1734  0.2763
   16MOL   H25215582   5.782   3.488   0.801  1.0943  2.2426  0.5371
   16MOL   H25315583   6.158   3.695   0.755  1.2436 -0.7439 -3.2005
   16MOL   H25415584   6.153   3.794   0.534 -0.1404 -0.4988  0.3964
   16MOL   H25515585   5.921   3.975   0.137  2.4351  1.5691 -0.5936
   16MOL   H25615586   5.823   4.194   0.107 -2.3092  0.0885 -0.1020
   16MOL   N25715587   5.511   3.278   1.807 -0.4197 -0.3842  0.4529
   16MOL   C25815588   5.499   3.247   1.940  0.2584  0.0287 -0.0889
   16MOL   C25915589   5.599   3.171   2.003  0.3186  0.1039 -0.6173
   16MOL   C26015590   5.584   3.132   2.137  0.0891  0.3675 -0.4240
   16MOL   C26115591   5.473   3.172   2.214  0.0353  0.3406 -0.0320
   16MOL   N26215592   5.455   3.127   2.345  0.1620 -0.4835  0.2277
   16MOL   C26315593   5.359   3.164   2.443 -0.4540  0.4700 -0.1704
   16MOL   C26415594   5.307   3.296   2.450 -0.0920 -0.5017  0.5273
   16MOL   C26515595   5.220   3.340   2.552 -0.1597  0.0810  0.1433
   16MOL   C26615596   5.174   3.245   2.646  0.6780 -0.6715  0.0364
   16MOL   N26715597   5.086   3.276   2.752  0.2323  0.6126 -0.4596
   16MOL   C26815598   4.989   3.380   2.758  0.0682  0.3374  0.4472
   16MOL   C26915599   4.955   3.435   2.887 -0.1168 -0.2201  0.5149
   16MOL   C27015600   4.857   3.528   2.893  0.5130 -0.4165  0.3167
   16MOL   C27115601   4.811   3.600   2.781 -0.2473  0.4926  0.0053
   16MOL   N27215602   4.711   3.698   2.791  0.0401 -0.2814 -0.0796
   16MOL   C27315603   4.633   3.745   2.679  0.3694 -0.2655 -0.1917
   16MOL   C27415604   4.621   3.882   2.659 -0.1767  0.6745 -0.0985
   16MOL   C27515605   4.536   3.926   2.561  0.0119  0.3854 -0.0314
   16MOL   C27615606   4.479   3.837   2.467  0.6016  0.3115 -0.0897
   16MOL   C27715607   4.402   3.896   2.354  0.1749  0.6607  0.2681
   16MOL   C27815608   4.497   3.703   2.486  0.2129  0.4743  0.0644
   16MOL   C27915609   4.577   3.651   2.590  0.0277 -0.4208  0.0106
   16MOL   C28015610   4.856   3.558   2.652 -0.2410  0.0866 -0.4499
   16MOL   C28115611   4.944   3.452   2.642 -0.1477 -0.0908  0.2761
   16MOL   C28215612   5.228   3.117   2.638 -0.0670  0.4017  0.7008
   16MOL   C28315613   5.316   3.072   2.540 -0.4762 -0.6060  0.4455
   16MOL   C28415614   5.371   3.237   2.147  0.4636  0.4975  0.1222
   16MOL   C28515615   5.384   3.271   2.014 -0.1679 -0.2435 -1.0599
   16MOL   H28615616   5.596   3.255   1.757 -0.1263  0.1920  0.6811
   16MOL   H28715617   5.693   3.143   1.957 -0.4107 -1.9953 -0.8634
   16MOL   H28815618   5.669   3.089   2.188 -0.2488 -0.6041 -0.6887
   16MOL   H28915619   5.510   3.044   2.366  1.9688 -0.2360 -3.1747
   16MOL   H29015620   5.350   3.363   2.377  1.4627 -2.7760 -0.6978
   16MOL   H29115621   5.189   3.443   2.555 -2.2814 -0.5576  1.6797
   16MOL   H29215622   5.083   3.211   2.829  1.1281 -0.5847 -1.4155
   16MOL   H29315623   5.002   3.386   2.971  1.8693 -0.1185 -0.5081
   16MOL   H29415624   4.827   3.555   2.993 -0.5038  1.2467 -0.4103
   16MOL   H29515625   4.723   3.771   2.859 -0.9077  1.3476 -1.6304
   16MOL   H29615626   4.657   3.961   2.724  0.1917 -0.7724  1.5089
   16MOL   H29715627   4.505   4.028   2.546 -1.8153 -0.3482 -1.4400
   16MOL   H29815628   4.341   3.820   2.306 -0.1711  1.5079 -0.6523
   16MOL   H29915629   4.472   3.936   2.281  0.5134 -3.6929 -1.9116
   16MOL   H30015630   4.440   3.636   2.423  0.8003 -2.4159  2.4860
   16MOL   H30115631   4.591   3.546   2.609 -0.9772 -0.8358 -1.4214
   16MOL   H30215632   4.833   3.617   2.566 -0.1487 -1.1433 -1.3351
   16MOL   H30315633   4.964   3.415   2.543  1.4282 -0.5804  0.7613
   16MOL   H30415634   5.205   3.047   2.716  1.1729 -2.4529 -1.4151
   16MOL   H30515635   5.342   2.968   2.535 -1.3660 -0.9008  1.7479
   16MOL   H30615636   5.283   3.266   2.202  1.0455 -0.1522  1.4255
   16MOL   H30715637   5.305   3.326   1.965 -1.2395 -1.9362 -1.2759
   16MOL   N30815638   4.314   4.005   2.381 -0.3138 -0.0280 -0.2540
   16MOL   C30915639   4.205   4.000   2.470  0.4312 -0.4023  0.8182
   16MOL   C31015640   4.106   4.099   2.453  0.1048 -0.1621  0.1019
   16MOL   C31115641   3.991   4.109   2.535 -0.2956  0.2030 -0.0349
   16MOL   C31215642   3.967   4.020   2.645  0.6698  0.5042 -0.4776
   16MOL   N31315643   3.852   4.028   2.721 -0.2313 -0.7725  0.1593
   16MOL   C31415644   3.838   4.040   2.857  0.0103  0.1759 -0.4303
   16MOL   C31515645   3.708   4.014   2.901 -0.1179  0.4631  0.2979
   16MOL   C31615646   3.685   4.046   3.037 -0.6142 -0.8198 -0.4168
   16MOL   C31715647   3.791   4.094   3.122 -0.5570  0.3699 -0.3706
   16MOL   N31815648   3.769   4.124   3.259 -0.1876 -0.0721  0.1845
   16MOL   C31915649   3.662   4.200   3.318  0.1749  0.6414  1.0612
   16MOL   C32015650   3.657   4.214   3.459  0.2129 -0.8171  0.5043
   16MOL   C32115651   3.562   4.291   3.519 -0.0380 -0.8441  0.1500
   16MOL   C32215652   3.470   4.363   3.438  0.4581  0.0496 -0.4306
   16MOL   N32315653   3.368   4.445   3.496 -0.4525 -0.6274 -0.0053
   16MOL   C32415654   3.337   4.457   3.636 -0.4725 -0.2855 -0.1942
   16MOL   C32515655   3.353   4.578   3.708 -1.3214 -0.0745  0.5257
   16MOL   C32615656   3.333   4.580   3.847 -0.4360  0.6420  0.2674
   16MOL   C32715657   3.285   4.463   3.914 -0.8330  0.4931  0.6582
   16MOL   C32815658   3.232   4.471   4.058 -0.2009  0.5695  0.7285
   16MOL   C32915659   3.281   4.341   3.844  0.1194 -0.3089 -0.0279
   16MOL   C33015660   3.304   4.340   3.704  0.3602  0.1737 -0.1337
   16MOL   C33115661   3.473   4.354   3.297 -0.0746  0.1802 -0.0391
   16MOL   C33215662   3.568   4.267   3.241 -0.3421 -0.7973  1.0110
   16MOL   C33315663   3.923   4.107   3.072 -0.1274  0.5082  0.5752
   16MOL   C33415664   3.946   4.079   2.938  0.0772  0.0072  0.1642
   16MOL   C33515665   4.066   3.920   2.667 -0.2063  0.4090 -0.4005
   16MOL   C33615666   4.182   3.909   2.582 -0.3294  0.2468  0.1518
   16MOL   H33715667   4.310   4.061   2.297 -0.2208 -0.6579 -0.6864
   16MOL   H33815668   4.116   4.172   2.374 -0.7095  0.7826  0.8747
   16MOL   H33915669   3.919   4.186   2.514 -1.9619 -0.7736  1.8718
   16MOL   H34015670   3.765   4.009   2.673 -0.3119 -0.1346  0.0471
   16MOL   H34115671   3.624   3.986   2.839 -1.5782  1.0933  1.9298
   16MOL   H34215672   3.585   4.031   3.075 -0.2456 -3.1060 -0.2624
   16MOL   H34315673   3.852   4.126   3.317  0.8469 -1.1642 -1.2274
   16MOL   H34415674   3.717   4.154   3.525  1.8912  0.8274  0.5252
   16MOL   H34515675   3.554   4.285   3.626  0.2281  1.4751  0.3075
   16MOL   H34615676   3.314   4.509   3.439  0.8238 -0.1188 -0.6541
   16MOL   H34715677   3.384   4.665   3.653  0.5953 -0.8950  0.2435
   16MOL   H34815678   3.342   4.667   3.909  0.7436  0.8974 -0.2500
   16MOL   H34915679   3.316   4.458   4.126 -0.9678  0.9764  1.7647
   16MOL   H35015680   3.165   4.386   4.073 -0.2441  0.8741  2.3477
   16MOL   H35115681   3.254   4.256   3.905 -0.1901  0.5104  0.9988
   16MOL   H35215682   3.299   4.249   3.647  1.9568 -0.1548  0.2376
   16MOL   H35315683   3.392   4.398   3.241 -0.2573 -0.9467 -0.6882
   16MOL   H35415684   3.572   4.240   3.136 -0.3703 -0.0400  0.8106
   16MOL   H35515685   4.000   4.135   3.143  0.2015  1.4802 -0.1527
   16MOL   H35615686   4.047   4.096   2.902  1.8166 -2.9551  3.3098
   16MOL   H35715687   4.052   3.840   2.739 -0.1660 -0.8361 -1.7692
   16MOL   H35815688   4.240   3.819   2.595 -3.7223 -2.0841 -0.2148
   16MOL   N35915689   3.163   4.598   4.069  0.9312  0.0516 -0.4421
   16MOL   C36015690   3.160   4.674   4.190 -0.7469  0.1782 -0.0845
   16MOL   C36115691   3.196   4.616   4.311  0.4518  0.0272  0.4736
   16MOL   C36215692   3.185   4.688   4.431  0.2614  0.1640 -0.1021
   16MOL   C36315693   3.128   4.818   4.423  0.2070  0.0490  0.4245
   16MOL   N36415694   3.117   4.879   4.546 -0.3464 -0.0037  0.2653
   16MOL   C36515695   3.023   4.965   4.587 -0.3085  0.0791  0.0029
   16MOL   C36615696   2.888   4.946   4.555  0.5528 -0.2668 -0.2285
   16MOL   C36715697   2.787   5.036   4.603  0.5838 -0.2405 -0.0371
   16MOL   C36815698   2.827   5.140   4.689 -0.1143  0.3596  0.1249
   16MOL   N36915699   2.735   5.242   4.721  0.1889 -0.0315 -0.1945
   16MOL   C37015700   2.707   5.289   4.847 -0.5779  0.2888 -0.2623
   16MOL   C37115701   2.804   5.367   4.910  0.5281  0.0957  0.0153
   16MOL   C37215702   2.779   5.407   5.045 -0.7327 -0.1638  1.1857
   16MOL   C37315703   2.667   5.360   5.111  0.5804 -0.0767  0.1167
   16MOL   N37415704   2.652   5.388   5.242  0.0418  1.1087 -0.1686
   16MOL   C37515705   2.545   5.456   5.304  0.0554 -0.7883  0.5093
   16MOL   C37615706   2.433   5.500   5.235  0.3199 -0.4458  0.2573
   16MOL   C37715707   2.344   5.588   5.301  0.1740  0.7866 -0.2474
   16MOL   C37815708   2.368   5.633   5.427 -0.1179 -0.1614 -0.3974
   16MOL   C37915709   2.270   5.725   5.498 -0.4403  0.2276 -0.4372
   16MOL   C38015710   2.478   5.584   5.495 -0.4931  0.0154 -0.5657
   16MOL   C38115711   2.565   5.494   5.435  0.6723 -0.0722 -0.5412
   16MOL   C38215712   2.572   5.272   5.046 -0.3227 -0.1983  0.3704
   16MOL   C38315713   2.590   5.249   4.910  0.2246  0.9520 -0.3816
   16MOL   C38415714   2.962   5.147   4.735  0.5664  0.0229  0.2251
   16MOL   C38515715   3.058   5.069   4.680  0.5151  0.1803  0.2120
   16MOL   C38615716   3.088   4.874   4.305 -0.0052  0.8257 -0.5495
   16MOL   C38715717   3.101   4.802   4.185 -0.5610  0.6632 -0.3247
   16MOL   H38815718   3.167   4.651   3.983  0.8490 -0.5290 -0.8049
   16MOL   H38915719   3.234   4.515   4.314 -3.0875 -1.3676  1.2444
   16MOL   H39015720   3.206   4.636   4.523  1.0883 -3.1260 -2.0615
   16MOL   H39115721   3.190   4.860   4.613 -0.2753 -0.0225  0.1821
   16MOL   H39215722   2.865   4.857   4.500 -0.6381 -0.2324  0.1937
   16MOL   H39315723   2.686   5.033   4.565 -0.1355  1.2826  1.6859
   16MOL   H39415724   2.653   5.248   4.662  2.0494 -0.3478 -2.8510
   16MOL   H39515725   2.896   5.395   4.860  1.0789  0.2677  1.1002
   16MOL   H39615726   2.858   5.456   5.100  0.1464 -0.3041  0.0926
   16MOL   H39715727   2.741   5.396   5.289 -0.8309 -0.7985  1.9247
   16MOL   H39815728   2.419   5.476   5.131 -1.9764  3.3400 -0.4064
   16MOL   H39915729   2.254   5.616   5.247  0.7707  0.7838 -1.2664
   16MOL   H40015730   2.255   5.814   5.437  1.4114  1.5806  1.0182
   16MOL   H40115731   2.311   5.769   5.588  0.5515  0.2977 -0.9082
   16MOL   H40215732   2.501   5.619   5.595 -1.8853  1.8980 -0.8810
   16MOL   H40315733   2.654   5.460   5.487  0.5742 -0.3897 -0.5798
   16MOL   H40415734   2.478   5.251   5.093  1.2175 -2.1003  2.7399
   16MOL   H40515735   2.507   5.199   4.861  0.5186  0.7397 -0.6678
   16MOL   H40615736   3.001   5.232   4.789  0.9673 -0.2198  0.3225
   16MOL   H40715737   3.159   5.102   4.700 -0.0128  1.7476  0.3906
   16MOL   H40815738   3.026   4.962   4.307 -1.7177 -0.3409  3.4002
   16MOL   H40915739   3.067   4.849   4.094 -2.4146 -0.0072 -0.0089
   16MOL   N41015740   2.147   5.652   5.517  0.5332 -0.7948 -0.9891
   16MOL   C41115741   2.131   5.574   5.629  0.3467  0.3601 -0.6274
   16MOL   C41215742   2.174   5.616   5.757  0.3018  0.0566  0.6787
   16MOL   C41315743   2.162   5.523   5.864 -0.5485  0.9876 -0.4145
   16MOL   C41415744   2.104   5.399   5.841  0.0679 -0.4716 -0.2920
   16MOL   N41515745   2.119   5.291   5.932  0.0304 -0.1128  0.4885
   16MOL   C41615746   2.143   5.287   6.067  0.1770 -0.2648 -0.0726
   16MOL   C41715747   2.222   5.175   6.116  0.5206  0.2505  0.3261
   16MOL   C41815748   2.254   5.161   6.254 -0.1341  0.0784  0.0928
   16MOL   C41915749   2.194   5.254   6.343 -0.1085  0.2068 -0.2288
   16MOL   N42015750   2.209   5.242   6.477  0.1969 -0.6318  0.0640
   16MOL   C42115751   2.187   5.127   6.552  0.1473  0.3031  0.3957
   16MOL   C42215752   2.134   5.012   6.497  0.1733  0.3244  0.2578
   16MOL   C42315753   2.117   4.901   6.581 -0.1617  0.5922  0.1694
   16MOL   C42415754   2.141   4.911   6.721 -0.5276  0.6319  0.4987
   16MOL   N42515755   2.113   4.812   6.809  0.2920 -0.0994 -0.3067
   16MOL   C42615756   2.135   4.675   6.802 -0.5708 -0.7527  0.4110
   16MOL   C42715757   2.086   4.595   6.904 -0.3724 -0.1727 -0.2402
   16MOL   C42815758   2.085   4.452   6.884  0.1599 -0.5781 -0.2192
   16MOL   C42915759   2.147   4.395   6.776 -0.7968  0.3716 -0.0199
   16MOL   C43015760   2.155   4.245   6.768 -0.0535 -0.2471 -0.1032
   16MOL   C43115761   2.211   4.480   6.678  0.8483 -0.0251 -0.3868
   16MOL   C43215762   2.197   4.619   6.692 -0.2546 -0.2579  0.6013
   16MOL   C43315763   2.185   5.039   6.774  0.9718  0.2704 -0.0598
   16MOL   C43415764   2.210   5.143   6.687  0.1829  0.7379 -0.2627
   16MOL   C43515765   2.115   5.357   6.299 -0.6428  0.3109 -0.6501
   16MOL   C43615766   2.092   5.380   6.160 -0.2647 -1.2038 -0.6200
   16MOL   C43715767   2.045   5.366   5.714 -0.2554  0.1350  0.4248
   16MOL   C43815768   2.057   5.458   5.609 -0.2156 -0.4970  0.6524
   16MOL   H43915769   2.101   5.621   5.433  2.0398 -1.1419 -1.6963
   16MOL   H44015770   2.222   5.710   5.777  1.3692 -0.0917 -1.0380
   16MOL   H44115771   2.205   5.539   5.963 -0.7785  0.3963 -0.2175
   16MOL   H44215772   2.133   5.203   5.883 -3.7569 -0.4480 -0.1254
   16MOL   H44315773   2.248   5.098   6.045  2.0937 -0.4630  1.6455
   16MOL   H44415774   2.293   5.065   6.285  0.2859  0.2681  0.1506
   16MOL   H44515775   2.261   5.316   6.521  1.3594 -0.4923 -1.4821
   16MOL   H44615776   2.112   5.000   6.392 -0.2767 -0.6121  0.4581
   16MOL   H44715777   2.071   4.812   6.541 -0.9037  0.5556  1.0975
   16MOL   H44815778   2.065   4.830   6.896 -1.0282 -1.3188 -0.7611
   16MOL   H44915779   2.032   4.625   6.993 -1.6149 -0.1841 -0.9797
   16MOL   H45015780   2.035   4.383   6.951 -0.0827  0.8499  1.1015
   16MOL   H45115781   2.201   4.219   6.864 -0.1062  1.5457  0.4302
   16MOL   H45215782   2.229   4.222   6.691 -1.7031  0.8566 -2.0735
   16MOL   H45315783   2.266   4.444   6.593 -0.7400  1.2490 -1.9975
   16MOL   H45415784   2.240   4.678   6.612  2.5973 -1.7797  0.9288
   16MOL   H45515785   2.176   5.055   6.881 -0.4083 -0.3123 -0.0826
   16MOL   H45615786   2.244   5.239   6.722  2.4141 -1.1412  2.9835
   16MOL   H45715787   2.066   5.418   6.374  2.4687  0.7396  1.1032
   16MOL   H45815788   2.016   5.447   6.122 -0.4744 -0.9857  0.1673
   16MOL   H45915789   1.984   5.278   5.699  0.8381 -0.6798  0.7047
   16MOL   H46015790   2.011   5.417   5.519 -0.6896 -0.0180  0.6738
   16MOL   N46115791   2.028   4.176   6.739  0.1799 -0.7200 -0.2379
   16MOL   C46215792   1.975   4.154   6.613 -0.0340 -0.3453  0.5281
   16MOL   C46315793   1.843   4.195   6.580 -0.0308 -0.0336 -1.0117
   16MOL   C46415794   1.799   4.184   6.453 -0.5398  0.4760  0.1985
   16MOL   C46515795   1.873   4.109   6.360 -0.7374 -0.0074  0.2620
   16MOL   N46615796   1.826   4.078   6.235 -0.0386  0.2983  0.3910
   16MOL   C46715797   1.833   4.157   6.119  0.0508  0.6176  0.1523
   16MOL   C46815798   1.808   4.107   5.991 -0.1916  0.1936  0.2493
   16MOL   C46915799   1.826   4.188   5.875  0.0550 -0.3485  0.4200
   16MOL   C47015800   1.868   4.317   5.886  1.1888 -0.3526  0.1383
   16MOL   N47115801   1.905   4.385   5.769  0.0119  0.0189  0.2227
   16MOL   C47215802   2.023   4.362   5.695 -0.2972  0.0731 -0.0896
   16MOL   C47315803   2.077   4.472   5.620 -0.4984  0.0940  0.1245
   16MOL   C47415804   2.204   4.455   5.562  0.2866 -0.3647  0.1963
   16MOL   C47515805   2.276   4.338   5.569  0.2739 -0.0545 -0.1987
   16MOL   N47615806   2.396   4.333   5.497 -0.0833  0.3406  0.0182
   16MOL   C47715807   2.493   4.233   5.488 -0.6223 -0.1418 -0.5725
   16MOL   C47815808   2.631   4.258   5.513  0.1278 -0.6424 -0.3944
   16MOL   C47915809   2.723   4.152   5.519  0.5563 -0.2675  0.3379
   16MOL   C48015810   2.686   4.021   5.484 -0.5094 -0.5017 -0.5599
   16MOL   C48115811   2.778   3.901   5.491 -0.5633  0.1150  0.5120
   16MOL   C48215812   2.552   3.998   5.446 -0.0028 -0.3937  0.5290
   16MOL   C48315813   2.457   4.102   5.444 -0.1906  0.1071 -0.1582
   16MOL   C48415814   2.224   4.234   5.644  0.3818 -0.0556 -0.0976
   16MOL   C48515815   2.098   4.244   5.707  0.0221  0.6836 -0.1126
   16MOL   C48615816   1.885   4.375   6.014  0.2404 -0.0595 -0.0287
   16MOL   C48715817   1.870   4.294   6.127  0.2986 -0.2090  0.5509
   16MOL   C48815818   2.004   4.060   6.389 -0.0169  0.0480 -0.3422
   16MOL   C48915819   2.058   4.085   6.520  0.9236  0.6358  0.2046
   16MOL   H49015820   1.956   4.193   6.808  1.3174 -1.3199  1.1048
   16MOL   H49115821   1.791   4.254   6.654 -2.1450 -1.6365 -1.1948
   16MOL   H49215822   1.711   4.238   6.419  1.6125  1.8467 -3.4878
   16MOL   H49315823   1.797   3.984   6.212 -1.2153  0.8138 -0.2669
   16MOL   H49415824   1.772   4.006   5.975 -1.8401  0.5671  1.5866
   16MOL   H49515825   1.808   4.138   5.781 -4.2055  0.4984  0.6841
   16MOL   H49615826   1.897   4.486   5.776 -0.0080  0.1565 -1.5340
   16MOL   H49715827   2.030   4.570   5.617  2.3842  1.4860 -1.1754
   16MOL   H49815828   2.246   4.543   5.515  0.3612 -2.8339 -4.6733
   16MOL   H49915829   2.434   4.422   5.469 -3.6963  1.5540 -1.3206
   16MOL   H50015830   2.670   4.354   5.544 -1.9135  0.4164 -0.9578
   16MOL   H50115831   2.818   4.187   5.556  0.4319  1.1787 -0.6442
   16MOL   H50215832   2.740   3.826   5.421  3.2527 -1.0665 -0.4247
   16MOL   H50315833   2.758   3.860   5.590  0.8483 -0.0580  0.7407
   16MOL   H50415834   2.528   3.893   5.434 -1.6781 -0.0358  0.5782
   16MOL   H50515835   2.354   4.078   5.420 -1.1006  2.5066  1.1455
   16MOL   H50615836   2.287   4.149   5.663  0.1279  0.2199  2.1314
   16MOL   H50715837   2.074   4.166   5.777 -1.2027  1.6216  0.5264
   16MOL   H50815838   1.899   4.482   6.022 -1.4555  0.1834 -0.1105
   16MOL   H50915839   1.887   4.344   6.221  0.5551 -3.7536  2.4695
   16MOL   H51015840   2.068   4.022   6.310  0.3405 -0.1498  0.0343
   16MOL   H51115841   2.154   4.043   6.548  0.3718  0.6114  2.1301
   16MOL   N51215842   2.914   3.933   5.463 -0.6991 -0.3391  0.4606
   16MOL   C51315843   2.992   3.854   5.373  0.7364  0.3666 -0.0497
   16MOL   C51415844   2.984   3.713   5.366  0.3851 -0.3903 -0.1605
   16MOL   C51515845   3.069   3.647   5.276  0.5519 -0.0993 -0.2029
   16MOL   C51615846   3.168   3.711   5.208 -0.4050  0.1169 -0.1496
   16MOL   N51715847   3.251   3.657   5.109  0.4101 -1.2912 -0.2476
   16MOL   C51815848   3.236   3.541   5.042 -0.1153  0.2111  0.0806
   16MOL   C51915849   3.347   3.469   5.008  0.4764 -0.1838 -0.2999
   16MOL   C52015850   3.337   3.352   4.935  0.0295  0.8423 -0.0797
   16MOL   C52115851   3.212   3.304   4.892 -0.2622 -0.3358 -0.4414
   16MOL   N52215852   3.196   3.178   4.837  0.0657  0.7419 -0.5082
   16MOL   C52315853   3.210   3.155   4.699  0.4942  0.0463 -0.8072
   16MOL   C52415854   3.112   3.076   4.634  0.2337  0.2309  0.3220
   16MOL   C52515855   3.125   3.043   4.497  0.1457  0.0607  0.1101
   16MOL   C52615856   3.227   3.097   4.429 -0.1554  0.7414  0.4577
   16MOL   N52715857   3.263   3.060   4.298  0.4011  0.2622  0.3305
   16MOL   C52815858   3.204   2.962   4.215 -0.1669  0.8531  0.4413
   16MOL   C52915859   3.193   2.987   4.075 -0.3636 -0.0767  0.3242
   16MOL   C53015860   3.127   2.900   3.991 -0.0097 -0.3184  0.5277
   16MOL   C53115861   3.064   2.785   4.044  0.4247  0.5383  0.0404
   16MOL   C53215862   2.972   2.688   3.961  0.2945  0.4700 -0.5410
   16MOL   C53315863   3.073   2.759   4.180  0.0246 -0.6069 -0.3820
   16MOL   C53415864   3.150   2.841   4.261  0.1081  0.3166 -0.3661
   16MOL   C53515865   3.319   3.181   4.488  0.3088 -0.0755 -0.2222
   16MOL   C53615866   3.314   3.213   4.621 -0.4418  0.7062  0.0603
   16MOL   C53715867   3.098   3.380   4.921 -0.1876  0.4072 -0.3908
   16MOL   C53815868   3.109   3.497   4.995  0.3710  0.5425 -0.2787
   16MOL   C53915869   3.176   3.850   5.217  0.2450  0.2365  0.3607
   16MOL   C54015870   3.088   3.918   5.299 -0.9217 -0.2625  0.4396
   16MOL   H54115871   2.931   4.032   5.454 -0.2644 -0.4412  0.1241
   16MOL   H54215872   2.905   3.662   5.418  0.0980 -0.0375 -0.2408
   16MOL   H54315873   3.060   3.540   5.263 -1.6729  0.3005 -2.5218
   16MOL   H54415874   3.304   3.732   5.067  0.5299 -0.1544  1.8748
   16MOL   H54515875   3.447   3.498   5.037 -0.5067 -0.6849  3.8564
   16MOL   H54615876   3.426   3.294   4.916 -0.0563  0.1228  1.5863
   16MOL   H54715877   3.104   3.143   4.860  0.1819  0.6829 -0.1261
   16MOL   H54815878   3.031   3.033   4.690  1.8244 -0.8308  1.8296
   16MOL   H54915879   3.052   2.979   4.450 -0.8826 -0.6455  2.5584
   16MOL   H55015880   3.322   3.134   4.261 -0.8512  2.6130  2.7745
   16MOL   H55115881   3.237   3.075   4.031 -0.6529 -0.6789 -1.1968
   16MOL   H55215882   3.120   2.921   3.885  2.7752 -0.6865  0.2508
   16MOL   H55315883   3.039   2.607   3.935 -1.3447 -0.8603 -0.6450
   16MOL   H55415884   2.942   2.745   3.873  1.6462 -0.6928 -1.7663
   16MOL   H55515885   3.026   2.672   4.226  0.7917 -0.1743  1.2448
   16MOL   H55615886   3.156   2.809   4.364 -1.3031 -0.2333 -0.4418
   16MOL   H55715887   3.401   3.212   4.425  0.7514 -1.2635 -0.2474
   16MOL   H55815888   3.386   3.271   4.677  1.3932 -1.2069 -0.2628
   16MOL   H55915889   2.996   3.356   4.895 -0.4920 -0.4909  1.5207
   16MOL   H56015890   3.010   3.536   5.016  0.1399 -0.8703  1.3349
   16MOL   H56115891   3.243   3.891   5.143 -0.3110  0.4676 -0.0253
   16MOL   H56215892   3.099   4.026   5.291 -1.8672  0.0677  2.9483
   16MOL   N56315893   2.857   2.633   4.039 -0.0411  0.2879  0.4739
   16MOL   C56415894   2.759   2.567   3.965 -0.3936 -1.1799  0.0962
   16MOL   C56515895   2.736   2.584   3.823 -0.3736  0.0447  0.3907
   16MOL   C56615896   2.628   2.518   3.759  0.2877  0.3038  0.5112
   16MOL   C56715897   2.534   2.446   3.830  0.2342  1.2789 -0.8674
   16MOL   N56815898   2.426   2.389   3.759  0.7731  0.6933 -0.6812
   16MOL   C56915899   2.293   2.373   3.796  0.5903 -0.6944 -0.0635
   16MOL   C57015900   2.242   2.454   3.898  0.5223 -0.2144 -0.1553
   16MOL   C57115901   2.112   2.438   3.942  0.2129 -0.3052 -0.1412
   16MOL   C57215902   2.027   2.346   3.876 -0.2784 -0.3192  0.2191
   16MOL   N57315903   1.903   2.323   3.920 -0.1825  0.1334  0.4554
   16MOL   C57415904   1.791   2.292   3.846 -0.0873 -0.3727 -0.0251
   16MOL   C57515905   1.758   2.359   3.729 -0.4097 -1.2084 -0.1393
   16MOL   C57615906   1.656   2.308   3.639  0.3631 -0.3736  0.1962
   16MOL   C57715907   1.587   2.187   3.673  0.9464  0.0526 -0.7019
   16MOL   N57815908   1.490   2.132   3.589 -0.2683  0.0644 -0.0356
   16MOL   C57915909   1.460   1.996   3.564  0.1430 -0.4166  0.0999
   16MOL   C58015910   1.335   1.965   3.509 -0.0080  0.0510 -0.8026
   16MOL   C58115911   1.301   1.829   3.490 -0.3231  0.1546 -0.4327
   16MOL   C58215912   1.399   1.722   3.526  1.0984 -1.0565 -0.3306
   16MOL   C58315913   1.359   1.574   3.515  0.2525  0.0015  0.0400
   16MOL   C58415914   1.531   1.763   3.553  0.2378  0.2234 -0.8234
   16MOL   C58515915   1.560   1.898   3.583  0.1254  0.0018 -0.1489
   16MOL   C58615916   1.623   2.129   3.795  0.1306  0.4646 -1.0272
   16MOL   C58715917   1.721   2.178   3.885 -0.3573 -0.2210 -0.2426
   16MOL   C58815918   2.083   2.265   3.770  0.4738  0.6636 -0.3030
   16MOL   C58915919   2.214   2.285   3.726  0.0544  0.0590 -0.8188
   16MOL   C59015920   2.552   2.432   3.968 -0.6901 -0.0405  0.9069
   16MOL   C59115921   2.657   2.498   4.034  0.2875 -0.2463 -0.0408
   16MOL   H59215922   2.883   2.620   4.136  0.6373 -0.9704  0.1270
   16MOL   H59315923   2.806   2.646   3.769  0.4869  1.4419  3.0351
   16MOL   H59415924   2.627   2.523   3.651  0.4716 -0.2647  0.4815
   16MOL   H59515925   2.432   2.399   3.659 -0.1732 -0.8500 -0.9093
   16MOL   H59615926   2.300   2.521   3.961 -0.2149  0.9626 -0.7046
   16MOL   H59715927   2.074   2.493   4.027  0.4087 -0.1541 -0.1514
   16MOL   H59815928   1.896   2.325   4.021  2.4084 -0.1865  0.6945
   16MOL   H59915929   1.820   2.440   3.693 -0.2523 -0.6796  1.2846
   16MOL   H60015930   1.636   2.362   3.548  0.7015 -2.2724 -1.0539
   16MOL   H60115931   1.480   2.193   3.509 -0.3485 -0.0517 -0.1151
   16MOL   H60215932   1.264   2.044   3.493  0.3119  0.4009 -0.5085
   16MOL   H60315933   1.202   1.794   3.463 -0.0528 -2.0252  1.2962
   16MOL   H60415934   1.446   1.525   3.473 -2.1535 -5.3256  0.8827
   16MOL   H60515935   1.277   1.576   3.444  0.0932  1.5733  0.2447
   16MOL   H60615936   1.601   1.683   3.568  1.9346  1.7669 -0.3286
   16MOL   H60715937   1.658   1.923   3.623  0.6884  0.2856 -1.6944
   16MOL   H60815938   1.584   2.033   3.825  1.8293 -0.1374 -0.6829
   16MOL   H60915939   1.764   2.124   3.968  1.2957  0.3883 -0.6836
   16MOL   H61015940   2.019   2.195   3.717  0.6925 -0.7405  1.2521
   16MOL   H61115941   2.251   2.218   3.651  1.4199  0.2728 -0.3409
   16MOL   H61215942   2.473   2.380   4.021 -3.2038  1.4699 -1.2743
   16MOL   H61315943   2.656   2.495   4.141 -1.0728  0.9842 -0.0008
   16MOL   N61415944   1.317   1.508   3.643 -0.0778 -0.0736 -0.6319
   16MOL   C61515945   1.394   1.533   3.754  0.4372  0.6549 -0.7126
   16MOL   C61615946   1.532   1.510   3.749  0.6977 -0.0166 -0.6854
   16MOL   C61715947   1.614   1.553   3.853  0.2562 -0.8403 -0.0107
   16MOL   C61815948   1.555   1.616   3.970  0.7145 -0.0748 -0.0375
   16MOL   N61915949   1.634   1.670   4.070 -0.2529  1.0165 -0.3247
   16MOL   C62015950   1.754   1.745   4.058  0.0026  0.1533 -1.1224
   16MOL   C62115951   1.774   1.822   3.942  0.0275 -1.0459  0.7275
   16MOL   C62215952   1.888   1.898   3.920  0.5037 -0.1913 -0.5747
   16MOL   C62315953   1.986   1.902   4.021  0.3938  0.0422  0.4854
   16MOL   N62415954   2.104   1.980   4.002  0.1123  0.4929  0.3163
   16MOL   C62515955   2.225   1.935   3.945 -0.3998  0.3449  0.3309
   16MOL   C62615956   2.241   1.803   3.895  0.5252  0.6763  0.4115
   16MOL   C62715957   2.359   1.763   3.826  0.0262  0.7279 -0.9226
   16MOL   C62815958   2.466   1.858   3.810  0.2959 -0.2447 -0.3811
   16MOL   N62915959   2.590   1.812   3.762  0.6571 -0.0203 -0.2074
   16MOL   C63015960   2.697   1.881   3.712  0.1782  0.4945  0.9781
   16MOL   C63115961   2.825   1.831   3.738  0.1816  0.2647  0.5831
   16MOL   C63215962   2.933   1.888   3.671  0.5153  0.6487  0.1843
   16MOL   C63315963   2.914   2.002   3.582 -0.2293  0.1399 -0.1250
   16MOL   C63415964   3.031   2.071   3.514 -0.5544  0.1360 -0.4558
   16MOL   C63515965   2.784   2.041   3.561  0.8021 -0.4554  0.1731
   16MOL   C63615966   2.673   1.986   3.626  0.0912  0.2302  0.1372
   16MOL   C63715967   2.448   1.994   3.850 -0.0368  0.2646  0.5204
   16MOL   C63815968   2.327   2.030   3.912 -0.1356 -0.3897  0.2791
   16MOL   C63915969   1.971   1.821   4.140  0.3974 -0.1592  0.2068
   16MOL   C64015970   1.849   1.751   4.164 -0.3565 -0.1312 -0.0287
   16MOL   C64115971   1.415   1.620   3.982  0.4277 -0.0595  0.0633
   16MOL   C64215972   1.334   1.579   3.873  0.2188  0.1650  0.3370
   16MOL   H64315973   1.217   1.518   3.656 -0.1601 -0.5054 -0.9197
   16MOL   H64415974   1.572   1.471   3.656  2.6521  3.1164 -1.2071
   16MOL   H64515975   1.720   1.539   3.838  0.1472 -1.7505  0.0017
   16MOL   H64615976   1.598   1.667   4.165 -1.5051 -0.5375 -0.8344
   16MOL   H64715977   1.694   1.825   3.869  1.3209 -2.8307 -0.7957
   16MOL   H64815978   1.901   1.950   3.826  1.5445  0.3012 -0.1679
   16MOL   H64915979   2.104   2.079   4.020 -0.9086  0.7039 -0.7477
   16MOL   H65015980   2.151   1.744   3.894  1.0321 -0.1031 -0.0874
   16MOL   H65115981   2.370   1.660   3.794 -1.5262 -0.2777  1.5495
   16MOL   H65215982   2.607   1.718   3.795 -1.4281  0.2999  1.9217
   16MOL   H65315983   2.832   1.749   3.807 -2.4213  1.4104  2.3087
   16MOL   H65415984   3.036   1.860   3.689  0.2357 -2.1043 -2.2090
   16MOL   H65515985   3.129   2.030   3.539 -0.7045  0.3099  0.4346
   16MOL   H65615986   3.024   2.175   3.546  1.6419  0.8366 -2.1787
   16MOL   H65715987   2.764   2.117   3.487  1.2945 -0.8485 -0.3690
   16MOL   H65815988   2.572   2.019   3.609  0.2435  0.5925 -0.0790
   16MOL   H65915989   2.526   2.068   3.842 -2.6882  3.1179  0.3263
   16MOL   H66015990   2.313   2.135   3.937 -0.0512  0.5245 -3.2319
   16MOL   H66115991   2.047   1.829   4.216 -0.1849  1.8212  0.6186
   16MOL   H66215992   1.841   1.712   4.264  0.9319  0.4351  0.3077
   16MOL   H66315993   1.361   1.653   4.070 -3.0253 -3.4197 -0.6878
   16MOL   H66415994   1.228   1.588   3.886 -0.1181 -1.9296 -0.8171
   16MOL   N66515995   3.029   2.067   3.366  0.2473 -0.1188 -0.0814
   16MOL   C66615996   3.123   2.150   3.310 -0.2819 -0.1210 -0.2530
   16MOL   C66715997   3.123   2.287   3.341 -0.3756  0.0347 -0.1011
   16MOL   C66815998   3.216   2.372   3.281  0.0685  0.2211 -0.1945
   16MOL   C66915999   3.317   2.318   3.192  0.6886  0.7885  0.1108
   16MOL   N67016000   3.418   2.401   3.142 -0.2971  0.0428  0.0383
   16MOL   C67116001   3.405   2.529   3.088  1.0299  0.2363  0.6311
   16MOL   C67216002   3.276   2.582   3.051 -0.0367  0.5948 -0.2019
   16MOL   C67316003   3.261   2.710   3.000 -0.5677  0.3387 -0.1544
   16MOL   C67416004   3.376   2.789   2.974 -0.0820  0.3616  0.4499
   16MOL   N67516005   3.363   2.925   2.939  0.4874 -0.5627  0.8646
   16MOL   C67616006   3.270   2.998   2.861  1.1422 -0.7823  0.6371
   16MOL   C67716007   3.165   2.934   2.795 -0.3149  0.0177 -0.2081
   16MOL   C67816008   3.077   3.006   2.718 -0.4300  0.0249 -0.1310
   16MOL   C67916009   3.078   3.146   2.720 -0.1326 -0.3343  0.4387
   16MOL   N68016010   2.979   3.223   2.659 -0.0551 -0.1247  0.2177
   16MOL   C68116011   2.915   3.342   2.710  0.5150 -0.3200 -0.7574
   16MOL   C68216012   2.863   3.428   2.611 -0.0824  0.3352 -0.3418
   16MOL   C68316013   2.803   3.551   2.648  0.3701  0.7680  0.2778
   16MOL   C68416014   2.805   3.594   2.773 -0.2722  0.0599  0.0001
   16MOL   C68516015   2.760   3.735   2.812  0.2634  0.0039  0.1323
   16MOL   C68616016   2.852   3.509   2.877 -0.3728 -0.1640  0.0444
   16MOL   C68716017   2.917   3.388   2.842  0.5046  0.9987  0.2388
   16MOL   C68816018   3.181   3.213   2.790 -0.8107  1.0144 -0.6752
   16MOL   C68916019   3.275   3.141   2.864 -0.1285  0.3456  0.7949
   16MOL   C69016020   3.499   2.736   3.002 -0.7147  0.2656  1.1040
   16MOL   C69116021   3.519   2.610   3.065 -0.4684  0.6445  0.2980
   16MOL   C69216022   3.305   2.183   3.148  0.4621  0.0963  0.3569
   16MOL   C69316023   3.216   2.101   3.214  0.3462 -0.1158 -0.2660
   16MOL   H69416024   3.018   1.979   3.319 -0.2294 -0.1239  0.0410
   16MOL   H69516025   3.039   2.326   3.397 -1.1944  1.2535 -2.1137
   16MOL   H69616026   3.228   2.474   3.316  0.1610  0.8503 -2.0049
   16MOL   H69716027   3.507   2.354   3.129 -0.3443 -0.0903  0.2016
   16MOL   H69816028   3.181   2.533   3.064  0.1010 -0.3980 -2.6065
   16MOL   H69916029   3.163   2.752   2.981 -0.2712  0.1528 -2.1617
   16MOL   H70016030   3.448   2.977   2.955  0.1968  0.1244  0.1902
   16MOL   H70116031   3.163   2.826   2.794 -1.1933  0.0291 -2.2651
   16MOL   H70216032   3.001   2.951   2.664 -0.7956 -0.1032  0.5061
   16MOL   H70316033   2.922   3.178   2.588 -0.6526  1.0184 -0.0324
   16MOL   H70416034   2.871   3.397   2.508  2.0513  0.2798 -0.1854
   16MOL   H70516035   2.762   3.618   2.574  1.9038  0.3827 -0.9406
   16MOL   H70616036   2.828   3.775   2.887  0.8778  2.0482 -1.4796
   16MOL   H70716037   2.660   3.727   2.855  0.0658 -0.8298 -0.4723
   16MOL   H70816038   2.839   3.545   2.978  1.2454  1.3906 -0.2870
   16MOL   H70916039   2.958   3.323   2.918 -2.0491  0.1923  0.9976
   16MOL   H71016040   3.175   3.321   2.792  2.0205  1.2251 -1.2258
   16MOL   H71116041   3.358   3.166   2.928  0.7796 -2.5003  0.8044
   16MOL   H71216042   3.589   2.792   2.982 -1.0845  0.1741 -0.8545
   16MOL   H71316043   3.617   2.577   3.095 -1.1590 -1.6515  0.1296
   16MOL   H71416044   3.376   2.142   3.078  0.2753 -1.0304  0.8213
   16MOL   H71516045   3.227   1.996   3.192  1.5708 -0.2497  0.9075
   16MOL   N71616046   2.763   3.839   2.709 -0.5587  0.0341 -0.2746
   16MOL   C71716047   2.727   3.970   2.731 -0.3135 -0.1631  0.2928
   16MOL   C71816048   2.655   4.011   2.848 -0.0581  0.5387  0.6627
   16MOL   C71916049   2.617   4.142   2.863  0.3171  0.2103 -0.3947
   16MOL   C72016050   2.636   4.232   2.754  0.4471  0.3376 -0.6167
   16MOL   N72116051   2.591   4.365   2.754 -1.1132  0.1768 -0.0801
   16MOL   C72216052   2.525   4.433   2.860 -0.0568  0.6870  0.2092
   16MOL   C72316053   2.406   4.508   2.846 -0.2104  0.3349  0.2811
   16MOL   C72416054   2.355   4.576   2.955 -0.1073 -0.1621  0.5354
   16MOL   C72516055   2.426   4.573   3.080  0.2895 -0.6944 -0.9835
   16MOL   N72616056   2.360   4.629   3.198 -0.3147  0.5308  0.3088
   16MOL   C72716057   2.391   4.617   3.331 -0.1772  0.3713  0.1096
   16MOL   C72816058   2.374   4.732   3.414  0.6476  0.7099 -0.2383
   16MOL   C72916059   2.394   4.717   3.556  0.4375 -0.5948 -0.3996
   16MOL   C73016060   2.438   4.597   3.609 -0.9814 -0.3069  0.3989
   16MOL   N73116061   2.465   4.585   3.748 -0.0918  0.4715 -0.1299
   16MOL   C73216062   2.429   4.477   3.832 -0.0855 -0.1004  0.1746
   16MOL   C73316063   2.491   4.353   3.816  0.4819  0.2752 -0.7007
   16MOL   C73416064   2.453   4.246   3.905 -0.1893  0.3594 -0.0172
   16MOL   C73516065   2.365   4.266   4.006  0.1295  0.1901  0.8617
   16MOL   C73616066   2.332   4.159   4.105  0.5996 -0.0522  0.3688
   16MOL   C73716067   2.300   4.387   4.017 -0.1768 -0.4560  0.4370
   16MOL   C73816068   2.332   4.495   3.933 -0.5168  0.0507 -0.0848
   16MOL   C73916069   2.446   4.488   3.528  0.0259  0.5109  0.2930
   16MOL   C74016070   2.424   4.493   3.389  0.0378 -0.4449  0.2147
   16MOL   C74116071   2.552   4.514   3.090  0.2220 -1.4270  0.4120
   16MOL   C74216072   2.600   4.440   2.981  0.4915  0.6249 -0.4150
   16MOL   C74316073   2.704   4.189   2.635 -0.1884  0.4974  0.2134
   16MOL   C74416074   2.757   4.061   2.625 -0.5753 -0.2783 -0.1156
   16MOL   H74516075   2.835   3.816   2.642 -0.6559 -0.8954 -0.0710
   16MOL   H74616076   2.638   3.939   2.926 -1.3009  1.2431  1.0609
   16MOL   H74716077   2.575   4.163   2.961  0.0546  1.9085 -0.8527
   16MOL   H74816078   2.563   4.381   2.659  1.1238  1.5531 -0.5655
   16MOL   H74916079   2.354   4.516   2.752 -1.2544 -0.7587  0.7396
   16MOL   H75016080   2.261   4.627   2.941 -0.0434  0.5474  2.5668
   16MOL   H75116081   2.279   4.684   3.177 -0.2542  0.0284 -1.3503
   16MOL   H75216082   2.344   4.825   3.369  0.4725  0.8322  0.1353
   16MOL   H75316083   2.385   4.803   3.620  0.8746 -0.5118 -0.4483
   16MOL   H75416084   2.444   4.673   3.791 -1.8873  0.2224 -0.4730
   16MOL   H75516085   2.574   4.332   3.751  0.9781  1.2612 -0.3910
   16MOL   H75616086   2.519   4.161   3.918  0.5391  0.9421  0.0970
   16MOL   H75716087   2.409   4.175   4.181 -0.6149 -0.4183  1.6962
   16MOL   H75816088   2.354   4.064   4.056 -0.4202  0.6280 -1.4371
   16MOL   H75916089   2.232   4.399   4.099  1.0542  2.4023  1.1098
   16MOL   H76016090   2.288   4.593   3.948 -0.1315  0.4574 -1.5551
   16MOL   H76116091   2.478   4.396   3.573  0.7538  0.3522 -0.5500
   16MOL   H76216092   2.437   4.402   3.332  1.8026 -0.4315  0.5863
   16MOL   H76316093   2.600   4.510   3.186 -0.0333 -0.4804  0.5854
   16MOL   H76416094   2.692   4.385   2.999  0.5462  0.8051 -0.1388
   16MOL   H76516095   2.737   4.254   2.554 -0.8688  0.9951  0.3347
   16MOL   H76616096   2.816   4.026   2.541 -0.7109 -0.7906 -0.0008
   16MOL   N76716097   2.193   4.145   4.147  0.3510  0.4227 -0.5124
   16MOL   C76816098   2.163   4.124   4.283  0.2527  0.4850 -0.4741
   16MOL   C76916099   2.236   4.200   4.379 -0.5770 -0.2784  0.0017
   16MOL   C77016100   2.202   4.189   4.521 -0.0404  0.1110  0.5313
   16MOL   C77116101   2.103   4.100   4.562 -0.1739 -1.1798  0.0780
   16MOL   N77216102   2.067   4.085   4.697  0.2427  0.1753 -0.4987
   16MOL   C77316103   2.157   4.053   4.799  0.0055 -0.6915  0.2300
   16MOL   C77416104   2.144   3.930   4.867  0.6393 -0.4554 -0.5108
   16MOL   C77516105   2.247   3.901   4.956 -0.3057  0.4183  0.3254
   16MOL   C77616106   2.367   3.979   4.968  0.5837  0.1618  0.8389
   16MOL   N77716107   2.470   3.936   5.051 -0.0738  0.1383 -0.2984
   16MOL   C77816108   2.534   3.813   5.052 -0.0216 -0.0424  0.0560
   16MOL   C77916109   2.658   3.795   5.121 -0.0177  0.5316  0.6630
   16MOL   C78016110   2.723   3.670   5.108  0.2740 -0.6659 -0.2816
   16MOL   C78116111   2.665   3.561   5.036  0.0762 -0.6088  0.2193
   16MOL   N78216112   2.726   3.436   5.052  0.3008  0.4148  0.1709
   16MOL   C78316113   2.732   3.332   4.960 -0.1206 -0.8540  0.0050
   16MOL   C78416114   2.761   3.200   5.001  0.3455  0.0000 -0.4461
   16MOL   C78516115   2.760   3.095   4.906 -0.2882  0.4665 -0.7337
   16MOL   C78616116   2.726   3.114   4.769  0.3719  0.3410 -0.4115
   16MOL   C78716117   2.716   2.998   4.674  0.0300  0.5688  0.7082
   16MOL   C78816118   2.691   3.245   4.732 -0.1130  0.4004  0.2703
   16MOL   C78916119   2.697   3.349   4.825 -0.6692 -0.3156  0.3825
   16MOL   C79016120   2.549   3.585   4.962 -0.3278  0.5994 -0.4962
   16MOL   C79116121   2.489   3.705   4.968  0.2453  0.0796 -0.0236
   16MOL   C79216122   2.370   4.104   4.910  0.0498  0.9587  0.1586
   16MOL   C79316123   2.264   4.140   4.824  0.8237 -0.8139  0.1203
   16MOL   C79416124   2.029   4.032   4.463 -0.6128  0.4018 -0.0877
   16MOL   C79516125   2.055   4.045   4.323  0.4307 -0.1833 -0.4179
   16MOL   H79616126   2.141   4.101   4.073  0.9724  0.6246 -1.0737
   16MOL   H79716127   2.302   4.278   4.345 -0.2151  0.2774  1.9341
   16MOL   H79816128   2.259   4.256   4.584  0.2029  0.4558 -0.0507
   16MOL   H79916129   1.982   4.029   4.703  0.2736  0.0836 -0.8880
   16MOL   H80016130   2.063   3.861   4.850 -0.0179 -0.0383  0.9213
   16MOL   H80116131   2.244   3.805   5.003  0.5173 -0.3930 -1.2297
   16MOL   H80216132   2.524   4.002   5.106 -0.3942 -0.1719  0.3933
   16MOL   H80316133   2.695   3.876   5.181 -0.5093  0.7863  0.6269
   16MOL   H80416134   2.807   3.651   5.173  1.0054  0.9816 -0.7304
   16MOL   H80516135   2.771   3.409   5.138  1.4096  0.1385 -0.4825
   16MOL   H80616136   2.784   3.183   5.105 -0.5534 -0.0311 -0.2517
   16MOL   H80716137   2.790   3.001   4.951 -1.2286  0.8989  0.8228
   16MOL   H80816138   2.816   2.981   4.633  0.4437  2.4373  0.9087
   16MOL   H80916139   2.656   3.039   4.593 -0.3507 -0.1206  0.6368
   16MOL   H81016140   2.663   3.265   4.630 -2.2258  0.3978  0.8262
   16MOL   H81116141   2.674   3.447   4.788  2.2836  0.2634  0.0149
   16MOL   H81216142   2.513   3.510   4.893  0.3437 -0.6325  0.4821
   16MOL   H81316143   2.406   3.702   4.898  0.5775 -1.0659 -0.3793
   16MOL   H81416144   2.459   4.163   4.927 -0.1290  1.4078 -0.4497
   16MOL   H81516145   2.278   4.237   4.779  1.3103 -0.9604 -0.0445
   16MOL   H81616146   1.946   3.969   4.490  0.0489 -0.2351  0.4645
   16MOL   H81716147   1.995   3.987   4.255 -2.2703  1.7332  0.2183
   16MOL   N81816148   2.664   2.881   4.729 -0.5511 -0.0706 -0.4212
   16MOL   C81916149   2.689   2.757   4.669 -0.1967 -0.4843 -0.4323
   16MOL   C82016150   2.727   2.742   4.534 -0.5655 -0.1196 -0.8006
   16MOL   C82116151   2.715   2.611   4.477 -0.1225  0.3323 -0.0605
   16MOL   C82216152   2.695   2.500   4.559 -0.0279  0.6676 -0.1291
   16MOL   N82316153   2.708   2.375   4.504  0.7811 -0.2349  0.2078
   16MOL   C82416154   2.662   2.251   4.548 -0.2151  0.0768  0.5001
   16MOL   C82516155   2.527   2.248   4.587 -0.3265 -0.1803 -0.2986
   16MOL   C82616156   2.474   2.128   4.641  0.3201 -0.6258  0.0908
   16MOL   C82716157   2.559   2.012   4.646  0.2225 -0.3338 -0.7002
   16MOL   N82816158   2.498   1.890   4.689  0.0509  0.1648 -0.3035
   16MOL   C82916159   2.558   1.781   4.764  0.1881 -0.3765 -0.3770
   16MOL   C83016160   2.491   1.658   4.763  0.3655 -0.0467  0.5177
   16MOL   C83116161   2.537   1.552   4.839  0.0072  0.6652  0.5596
   16MOL   C83216162   2.650   1.565   4.923  0.2370  0.2219 -0.2652
   16MOL   N83316163   2.694   1.456   5.002 -0.3119 -0.1425  0.2675
   16MOL   C83416164   2.800   1.456   5.091  0.1568 -0.7376  0.6154
   16MOL   C83516165   2.911   1.368   5.073 -0.0492 -0.7409  0.2090
   16MOL   C83616166   3.022   1.391   5.147 -0.5412  0.4513  0.6585
   16MOL   C83716167   3.026   1.488   5.253 -0.9063  0.4817  0.0030
   16MOL   C83816168   3.155   1.507   5.332  0.5210  0.4403  0.2496
   16MOL   C83916169   2.912   1.569   5.278  0.5065 -0.0569  0.4062
   16MOL   C84016170   2.802   1.552   5.195 -0.3980 -0.0388 -0.3662
   16MOL   C84116171   2.721   1.688   4.919  0.0866 -0.0490  0.2365
   16MOL   C84216172   2.672   1.797   4.844  0.0269 -0.5307 -0.0138
   16MOL   C84316173   2.696   2.016   4.610  0.0945  0.2397 -0.2155
   16MOL   C84416174   2.752   2.138   4.568  0.1204  0.5082 -0.1689
   16MOL   C84516175   2.680   2.513   4.701 -0.0494 -0.3248  0.1200
   16MOL   C84616176   2.679   2.642   4.752  0.7992 -0.3135  0.1389
   16MOL   H84716177   2.620   2.890   4.820 -1.7939  0.6947 -1.0941
   16MOL   H84816178   2.758   2.822   4.469  2.5255 -1.4015 -0.9566
   16MOL   H84916179   2.743   2.607   4.372 -1.3221  1.0362 -0.4102
   16MOL   H85016180   2.714   2.379   4.403 -1.2651 -0.0300  0.0703
   16MOL   H85116181   2.465   2.337   4.584  1.7379  1.3604  1.1198
   16MOL   H85216182   2.371   2.121   4.675 -0.6906 -0.6970 -2.8820
   16MOL   H85316183   2.407   1.867   4.654 -1.1456  2.6017  1.0963
   16MOL   H85416184   2.395   1.658   4.713  0.2506  0.6335  0.7387
   16MOL   H85516185   2.479   1.462   4.831  0.4425  0.4258  0.0646
   16MOL   H85616186   2.642   1.370   5.009  1.8038 -1.4910  0.0572
   16MOL   H85716187   2.917   1.299   4.990 -1.4584 -1.4221  0.6566
   16MOL   H85816188   3.107   1.331   5.119  0.7264  1.2739  2.6412
   16MOL   H85916189   3.160   1.410   5.380  1.7307  1.5042  2.3601
   16MOL   H86016190   3.133   1.578   5.412  0.0020  1.5592 -0.8566
   16MOL   H86116191   2.902   1.639   5.359  1.6087  0.8799 -0.2617
   16MOL   H86216192   2.713   1.613   5.205  0.4014  0.9039  1.0860
   16MOL   H86316193   2.812   1.704   4.974  0.3717 -0.7066 -0.0392
   16MOL   H86416194   2.737   1.883   4.843 -0.8816  0.1669  0.4789
   16MOL   H86516195   2.758   1.929   4.605 -0.2526 -0.0966  1.0159
   16MOL   H86616196   2.856   2.142   4.538  0.0265  3.6974 -0.1990
   16MOL   H86716197   2.679   2.430   4.770  2.7241 -0.1395  0.4663
   16MOL   H86816198   2.673   2.658   4.858  0.5633 -0.0696  0.0892
   16MOL   N86916199   3.277   1.535   5.251 -0.8906  0.5371 -0.1182
   16MOL   C87016200   3.404   1.510   5.304 -0.0488  0.5644  0.1590
   16MOL   C87116201   3.421   1.470   5.439 -0.1042 -0.1998 -0.3821
   16MOL   C87216202   3.553   1.461   5.491 -0.1161  0.2581 -0.2669
   16MOL   C87316203   3.666   1.478   5.404  0.4623  0.0573  0.0610
   16MOL   N87416204   3.796   1.462   5.454  0.0786  0.3360  0.0686
   16MOL   C87516205   3.910   1.439   5.375 -0.0143 -0.3913  0.0118
   16MOL   C87616206   3.964   1.308   5.376 -0.4673  0.1520  0.5840
   16MOL   C87716207   4.070   1.286   5.288  0.2142 -0.0838 -0.4696
   16MOL   C87816208   4.128   1.386   5.205 -0.7491 -0.8442  0.4275
   16MOL   N87916209   4.232   1.353   5.120  0.1882  0.1175  0.8242
   16MOL   C88016210   4.335   1.433   5.068 -0.2170 -0.4836 -0.0425
   16MOL   C88116211   4.383   1.400   4.938 -0.0093 -0.5470  0.1506
   16MOL   C88216212   4.496   1.464   4.888  0.1702 -0.2522 -0.3771
   16MOL   C88316213   4.566   1.554   4.967 -0.0528  0.4682 -0.7614
   16MOL   N88416214   4.691   1.598   4.938  0.7368 -0.0064  0.3364
   16MOL   C88516215   4.755   1.619   4.814  0.7656  0.1272  0.0291
   16MOL   C88616216   4.682   1.630   4.691 -0.3871  0.3073  1.1847
   16MOL   C88716217   4.745   1.663   4.572  0.1419  0.5357  0.0457
   16MOL   C88816218   4.886   1.661   4.566 -0.0250  0.3961  0.2478
   16MOL   C88916219   4.966   1.691   4.444 -0.1759 -0.1644  0.7976
   16MOL   C89016220   4.952   1.644   4.686  0.3499  0.0152  0.6265
   16MOL   C89116221   4.892   1.622   4.812 -0.5856  0.2826 -0.5746
   16MOL   C89216222   4.521   1.580   5.100 -0.9492  0.4922 -0.5891
   16MOL   C89316223   4.409   1.511   5.155 -0.6496 -0.3641 -0.1714
   16MOL   C89416224   4.073   1.519   5.205 -0.9957  0.4671 -0.7757
   16MOL   C89516225   3.968   1.540   5.295  0.2079  0.7111 -0.3836
   16MOL   C89616226   3.644   1.505   5.270 -0.4187  0.4112 -0.6905
   16MOL   C89716227   3.517   1.523   5.218 -0.2034 -1.0748 -0.2882
   16MOL   H89816228   3.261   1.535   5.151  3.6242  2.6384 -0.9676
   16MOL   H89916229   3.337   1.451   5.504  0.6420 -0.1883  0.6041
   16MOL   H90016230   3.574   1.449   5.596 -2.9855  1.4521  0.4973
   16MOL   H90116231   3.813   1.420   5.544  0.7243  0.6578  0.1002
   16MOL   H90216232   3.935   1.226   5.440 -0.9200  0.2886  0.5584
   16MOL   H90316233   4.102   1.183   5.287 -1.4956 -0.6087 -0.8470
   16MOL   H90416234   4.218   1.263   5.075 -0.2747  0.2823  0.6376
   16MOL   H90516235   4.331   1.325   4.881  1.4135 -0.1694 -1.6728
   16MOL   H90616236   4.526   1.430   4.790  0.3617  1.9382 -1.1071
   16MOL   H90716237   4.745   1.638   5.013  0.7547  3.2447 -1.3197
   16MOL   H90816238   4.575   1.613   4.697 -0.1038 -1.4843  1.2471
   16MOL   H90916239   4.680   1.678   4.488  1.2337 -0.7015 -1.0393
   16MOL   H91016240   5.070   1.720   4.453 -0.2274  0.2136  0.1942
   16MOL   H91116241   4.912   1.781   4.414  0.8488  1.0146  2.4069
   16MOL   H91216242   5.060   1.646   4.677  0.3659 -0.7479  0.5944
   16MOL   H91316243   4.951   1.599   4.899  0.6849 -1.4465 -1.8473
   16MOL   H91416244   4.573   1.650   5.165  2.7749 -1.0113 -1.8511
   16MOL   H91516245   4.380   1.550   5.251  2.3758  1.9840 -0.1158
   16MOL   H91616246   4.120   1.603   5.157 -0.4609  1.6197  1.6802
   16MOL   H91716247   3.924   1.638   5.303  1.9746  1.5933 -1.3386
   16MOL   H91816248   3.726   1.489   5.202 -0.0630  0.9758 -0.3961
   16MOL   H91916249   3.513   1.559   5.116  0.4814  1.7299  0.6126
   16MOL   N92016250   4.960   1.592   4.333  0.1605  0.3153 -0.5387
   16MOL   C92116251   5.014   1.464   4.350  0.5651 -0.0605  0.0714
   16MOL   C92216252   5.088   1.425   4.462  0.2829 -0.1228  0.2640
   16MOL   C92316253   5.134   1.297   4.478  0.0584 -0.8223 -0.0079
   16MOL   C92416254   5.106   1.201   4.381  0.7555  0.1927 -0.3442
   16MOL   N92516255   5.155   1.070   4.391  0.9085  0.3494  0.0713
   16MOL   C92616256   5.284   1.028   4.417 -0.0549  0.0817 -0.4674
   16MOL   C92716257   5.392   1.114   4.418 -0.3684 -0.3749  0.1076
   16MOL   C92816258   5.520   1.093   4.465  0.2220 -0.1593 -0.4348
   16MOL   C92916259   5.543   0.962   4.508 -0.1835  0.2483 -0.3861
   16MOL   N93016260   5.665   0.932   4.580 -0.3211 -0.3494  1.0275
   16MOL   C93116261   5.772   1.009   4.587  0.2237  0.3428  0.5044
   16MOL   C93216262   5.835   1.021   4.716  0.4548 -0.0015  0.2509
   16MOL   C93316263   5.946   1.106   4.724 -0.4130  0.1920 -0.0361
   16MOL   C93416264   5.993   1.175   4.611 -0.0439  0.2255 -0.0734
   16MOL   N93516265   6.097   1.261   4.621  0.3362 -0.9415  0.3124
   16MOL   C93616266   6.111   1.378   4.542  0.6157 -0.6306  0.4025
   16MOL   C93716267   5.993   1.459   4.529  0.1026  0.4348 -0.9756
   16MOL   C93816268   6.018   1.595   4.495 -0.4413  0.2655  0.3478
   16MOL   C93916269   6.146   1.644   4.464  0.4956 -0.2987 -0.4354
   16MOL   C94016270   6.160   1.787   4.434  0.2848  0.0441  0.0902
   16MOL   C94116271   6.256   1.559   4.471 -0.2558 -0.2882  0.2983
   16MOL   C94216272   6.240   1.426   4.507  0.1426  0.3713  0.3434
   16MOL   C94316273   5.935   1.153   4.483  0.0845 -0.4427  0.1924
   16MOL   C94416274   5.825   1.064   4.471  0.2118 -0.6300 -0.2250
   16MOL   C94516275   5.440   0.867   4.508  0.4787 -0.6863  0.2423
   16MOL   C94616276   5.310   0.896   4.461 -0.8430 -0.1160  0.7098
   16MOL   C94716277   5.022   1.242   4.274 -0.0105 -0.0836 -0.0927
   16MOL   C94816278   4.971   1.369   4.258  0.7871 -0.5226 -0.1371
   16MOL   H94916279   4.911   1.609   4.247  1.2574 -0.0775 -1.2430
   16MOL   H95016280   5.112   1.496   4.540 -1.9220 -0.3609  1.2169
   16MOL   H95116281   5.187   1.265   4.566 -1.6619 -2.0255  0.6333
   16MOL   H95216282   5.083   1.001   4.371 -1.8948  3.0142  0.5007
   16MOL   H95316283   5.370   1.217   4.395 -1.3060 -0.6567 -0.2971
   16MOL   H95416284   5.596   1.170   4.466  1.3859 -1.2918 -0.0085
   16MOL   H95516285   5.650   0.878   4.664  0.5279 -2.3035 -0.0529
   16MOL   H95616286   5.792   0.976   4.805 -1.7147 -0.2528 -0.9025
   16MOL   H95716287   6.002   1.116   4.815 -0.1088 -0.3207 -0.1636
   16MOL   H95816288   6.166   1.243   4.692 -0.0056  1.0923  1.1964
   16MOL   H95916289   5.893   1.422   4.546  0.2806 -0.2387 -1.3437
   16MOL   H96016290   5.936   1.666   4.490 -1.0078 -0.5381 -2.3883
   16MOL   H96116291   6.066   1.840   4.417  0.6831  0.4469 -0.8877
   16MOL   H96216292   6.213   1.797   4.339 -0.1714 -0.8234 -0.2578
   16MOL   H96316293   6.356   1.598   4.458 -0.9823  1.3180 -0.7682
   16MOL   H96416294   6.331   1.371   4.529  0.1380  1.0978  2.2718
   16MOL   H96516295   5.970   1.201   4.393 -1.2382  0.5607  0.1983
   16MOL   H96616296   5.788   1.043   4.372  1.5809  1.2312 -1.1484
   16MOL   H96716297   5.459   0.770   4.551 -0.2357  0.0051  2.1704
   16MOL   H96816298   5.235   0.818   4.462 -0.3756 -0.6043 -0.9352
   16MOL   H96916299   5.000   1.168   4.199 -0.9656  0.0453  0.0590
   16MOL   H97016300   4.903   1.385   4.177 -0.2955  1.1803  1.0818
   16MOL   N97116301   6.238   1.859   4.526 -0.7744  0.1883  0.0456
   16MOL   C97216302   6.266   1.992   4.508  0.7012  0.3622  0.6384
   16MOL   C97316303   6.217   2.067   4.396  0.3217  0.3528 -0.5528
   16MOL   C97416304   6.248   2.204   4.382  0.0032  0.4709  0.5202
   16MOL   C97516305   6.325   2.276   4.472  0.2998 -0.3232 -0.2453
   16MOL   N97616306   6.357   2.408   4.465  0.9823  0.1874  0.6318
   16MOL   C97716307   6.273   2.517   4.464 -0.0020  0.5684 -0.7905
   16MOL   C97816308   6.156   2.527   4.542  0.6251 -0.2978  0.3678
   16MOL   C97916309   6.068   2.632   4.520  0.1694  0.1129  0.2404
   16MOL   C98016310   6.097   2.732   4.427 -1.0341 -0.6122  0.6917
   16MOL   N98116311   6.003   2.837   4.415  0.5182  0.1540  0.0166
   16MOL   C98216312   6.019   2.955   4.338  0.0769 -0.0295  0.3875
   16MOL   C98316313   5.912   3.003   4.251 -0.0223  0.1819 -0.2005
   16MOL   C98416314   5.908   3.124   4.185  0.3130 -0.3693  0.2014
   16MOL   C98516315   6.020   3.203   4.193  0.0141 -0.1908 -0.7732
   16MOL   N98616316   6.018   3.325   4.131  0.4195  0.0166 -0.2211
   16MOL   C98716317   6.123   3.401   4.081  0.1250  0.4403  0.4329
   16MOL   C98816318   6.108   3.543   4.071 -0.3355  0.0235 -0.1815
   16MOL   C98916319   6.218   3.617   4.012  0.2224 -0.8518 -0.5629
   16MOL   C99016320   6.338   3.556   3.976 -0.3756 -1.1160 -0.5907
   16MOL   C99116321   6.463   3.632   3.929 -0.4633 -0.4130 -0.1024
   16MOL   C99216322   6.349   3.423   3.996  0.0319  0.3159 -0.1191
   16MOL   C99316323   6.248   3.345   4.048  0.5258 -0.1080 -0.3249
   16MOL   C99416324   6.124   3.171   4.283 -0.0983  0.5741 -0.2597
   16MOL   C99516325   6.127   3.047   4.356 -0.0215 -1.3215  0.7956
   16MOL   C99616326   6.230   2.740   4.372  0.2681 -0.1965 -0.1045
   16MOL   C99716327   6.308   2.625   4.380  0.2054  0.3145  0.3345
   16MOL   C99816328   6.375   2.201   4.580 -0.1319  0.7883  0.6112
   16MOL   C99916329   6.349   2.064   4.603  0.2991  0.3558 -0.0029
   16MOL     H116330   6.289   1.803   4.593  0.0191 -0.0246 -0.7289
   16MOL     H216331   6.162   2.027   4.312  0.4393  1.3387 -1.1074
   16MOL     H316332   6.217   2.247   4.288  1.4131  0.6165  0.1045
   16MOL     H416333   6.456   2.430   4.468  0.8353  1.1949 -1.1376
   16MOL     H516334   6.131   2.447   4.610 -0.4240  0.3143  0.7116
   16MOL     H616335   5.972   2.622   4.567 -0.8737  0.1585 -1.8536
   16MOL     H716336   5.908   2.806   4.430  0.0282  0.8264 -1.6001
   16MOL     H816337   5.826   2.938   4.239 -0.8605  1.0352  0.9932
   16MOL     H916338   5.838   3.139   4.104 -1.1422 -2.2786  1.0521
   16MOL    H1016339   5.925   3.363   4.126  1.3539  2.1961 -1.9391
   16MOL    H1116340   6.024   3.601   4.107 -0.5789  0.6464 -1.7478
   16MOL    H1216341   6.216   3.725   4.006 -0.0424 -0.8238  0.0418
   16MOL    H1316342   6.554   3.570   3.930  0.3435  0.7649  0.2425
   16MOL    H1416343   6.474   3.719   3.993 -0.0799 -0.4516 -0.1110
   16MOL    H1516344   6.440   3.368   3.979  0.7341  1.1275  1.0109
   16MOL    H1616345   6.277   3.244   4.075  0.1902  0.0850  0.8097
   16MOL    H1716346   6.207   3.239   4.287 -1.6527  2.5341 -0.7246
   16MOL    H1816347   6.205   3.025   4.426  0.2762  0.1505  0.9459
   16MOL    H1916348   6.253   2.819   4.303  0.2652  0.7545  0.9534
   16MOL    H2016349   6.394   2.623   4.316 -0.5868 -4.0184 -0.7952
   16MOL    H2116350   6.421   2.250   4.665 -0.8423 -0.1848  1.5761
   16MOL    H2216351   6.395   2.034   4.696 -0.7739 -0.0560  0.4081
   16MOL    H2316352   6.456   3.659   3.823  0.0495 -2.9287 -0.8253
   17MOL     N116353   3.420   5.460   3.363 -0.1943 -0.2758 -0.3797
   17MOL     C216354   3.404   5.371   3.473  0.5836  0.8227  0.7038
   17MOL     C316355   3.275   5.346   3.513 -0.0550  0.1892  0.5676
   17MOL     C416356   3.253   5.248   3.613 -0.8448  0.3339  0.6892
   17MOL     C516357   3.357   5.192   3.692  0.5446 -0.4125 -0.0218
   17MOL     N616358   3.336   5.117   3.807 -0.4538  0.3557  0.4501
   17MOL     C716359   3.417   5.019   3.864  0.2036  0.0193  0.5778
   17MOL     C816360   3.514   4.949   3.785  0.2236 -0.0089 -0.2446
   17MOL     C916361   3.591   4.847   3.846  0.2299  0.5129 -0.2238
   17MOL    C1016362   3.567   4.809   3.981  0.5594 -0.3199 -0.7320
   17MOL    N1116363   3.637   4.699   4.042  0.3121 -0.1941 -0.5587
   17MOL    C1216364   3.614   4.640   4.170  0.2876 -0.2794 -0.6473
   17MOL    C1316365   3.591   4.501   4.185 -0.1069  0.0673  0.0653
   17MOL    C1416366   3.588   4.443   4.306 -0.1820  0.3750 -0.3259
   17MOL    C1516367   3.614   4.516   4.421  0.2626 -0.3941 -0.3264
   17MOL    N1616368   3.616   4.450   4.544  0.1532  0.5858  0.2873
   17MOL    C1716369   3.691   4.491   4.659 -0.5267  0.0994 -0.1152
   17MOL    C1816370   3.819   4.542   4.648  0.0142  0.3697 -0.5291
   17MOL    C1916371   3.902   4.558   4.761  0.5486 -0.2876 -0.6220
   17MOL    C2016372   3.842   4.534   4.885  0.3475 -0.1634 -0.0753
   17MOL    C2116373   3.911   4.566   5.013 -0.2111  0.0526  0.1370
   17MOL    C2216374   3.706   4.500   4.896 -0.4110 -0.0895  0.0665
   17MOL    C2316375   3.636   4.457   4.782 -0.4793  0.5436 -0.2234
   17MOL    C2416376   3.628   4.658   4.421 -0.3695  0.0168 -0.3728
   17MOL    C2516377   3.629   4.714   4.293  0.2877 -0.1150 -0.3199
   17MOL    C2616378   3.454   4.862   4.055  0.2327 -0.0423  0.0398
   17MOL    C2716379   3.383   4.970   3.993  0.3977 -0.4621 -0.6259
   17MOL    C2816380   3.487   5.224   3.649  0.5229  0.1342  0.0622
   17MOL    C2916381   3.506   5.306   3.536 -0.5102  0.4982 -0.3328
   17MOL    H3016382   3.506   5.444   3.312 -0.0278 -2.0313  0.3942
   17MOL    H3116383   3.196   5.401   3.464  0.0155 -0.6187 -0.4702
   17MOL    H3216384   3.150   5.229   3.638 -1.0384 -0.0123 -0.3356
   17MOL    H3316385   3.242   5.124   3.844  0.4789 -0.4919  3.1337
   17MOL    H3416386   3.527   4.967   3.679  0.0856 -1.7714 -0.5651
   17MOL    H3516387   3.680   4.806   3.799  0.4696  2.1397 -1.2353
   17MOL    H3616388   3.660   4.629   3.972  0.9972  1.6422 -2.2231
   17MOL    H3716389   3.578   4.430   4.104  3.1717  0.8499 -1.2086
   17MOL    H3816390   3.559   4.340   4.320  1.5785  0.1069  1.7756
   17MOL    H3916391   3.530   4.400   4.561  1.4542 -1.9742 -0.3544
   17MOL    H4016392   3.869   4.563   4.554  0.9060 -0.3319 -0.2206
   17MOL    H4116393   4.007   4.578   4.748  0.5979 -0.4473 -0.4702
   17MOL    H4216394   4.017   4.550   4.996 -0.3629 -1.0355  0.2049
   17MOL    H4316395   3.886   4.491   5.088 -2.7780  0.1397 -0.5669
   17MOL    H4416396   3.656   4.496   4.992 -0.4637  0.5446  0.0685
   17MOL    H4516397   3.534   4.422   4.790  0.0691 -0.8692  0.6218
   17MOL    H4616398   3.650   4.707   4.514 -1.4625 -1.8462  0.9051
   17MOL    H4716399   3.644   4.820   4.281  2.4507 -0.5547 -1.6791
   17MOL    H4816400   3.425   4.821   4.150 -0.1404 -3.0795 -1.3319
   17MOL    H4916401   3.312   5.025   4.054  0.0279 -1.0198 -0.5518
   17MOL    H5016402   3.578   5.182   3.689  0.3545 -2.5021 -2.1150
   17MOL    H5116403   3.607   5.327   3.502  0.0563 -2.8920 -0.8991
   17MOL    H5216404   3.336   5.488   3.315 -1.1143  0.7165  1.7641
   17MOL    N5316405   3.873   4.697   5.046  0.5275 -1.0214 -0.3709
   17MOL    C5416406   3.948   4.778   5.131 -0.5373 -0.2787 -0.3186
   17MOL    C5516407   4.066   4.726   5.195  0.1424 -0.1413 -0.2931
   17MOL    C5616408   4.134   4.814   5.275  0.5311  0.2356  0.2939
   17MOL    C5716409   4.101   4.953   5.291 -0.6959  0.6685  0.2379
   17MOL    N5816410   4.188   5.034   5.360  0.3901 -0.7551  0.0220
   17MOL    C5916411   4.262   5.148   5.322 -1.0122 -0.3367 -0.1779
   17MOL    C6016412   4.292   5.175   5.189 -0.1006  0.0259  0.1277
   17MOL    C6116413   4.367   5.286   5.158  0.2579 -0.7757  0.2233
   17MOL    C6216414   4.398   5.382   5.256  0.3547  0.2601  0.3605
   17MOL    N6316415   4.463   5.504   5.220  0.0326  0.0062 -0.1562
   17MOL    C6416416   4.577   5.567   5.273  0.0467 -0.1621 -1.0354
   17MOL    C6516417   4.613   5.699   5.229  0.2084 -0.0107 -0.1239
   17MOL    C6616418   4.730   5.757   5.283  0.0708  1.0512 -0.1063
   17MOL    C6716419   4.811   5.686   5.374 -0.2426  0.1560 -1.1067
   17MOL    N6816420   4.931   5.747   5.421 -0.1925  0.3923 -0.2050
   17MOL    C6916421   5.013   5.833   5.363  0.2463 -0.3020  0.3096
   17MOL    C7016422   5.025   5.849   5.225 -0.4805 -0.7124  0.6281
   17MOL    C7116423   5.114   5.949   5.166 -0.4197  1.1176  0.0319
   17MOL    C7216424   5.190   6.030   5.247 -0.2875 -0.0786  0.2089
   17MOL    C7316425   5.284   6.131   5.189 -0.1505  0.4680 -0.0333
   17MOL    C7416426   5.186   6.013   5.388  0.3978  0.2278 -0.0400
   17MOL    C7516427   5.097   5.913   5.445 -0.3522 -0.6021 -0.4562
   17MOL    C7616428   4.777   5.554   5.415  0.4836 -0.3591 -0.4459
   17MOL    C7716429   4.662   5.496   5.360  0.0183  0.5393 -0.8003
   17MOL    C7816430   4.374   5.355   5.395 -0.1983  0.1178 -0.0334
   17MOL    C7916431   4.305   5.235   5.422  0.1182 -0.1925  0.4383
   17MOL    C8016432   3.992   5.001   5.221  0.5334 -0.3491  0.0478
   17MOL    C8116433   3.912   4.918   5.142 -0.3798 -0.3721 -0.7586
   17MOL    H8216434   3.818   4.745   4.976 -0.7421 -1.0575  0.6000
   17MOL    H8316435   4.085   4.620   5.192  1.8584  0.0691  2.1105
   17MOL    H8416436   4.222   4.765   5.315  2.2057  1.6188 -1.5587
   17MOL    H8516437   4.205   4.999   5.453  0.4261  0.2280  0.3941
   17MOL    H8616438   4.272   5.109   5.106 -0.0721 -1.4559  1.2746
   17MOL    H8716439   4.398   5.306   5.056 -1.9083 -0.6886 -0.4473
   17MOL    H8816440   4.436   5.542   5.130  0.2826 -1.4382 -0.8687
   17MOL    H8916441   4.556   5.759   5.159  0.8903  0.5599 -0.1860
   17MOL    H9016442   4.758   5.860   5.271 -3.3528  1.8830 -1.4432
   17MOL    H9116443   4.936   5.742   5.522 -0.4910 -1.2244 -0.2509
   17MOL    H9216444   4.961   5.789   5.162  0.0667  2.0062 -2.6866
   17MOL    H9316445   5.107   5.960   5.059  1.3670  0.0952 -0.2088
   17MOL    H9416446   5.290   6.141   5.081  0.3828  0.5699  0.0066
   17MOL    H9516447   5.379   6.091   5.224 -0.5892 -0.9685 -0.4480
   17MOL    H9616448   5.246   6.081   5.446  0.2304  0.9461 -0.6964
   17MOL    H9716449   5.092   5.909   5.553 -2.4295  0.1529 -0.4909
   17MOL    H9816450   4.837   5.491   5.480  2.6326 -0.8033 -2.7687
   17MOL    H9916451   4.641   5.393   5.384  0.1864  0.5786 -0.4897
   17MOL   H10016452   4.405   5.422   5.474  1.0738  1.1089 -1.3542
   17MOL   H10116453   4.299   5.220   5.528  1.3121  2.0652  0.8615
   17MOL   H10216454   3.960   5.104   5.225 -3.7350 -1.4896 -1.8440
   17MOL   H10316455   3.822   4.956   5.096 -1.4445 -2.2520 -0.2755
   17MOL   N10416456   5.252   6.265   5.237 -0.4248  0.2950 -0.4911
   17MOL   C10516457   5.330   6.375   5.191  0.0656 -0.1474  0.5233
   17MOL   C10616458   5.261   6.498   5.176 -0.0124 -0.2310  0.3079
   17MOL   C10716459   5.337   6.608   5.130 -0.6457 -0.3441  0.3644
   17MOL   C10816460   5.471   6.598   5.099  0.0164  0.3575  0.4614
   17MOL   N10916461   5.538   6.706   5.041 -0.1906 -0.0863  0.2740
   17MOL   C11016462   5.506   6.763   4.918 -1.1143  0.2456  0.3387
   17MOL   C11116463   5.571   6.881   4.870 -0.5519  0.2776 -0.1733
   17MOL   C11216464   5.555   6.923   4.732 -0.2231  0.2876 -0.5448
   17MOL   C11316465   5.470   6.857   4.647  0.2144  0.3036 -0.3090
   17MOL   N11416466   5.451   6.906   4.520 -0.2581  0.6597  0.2447
   17MOL   C11516467   5.444   6.839   4.393 -0.0815 -0.1344 -0.0856
   17MOL   C11616468   5.342   6.886   4.315  0.9734 -0.0368 -0.0086
   17MOL   C11716469   5.317   6.827   4.190 -0.1236  0.0274  0.0591
   17MOL   C11816470   5.407   6.726   4.142 -0.1011 -0.6471 -0.0625
   17MOL   N11916471   5.386   6.677   4.019 -0.8273 -0.5808 -0.4088
   17MOL   C12016472   5.480   6.636   3.928  0.0085 -0.1446  0.0994
   17MOL   C12116473   5.616   6.684   3.928  0.0853  0.4200 -0.6969
   17MOL   C12216474   5.718   6.612   3.850  0.1125 -0.3149 -0.1722
   17MOL   C12316475   5.678   6.509   3.758 -0.0562  0.5291  0.1835
   17MOL   C12416476   5.783   6.455   3.654  0.0735 -0.4081 -0.4720
   17MOL   C12516477   5.544   6.472   3.746 -0.4699  0.2030 -0.4143
   17MOL   C12616478   5.444   6.536   3.828 -0.4074  0.7792 -0.7058
   17MOL   C12716479   5.513   6.679   4.222  0.0268 -0.5724 -0.4134
   17MOL   C12816480   5.533   6.739   4.350  0.2888  0.1327  0.9329
   17MOL   C12916481   5.405   6.739   4.691 -0.4580 -0.1234 -0.2842
   17MOL   C13016482   5.421   6.697   4.825  0.1376  0.9596 -0.3643
   17MOL   C13116483   5.539   6.477   5.114 -0.2024  0.0213  0.6565
   17MOL   C13216484   5.467   6.367   5.160  0.5799  0.5382 -0.4175
   17MOL   H13316485   5.159   6.272   5.275  0.3991 -2.2381  2.1468
   17MOL   H13416486   5.161   6.513   5.214 -0.5228  0.2875 -1.2051
   17MOL   H13516487   5.290   6.702   5.106 -0.6420 -0.5898 -0.6658
   17MOL   H13616488   5.634   6.719   5.071 -0.4632  0.4274  0.9627
   17MOL   H13716489   5.637   6.938   4.934 -2.4627  0.7286  1.4252
   17MOL   H13816490   5.608   7.012   4.699  0.6170 -0.5237 -1.4025
   17MOL   H13916491   5.454   7.006   4.506 -0.1064  0.5998 -0.1573
   17MOL   H14016492   5.284   6.969   4.352 -0.7906 -0.5825 -1.4967
   17MOL   H14116493   5.236   6.862   4.127  0.8143 -0.7397 -1.6172
   17MOL   H14216494   5.293   6.678   3.980 -0.6217  1.2293 -0.8955
   17MOL   H14316495   5.643   6.766   3.993 -0.6008  0.4261 -0.4162
   17MOL   H14416496   5.817   6.654   3.865 -0.5545  1.0046  0.6201
   17MOL   H14516497   5.838   6.375   3.704  1.2454 -0.0264 -1.1199
   17MOL   H14616498   5.847   6.532   3.611 -0.1271 -1.2275 -2.2440
   17MOL   H14716499   5.515   6.406   3.664  0.3251  1.7225 -1.9519
   17MOL   H14816500   5.339   6.510   3.827 -0.3620  0.4120  1.2556
   17MOL   H14916501   5.578   6.601   4.185  1.9522  1.5568 -1.6130
   17MOL   H15016502   5.614   6.710   4.415 -1.3456 -2.0674  2.0960
   17MOL   H15116503   5.347   6.677   4.624  1.2015 -1.0653 -0.8840
   17MOL   H15216504   5.361   6.609   4.844 -0.4997  1.3513 -0.5182
   17MOL   H15316505   5.645   6.467   5.092 -0.0987  1.4149  0.5181
   17MOL   H15416506   5.514   6.273   5.187  1.3390  1.1398  0.3767
   17MOL   N15516507   5.720   6.394   3.538 -0.1139 -0.2678  0.1873
   17MOL   C15616508   5.782   6.294   3.461 -0.8626  0.4795 -0.0640
   17MOL   C15716509   5.922   6.263   3.489  0.7800  0.6856  0.9187
   17MOL   C15816510   5.983   6.160   3.412 -0.7975 -0.1156 -0.9132
   17MOL   C15916511   5.920   6.101   3.304 -0.7689  0.2828 -0.4991
   17MOL   N16016512   5.995   6.010   3.222 -0.0058  0.2417  0.1141
   17MOL   C16116513   5.944   5.913   3.132 -0.4739  1.0345  0.1316
   17MOL   C16216514   5.815   5.847   3.138 -0.2302 -0.2520 -0.2103
   17MOL   C16316515   5.779   5.745   3.051 -0.2802 -0.4388 -0.4063
   17MOL   C16416516   5.874   5.697   2.956 -0.3100 -0.4332 -1.0078
   17MOL   N16516517   5.841   5.595   2.865  0.0910  1.0681 -0.2167
   17MOL   C16616518   5.805   5.463   2.894 -0.2687 -0.5149  0.0816
   17MOL   C16716519   5.774   5.388   2.779  0.0045 -0.2391  0.1094
   17MOL   C16816520   5.745   5.257   2.793 -0.8181  0.1362  0.5008
   17MOL   C16916521   5.749   5.194   2.915 -0.2766  0.6085  0.4451
   17MOL   N17016522   5.746   5.055   2.906  0.2099 -0.2142 -0.0127
   17MOL   C17116523   5.769   4.955   3.003 -0.1512  0.9625  0.0725
   17MOL   C17216524   5.723   4.827   2.973 -0.3545  0.2252  0.5628
   17MOL   C17316525   5.744   4.722   3.063  0.6246 -0.4399 -0.7717
   17MOL   C17416526   5.815   4.746   3.181 -0.2327  0.7216  0.2314
   17MOL   C17516527   5.828   4.638   3.288 -0.2722  0.3905  0.5196
   17MOL   C17616528   5.878   4.870   3.209  0.1090 -1.1047  0.4253
   17MOL   C17716529   5.855   4.985   3.122 -0.0598 -0.2686 -0.6191
   17MOL   C17816530   5.766   5.271   3.036  0.3895 -0.1399 -0.2197
   17MOL   C17916531   5.788   5.410   3.022  0.2217 -0.2939  0.3978
   17MOL   C18016532   6.003   5.758   2.948  0.0014  0.1201  0.5423
   17MOL   C18116533   6.041   5.863   3.035  0.1194  0.4604  0.1233
   17MOL   C18216534   5.786   6.135   3.281  0.3583 -0.0114  0.8260
   17MOL   C18316535   5.715   6.228   3.357  0.0655  0.2703  0.2048
   17MOL   H18416536   5.625   6.421   3.517 -0.5793 -2.7211 -0.9351
   17MOL   H18516537   5.975   6.293   3.578  0.5876 -1.3305  1.7563
   17MOL   H18616538   6.084   6.131   3.437 -0.6589  1.6776  0.6911
   17MOL   H18716539   6.090   6.038   3.201  0.1734 -0.6024 -0.1924
   17MOL   H18816540   5.746   5.880   3.215 -3.2652 -0.4537 -2.7700
   17MOL   H18916541   5.688   5.696   3.081 -1.0884  0.5160 -1.2513
   17MOL   H19016542   5.840   5.632   2.771 -0.1192 -0.2155 -0.7285
   17MOL   H19116543   5.781   5.417   2.676  1.0089 -2.3512 -0.4444
   17MOL   H19216544   5.732   5.190   2.710  0.0567 -0.8609  1.1605
   17MOL   H19316545   5.710   5.018   2.819  0.3723  0.8332 -0.5334
   17MOL   H19416546   5.670   4.815   2.879  0.5733  1.9069 -0.2119
   17MOL   H19516547   5.706   4.623   3.041  0.5700 -0.8070  0.9006
   17MOL   H19616548   5.777   4.654   3.383  1.1069 -0.1353  1.3583
   17MOL   H19716549   5.927   4.644   3.333  0.9054 -2.7403 -1.4509
   17MOL   H19816550   5.936   4.882   3.299  1.8313 -0.2852 -0.7716
   17MOL   H19916551   5.889   5.083   3.149 -1.3821 -0.9500  3.8493
   17MOL   H20016552   5.750   5.230   3.134  0.0079  1.1444  0.2611
   17MOL   H20116553   5.796   5.477   3.107  0.8446  0.0656  0.0579
   17MOL   H20216554   6.068   5.715   2.873 -2.3809 -0.2136 -1.3863
   17MOL   H20316555   6.133   5.919   3.030  0.8308 -0.6755  0.3388
   17MOL   H20416556   5.720   6.080   3.215  0.4258 -1.6442  2.0865
   17MOL   H20516557   5.613   6.250   3.332  0.3155  1.3406  0.1143
   17MOL   N20616558   5.784   4.505   3.245 -0.3425 -0.7761 -0.0496
   17MOL   C20716559   5.861   4.419   3.169 -0.4140 -0.0772 -0.5702
   17MOL   C20816560   5.972   4.462   3.091  0.2767 -0.6352 -0.0721
   17MOL   C20916561   6.042   4.370   3.013 -0.4113  0.1583  0.3072
   17MOL   C21016562   5.994   4.235   2.993  0.5881 -0.1474  0.6572
   17MOL   N21116563   6.043   4.161   2.886 -0.0703 -0.2473  0.1558
   17MOL   C21216564   6.170   4.182   2.838 -0.5394  0.4145  0.4503
   17MOL   C21316565   6.286   4.187   2.926 -0.3099  0.4946 -0.8502
   17MOL   C21416566   6.412   4.200   2.870  0.1035  0.5583  0.2690
   17MOL   C21516567   6.431   4.190   2.732  0.4666  0.4594  0.3940
   17MOL   N21616568   6.559   4.196   2.677  0.1211 -0.2052 -0.0758
   17MOL   C21716569   6.669   4.268   2.730 -0.1601  0.3568 -0.1629
   17MOL   C21816570   6.804   4.222   2.732 -0.1717  0.6010 -0.5638
   17MOL   C21916571   6.910   4.289   2.800  0.0175 -0.0886  0.4709
   17MOL   C22016572   6.889   4.413   2.854 -0.1582 -0.3835  0.6518
   17MOL   N22116573   6.996   4.477   2.906  0.4892  0.5734  0.2851
   17MOL   C22216574   6.999   4.601   2.971  0.4042 -0.0981 -0.0242
   17MOL   C22316575   7.111   4.692   2.940 -0.0909 -0.0424 -0.2157
   17MOL   C22416576   7.130   4.802   3.018 -0.0908  0.1382 -0.4199
   17MOL   C22516577   7.035   4.844   3.107 -0.6004 -0.5438 -0.2597
   17MOL   C22616578   7.047   4.981   3.170 -0.0930  0.5257 -0.2915
   17MOL   C22716579   6.923   4.762   3.140  0.3146 -0.7570 -0.8248
   17MOL   C22816580   6.911   4.639   3.075 -0.2962 -0.5182 -0.8734
   17MOL   C22916581   6.754   4.470   2.847 -0.2457 -0.2223  0.4231
   17MOL   C23016582   6.649   4.393   2.797  0.7412  0.0865  0.1323
   17MOL   C23116583   6.317   4.189   2.646 -0.7824 -0.2153 -0.3380
   17MOL   C23216584   6.190   4.188   2.699  0.2408  0.2586  0.0297
   17MOL   C23316585   5.884   4.193   3.074  0.1287 -0.1977  0.8972
   17MOL   C23416586   5.820   4.280   3.161 -0.0355  0.2673 -0.8442
   17MOL   H23516587   5.689   4.482   3.270 -0.2352  1.0684  2.1847
   17MOL   H23616588   6.014   4.561   3.087 -0.1404 -0.3031  2.6083
   17MOL   H23716589   6.137   4.406   2.976  0.2771  2.6368  4.1666
   17MOL   H23816590   5.989   4.109   2.819 -1.5418 -1.9365  2.5592
   17MOL   H23916591   6.251   4.179   3.028 -2.4675 -1.9770 -1.7091
   17MOL   H24016592   6.495   4.204   2.939 -0.4705  0.4060  0.9744
   17MOL   H24116593   6.579   4.142   2.594  1.5621  1.4323 -0.7964
   17MOL   H24216594   6.835   4.132   2.680  2.1929 -0.3263  2.2935
   17MOL   H24316595   7.008   4.242   2.806  0.2546  0.3115 -0.2721
   17MOL   H24416596   7.085   4.443   2.873 -1.3326  0.6318 -5.2129
   17MOL   H24516597   7.184   4.677   2.861  0.9424 -0.5751  0.8273
   17MOL   H24616598   7.212   4.869   2.998 -0.1470  0.1090 -0.7469
   17MOL   H24716599   7.125   4.980   3.246 -0.1735 -2.0791 -0.2105
   17MOL   H24816600   6.949   5.001   3.212  0.1162 -0.7653  0.8421
   17MOL   H24916601   6.842   4.802   3.201  2.3582  0.7173  0.9965
   17MOL   H25016602   6.827   4.574   3.092 -1.2399  1.1077  0.8361
   17MOL   H25116603   6.727   4.566   2.888 -2.5819 -0.3145 -0.8014
   17MOL   H25216604   6.553   4.443   2.793  0.2088 -0.8391  1.1464
   17MOL   H25316605   6.322   4.190   2.538  1.2319 -0.2086 -0.2639
   17MOL   H25416606   6.105   4.178   2.633 -0.4720 -1.4916  1.1721
   17MOL   H25516607   5.854   4.090   3.062 -0.3450 -0.0338  0.6771
   17MOL   H25616608   5.739   4.242   3.221  1.3653  0.0473  0.9608
   17MOL   N25716609   7.088   5.078   3.064  0.1956 -0.1249  0.3464
   17MOL   C25816610   7.105   5.214   3.087  0.3565 -0.5875  0.3177
   17MOL   C25916611   7.145   5.293   2.978  0.0450 -0.2064  0.6153
   17MOL   C26016612   7.147   5.435   3.001  0.9021  0.3085 -0.1554
   17MOL   C26116613   7.118   5.493   3.128  0.0853 -0.8176 -0.3594
   17MOL   N26216614   7.108   5.629   3.140  0.2556 -0.7371  0.0708
   17MOL   C26316615   7.150   5.727   3.049 -0.3292 -0.1111  0.1933
   17MOL   C26416616   7.285   5.741   3.010 -0.4248  0.6697 -0.5685
   17MOL   C26516617   7.320   5.848   2.923  0.4626 -0.1887 -0.6783
   17MOL   C26616618   7.225   5.942   2.883 -0.1538 -0.3195  0.0003
   17MOL   N26716619   7.257   6.040   2.788  0.1098  0.4342 -0.0361
   17MOL   C26816620   7.361   6.131   2.800  0.2665 -0.4632  0.7289
   17MOL   C26916621   7.367   6.237   2.706  0.8017  0.0304  0.1205
   17MOL   C27016622   7.476   6.328   2.706  0.1021  0.6520 -0.2788
   17MOL   C27116623   7.586   6.315   2.787 -0.0458 -0.1957  0.4416
   17MOL   N27216624   7.684   6.415   2.782 -0.1137  0.2416 -0.6980
   17MOL   C27316625   7.674   6.531   2.851  0.3577  0.5181 -0.8787
   17MOL   C27416626   7.785   6.612   2.873  0.1108 -0.3210  0.2182
   17MOL   C27516627   7.780   6.733   2.946 -0.1326 -0.3330  0.2379
   17MOL   C27616628   7.660   6.769   3.006 -1.2518  0.2519  0.1051
   17MOL   C27716629   7.641   6.892   3.092 -0.2748 -0.2969  0.1415
   17MOL   C27816630   7.551   6.687   2.990 -0.7511  0.7911  0.2099
   17MOL   C27916631   7.552   6.574   2.910  0.4948  0.5375  0.8828
   17MOL   C28016632   7.583   6.208   2.879  0.4684  0.1989  0.1851
   17MOL   C28116633   7.471   6.126   2.892 -0.1461 -0.0564 -0.0897
   17MOL   C28216634   7.092   5.935   2.931 -0.4710 -0.0190 -0.1273
   17MOL   C28316635   7.058   5.828   3.012 -0.3008 -0.8915  0.0349
   17MOL   C28416636   7.078   5.416   3.235  0.3719 -0.2421  0.3520
   17MOL   C28516637   7.072   5.277   3.210 -0.3735  0.0994 -0.0684
   17MOL   H28616638   7.111   5.045   2.971 -2.0247 -0.1633 -0.2297
   17MOL   H28716639   7.156   5.252   2.879 -0.1810  1.3109 -0.0436
   17MOL   H28816640   7.161   5.503   2.919 -1.1512 -2.9789 -3.3408
   17MOL   H28916641   7.030   5.656   3.198 -0.2044 -1.3525 -0.2569
   17MOL   H29016642   7.354   5.664   3.042 -2.5932 -0.5824  1.1860
   17MOL   H29116643   7.423   5.869   2.897  0.8610  2.8275  3.0234
   17MOL   H29216644   7.181   6.062   2.726  0.2071 -0.8571 -0.6237
   17MOL   H29316645   7.284   6.253   2.638  0.7013  1.0982  0.4879
   17MOL   H29416646   7.470   6.404   2.630  3.4497 -0.2694 -1.5648
   17MOL   H29516647   7.780   6.383   2.789 -0.3612 -0.7625 -1.6484
   17MOL   H29616648   7.880   6.587   2.828  0.0889 -1.7915  0.9584
   17MOL   H29716649   7.865   6.799   2.960 -0.8823  0.2922  2.0378
   17MOL   H29816650   7.558   6.957   3.063  1.4145  0.5935 -2.9103
   17MOL   H29916651   7.721   6.960   3.064 -0.2552  0.2204  1.4101
   17MOL   H30016652   7.460   6.716   3.040 -0.2026 -1.3629  2.5545
   17MOL   H30116653   7.463   6.512   2.912 -0.3511  1.6657 -0.4561
   17MOL   H30216654   7.656   6.181   2.954  0.5403 -0.1654 -0.0121
   17MOL   H30316655   7.462   6.053   2.971  0.5817  0.8034  0.7864
   17MOL   H30416656   7.012   5.999   2.898 -0.3387  0.6843  0.8766
   17MOL   H30516657   6.957   5.817   3.048  0.2415 -2.8330  1.0584
   17MOL   H30616658   7.050   5.454   3.332  1.1545  4.0647 -1.0413
   17MOL   H30716659   7.043   5.216   3.295  3.0002  0.2414  1.2532
   17MOL   N30816660   7.645   6.874   3.228  0.2936  0.4507 -0.0609
   17MOL   C30916661   7.544   6.797   3.284 -0.0365  0.0584 -0.4578
   17MOL   C31016662   7.577   6.671   3.344  0.0571 -0.1994  0.7732
   17MOL   C31116663   7.477   6.580   3.385 -0.4638 -0.3681 -0.2724
   17MOL   C31216664   7.345   6.624   3.378 -0.2412 -0.0747  0.7299
   17MOL   N31316665   7.244   6.535   3.421  0.1206 -0.5609  0.1767
   17MOL   C31416666   7.245   6.434   3.522  0.3103 -0.1239  0.0225
   17MOL   C31516667   7.133   6.347   3.534 -0.3886  0.0926 -0.4235
   17MOL   C31616668   7.131   6.250   3.640  0.2899  0.8103 -0.5790
   17MOL   C31716669   7.236   6.239   3.731 -0.6794  0.0807 -0.2312
   17MOL   N31816670   7.240   6.141   3.831  0.2993 -0.2178 -0.4311
   17MOL   C31916671   7.162   6.026   3.848 -0.2467 -0.3741  1.0701
   17MOL   C32016672   7.131   5.988   3.975  0.5614 -1.3158  0.0456
   17MOL   C32116673   7.066   5.867   4.002  0.4881 -0.3819 -0.1458
   17MOL   C32216674   7.034   5.780   3.893 -0.8711 -0.0723 -0.3686
   17MOL   N32316675   6.975   5.656   3.915  0.4160  0.2014 -0.0833
   17MOL   C32416676   6.964   5.546   3.834  0.3725  0.7554 -0.7670
   17MOL   C32516677   7.068   5.516   3.744 -0.5409  0.4087  0.0213
   17MOL   C32616678   7.054   5.409   3.654  0.0037 -0.1859 -0.0939
   17MOL   C32716679   6.940   5.329   3.660 -0.3574  1.0160  0.7508
   17MOL   C32816680   6.920   5.209   3.571 -0.2884  0.1769  0.3741
   17MOL   C32916681   6.833   5.351   3.748  0.7226  0.3049  1.1047
   17MOL   C33016682   6.852   5.458   3.841 -1.0686  0.6505  0.4307
   17MOL   C33116683   7.042   5.833   3.762  0.4550  0.1207 -0.7157
   17MOL   C33216684   7.115   5.951   3.737  0.2435 -1.0760 -0.3705
   17MOL   C33316685   7.345   6.324   3.717 -0.3832 -0.2214  0.3174
   17MOL   C33416686   7.351   6.419   3.612 -0.2061  0.4138  0.1440
   17MOL   C33516687   7.309   6.749   3.330  0.1276 -0.6674  0.4926
   17MOL   C33616688   7.409   6.838   3.276 -0.3281  0.2035 -0.7467
   17MOL   H33716689   7.739   6.850   3.258 -0.2410 -2.4918 -0.6580
   17MOL   H33816690   7.680   6.642   3.339 -0.3663 -1.3975 -2.1584
   17MOL   H33916691   7.504   6.482   3.419 -1.8800  0.1534  2.5261
   17MOL   H34016692   7.161   6.543   3.364 -0.1860 -0.0675  0.6876
   17MOL   H34116693   7.053   6.359   3.462 -0.4354  2.1638 -0.0660
   17MOL   H34216694   7.049   6.181   3.642  2.2579 -1.5694  1.0991
   17MOL   H34316695   7.316   6.162   3.894  1.5537  0.4331 -2.1287
   17MOL   H34416696   7.170   6.041   4.060 -2.4308 -1.5122  1.6163
   17MOL   H34516697   7.050   5.839   4.105  2.3561 -1.4769 -0.1224
   17MOL   H34616698   6.911   5.647   3.992  0.8334  0.9216  0.3628
   17MOL   H34716699   7.147   5.587   3.728 -2.4759  1.6976 -4.6878
   17MOL   H34816700   7.131   5.395   3.579 -2.1983  5.0616 -3.6886
   17MOL   H34916701   6.911   5.121   3.635 -1.4314 -1.0782 -1.4275
   17MOL   H35016702   7.003   5.182   3.506  2.2266  0.4732  3.3765
   17MOL   H35116703   6.752   5.279   3.756 -0.0799  0.8121 -2.0348
   17MOL   H35216704   6.773   5.476   3.912 -0.0156  0.5456  1.6435
   17MOL   H35316705   6.997   5.781   3.679 -1.1843 -1.9383  1.3889
   17MOL   H35416706   7.144   5.983   3.638  2.6597  0.8400  0.9042
   17MOL   H35516707   7.429   6.312   3.783  0.3065  2.1553 -0.0654
   17MOL   H35616708   7.436   6.486   3.614 -0.6491  0.9316  2.7787
   17MOL   H35716709   7.204   6.767   3.318 -0.1617 -1.4079  1.8545
   17MOL   H35816710   7.383   6.931   3.227 -0.0914  0.7967  0.2423
   17MOL   N35916711   6.809   5.233   3.483  0.2050 -0.2245 -0.3022
   17MOL   C36016712   6.725   5.129   3.465 -0.2574 -0.1573  0.8655
   17MOL   C36116713   6.694   5.099   3.333  0.3057  0.4730 -0.2311
   17MOL   C36216714   6.610   4.989   3.297  0.1562 -0.4013 -0.2807
   17MOL   C36316715   6.539   4.924   3.397 -0.0885 -0.4763  0.2588
   17MOL   N36416716   6.459   4.811   3.372  0.0987 -0.1681  0.0064
   17MOL   C36516717   6.413   4.761   3.250 -0.1192 -0.7012 -0.0516
   17MOL   C36616718   6.507   4.694   3.168 -0.2725  0.8561  0.1892
   17MOL   C36716719   6.456   4.641   3.044  0.2248  0.6642  0.6890
   17MOL   C36816720   6.322   4.667   3.009  0.2526  0.2509  0.2579
   17MOL   N36916721   6.276   4.630   2.886  0.4125 -0.1667  0.4589
   17MOL   C37016722   6.152   4.655   2.824  1.2234 -0.4652  0.1780
   17MOL   C37116723   6.098   4.787   2.813  0.6964  0.2491  0.2394
   17MOL   C37216724   5.973   4.805   2.740 -0.1160  0.5722  0.1077
   17MOL   C37316725   5.918   4.692   2.675 -0.8286  0.0979  0.5538
   17MOL   N37416726   5.800   4.709   2.600 -0.1448 -0.3923 -1.2384
   17MOL   C37516727   5.722   4.820   2.577 -0.5812 -0.4166  0.1652
   17MOL   C37616728   5.777   4.935   2.518  0.4312 -0.1260  0.1442
   17MOL   C37716729   5.692   5.042   2.476 -0.4911 -0.1284 -0.3901
   17MOL   C37816730   5.553   5.041   2.508 -0.2337  0.0416  0.1821
   17MOL   C37916731   5.469   5.167   2.477 -0.0285  0.3697 -0.2020
   17MOL   C38016732   5.502   4.926   2.570 -0.4089  0.0370  0.3046
   17MOL   C38116733   5.582   4.818   2.612 -0.0232 -0.1838 -0.3285
   17MOL   C38216734   5.974   4.565   2.690 -0.3454 -0.3244 -0.8894
   17MOL   C38316735   6.088   4.548   2.762  0.1178  0.2277  0.2072
   17MOL   C38416736   6.229   4.729   3.097  0.1042 -0.5776 -0.3781
   17MOL   C38516737   6.278   4.775   3.224  0.2167  0.0814 -0.4815
   17MOL   C38616738   6.561   4.968   3.537  0.0047  0.0618  0.5624
   17MOL   C38716739   6.656   5.068   3.560 -0.2002 -0.3025 -0.1606
   17MOL   H38816740   6.831   5.301   3.412 -1.6475  2.4985  1.5873
   17MOL   H38916741   6.733   5.145   3.244  1.1299  1.2497  0.5291
   17MOL   H39016742   6.591   4.949   3.199 -1.3127 -2.2956  0.7423
   17MOL   H39116743   6.402   4.771   3.445  0.3808 -2.0056 -0.7721
   17MOL   H39216744   6.607   4.684   3.208  0.1737 -0.7516 -1.2953
   17MOL   H39316745   6.523   4.595   2.974 -0.3242  1.4007 -0.3250
   17MOL   H39416746   6.341   4.594   2.817 -2.4887  0.4170 -2.7482
   17MOL   H39516747   6.140   4.869   2.870  0.7401 -0.4667  1.2420
   17MOL   H39616748   5.922   4.900   2.736 -0.4301  0.4062  0.1573
   17MOL   H39716749   5.753   4.629   2.561 -0.3618 -1.0399  0.3155
   17MOL   H39816750   5.882   4.944   2.494  0.8629 -0.7161  1.7140
   17MOL   H39916751   5.742   5.129   2.439 -1.5651 -0.3776 -2.5002
   17MOL   H40016752   5.525   5.252   2.437 -1.3905  1.1737 -0.4427
   17MOL   H40116753   5.446   5.197   2.579 -0.5037 -2.4912  0.5748
   17MOL   H40216754   5.395   4.912   2.561 -0.2411  0.3036 -2.5071
   17MOL   H40316755   5.530   4.743   2.670  1.5100 -2.0138 -1.2499
   17MOL   H40416756   5.940   4.475   2.642 -1.4658 -0.6065  0.3858
   17MOL   H40516757   6.124   4.446   2.759 -1.2514 -0.2151 -1.6647
   17MOL   H40616758   6.125   4.739   3.070  0.3143 -1.5960 -1.5803
   17MOL   H40716759   6.210   4.822   3.293  1.2270  0.9273 -0.0463
   17MOL   H40816760   6.503   4.929   3.620 -2.2682  1.3939 -0.3610
   17MOL   H40916761   6.670   5.102   3.661  0.2147 -0.8785 -0.0208
   17MOL   N41016762   5.345   5.141   2.399  0.1755  0.1277 -0.6913
   17MOL   C41116763   5.345   5.075   2.274  0.2035  0.1526  0.4111
   17MOL   C41216764   5.226   5.026   2.221  0.3747 -0.2398 -0.4343
   17MOL   C41316765   5.220   4.974   2.091  0.0080 -0.2357 -0.7944
   17MOL   C41416766   5.338   4.962   2.016  0.1107  0.2445 -0.4651
   17MOL   N41516767   5.330   4.912   1.886  0.2313  0.3223 -0.3901
   17MOL   C41616768   5.232   4.932   1.785  0.2710 -0.0888  0.0440
   17MOL   C41716769   5.155   5.048   1.773  0.0072  0.2342 -1.1090
   17MOL   C41816770   5.042   5.052   1.685 -0.6071  0.3199  0.5105
   17MOL   C41916771   5.028   4.949   1.589 -0.1014 -0.2654 -0.5007
   17MOL   N42016772   4.924   4.962   1.497  0.1081  0.0490 -1.2347
   17MOL   C42116773   4.909   4.910   1.370 -0.2258 -0.2832 -0.7880
   17MOL   C42216774   5.013   4.859   1.288 -0.1770  0.6775  0.7146
   17MOL   C42316775   4.980   4.811   1.156 -0.4370  0.6153  0.2416
   17MOL   C42416776   4.845   4.828   1.111  0.2091  0.0992  0.9190
   17MOL   N42516777   4.804   4.792   0.980 -0.0559  0.4925  0.4821
   17MOL   C42616778   4.893   4.753   0.882  0.2806  0.3996  0.5848
   17MOL   C42716779   4.841   4.655   0.791 -0.1989  0.4228 -0.0801
   17MOL   C42816780   4.916   4.616   0.679  0.4138  0.3203 -0.2106
   17MOL   C42916781   5.042   4.675   0.648  0.4092 -0.2915  0.5174
   17MOL   C43016782   5.115   4.635   0.523 -0.5082  0.2501 -0.2966
   17MOL   C43116783   5.090   4.773   0.738 -0.0343  0.4116  0.2099
   17MOL   C43216784   5.017   4.811   0.851  0.5150 -0.2475 -0.2338
   17MOL   C43316785   4.745   4.872   1.196 -0.1320  0.7617 -0.0786
   17MOL   C43416786   4.779   4.905   1.328  0.6588 -0.0926 -0.5236
   17MOL   C43516787   5.108   4.835   1.592  0.4591 -0.1513  0.1068
   17MOL   C43616788   5.212   4.828   1.694  0.2147 -0.9836  0.4261
   17MOL   C43716789   5.460   4.994   2.076 -0.4585 -0.5590  0.7181
   17MOL   C43816790   5.466   5.058   2.201 -0.4164  0.2030 -0.1727
   17MOL   H43916791   5.258   5.168   2.442  0.6497  3.2652 -1.6072
   17MOL   H44016792   5.131   5.040   2.271  0.4846 -0.7019 -0.0940
   17MOL   H44116793   5.125   4.953   2.044 -1.4087  2.1008  0.8947
   17MOL   H44216794   5.409   4.860   1.851  0.4458 -0.0792  0.6617
   17MOL   H44316795   5.166   5.124   1.850 -0.1947 -0.4459 -0.4081
   17MOL   H44416796   4.982   5.142   1.683 -2.7950 -1.0804  0.9453
   17MOL   H44516797   4.858   5.036   1.514  1.5973  1.0793  0.1267
   17MOL   H44616798   5.115   4.855   1.323  0.1153  0.1438 -0.1731
   17MOL   H44716799   5.049   4.765   1.088 -1.3153 -1.1880  0.5340
   17MOL   H44816800   4.707   4.765   0.971  0.0809  0.4282 -0.8722
   17MOL   H44916801   4.739   4.621   0.790  0.4893 -1.7136 -2.5948
   17MOL   H45016802   4.875   4.552   0.603  1.0893 -0.6330  0.2211
   17MOL   H45116803   5.206   4.696   0.519 -0.5275  0.3789  1.2373
   17MOL   H45216804   5.058   4.670   0.436 -0.9990  0.0464 -0.0565
   17MOL   H45316805   5.180   4.824   0.709  0.5432 -1.4476 -1.2731
   17MOL   H45416806   5.059   4.891   0.911 -0.5798 -1.2279  1.9210
   17MOL   H45516807   4.643   4.876   1.159 -0.0279 -2.1689 -0.7491
   17MOL   H45616808   4.702   4.953   1.386 -0.3640 -1.3894 -0.7808
   17MOL   H45716809   5.102   4.752   1.524  1.9514  1.1735 -1.6891
   17MOL   H45816810   5.254   4.729   1.698 -0.2679 -1.1941  0.2815
   17MOL   H45916811   5.549   4.989   2.016  0.4778 -2.1646  2.1701
   17MOL   H46016812   5.564   5.089   2.235  0.2222 -0.3455 -1.4715
   17MOL   N46116813   5.159   4.493   0.530  0.0671 -0.5761  0.4754
   17MOL   C46216814   5.107   4.383   0.451 -0.1123 -0.8647  0.2688
   17MOL   C46316815   5.184   4.268   0.433 -0.9788 -0.3581  0.7310
   17MOL   C46416816   5.128   4.164   0.352  1.1473 -0.1123  0.2631
   17MOL   C46516817   5.005   4.180   0.279  0.8641  0.4075 -0.1068
   17MOL   N46616818   4.943   4.080   0.207 -0.1584  0.5533 -0.1436
   17MOL   C46716819   4.970   3.943   0.205 -0.8685 -0.4911 -0.2512
   17MOL   C46816820   4.992   3.864   0.321 -0.0977  0.4886 -0.3186
   17MOL   C46916821   4.998   3.723   0.307 -0.1664  0.1992  0.2591
   17MOL   C47016822   4.985   3.660   0.180  0.7149  0.0028 -0.6579
   17MOL   N47116823   5.004   3.523   0.157 -0.2674 -0.5362 -0.4451
   17MOL   C47216824   4.987   3.417   0.244 -0.0582  0.9078 -0.2886
   17MOL   C47316825   5.054   3.297   0.222 -0.2284 -0.4199  0.3485
   17MOL   C47416826   5.039   3.185   0.306  0.4799  0.0409  0.3605
   17MOL   C47516827   4.960   3.202   0.425 -0.2816 -0.0207  0.0743
   17MOL   N47616828   4.957   3.102   0.523 -0.4823 -0.1216  0.0011
   17MOL   C47716829   4.848   3.045   0.582 -0.0073 -0.1295  0.5058
   17MOL   C47816830   4.869   2.934   0.664  0.2921  0.0231  0.7350
   17MOL   C47916831   4.761   2.863   0.717 -0.4787 -0.4029  0.1749
   17MOL   C48016832   4.629   2.891   0.681 -0.3347 -0.4243 -0.7182
   17MOL   C48116833   4.503   2.802   0.723 -0.2082  0.1425 -0.0162
   17MOL   C48216834   4.609   3.007   0.599  0.6032  0.2286 -0.3756
   17MOL   C48316835   4.719   3.083   0.550  0.3194  1.0352  0.0438
   17MOL   C48416836   4.888   3.320   0.450 -0.7852 -0.7387 -0.0913
   17MOL   C48516837   4.891   3.422   0.350 -0.4301  0.5328  0.3267
   17MOL   C48616838   4.975   3.740   0.065  0.5123 -0.0096 -0.0417
   17MOL   C48716839   4.959   3.883   0.076  0.2143  0.3789  0.6008
   17MOL   C48816840   4.937   4.302   0.296 -0.5217 -0.3179 -0.8780
   17MOL   C48916841   4.986   4.402   0.385  0.1044  0.0484  0.2434
   17MOL   H49016842   5.251   4.477   0.569 -0.3236 -3.3540  0.3525
   17MOL   H49116843   5.279   4.257   0.483 -1.0214 -2.0693  0.4904
   17MOL   H49216844   5.173   4.065   0.346 -0.3846 -0.9547  2.0771
   17MOL   H49316845   4.871   4.111   0.144  0.5062 -0.6783 -1.5342
   17MOL   H49416846   5.009   3.912   0.416 -0.4094  2.0708 -1.0434
   17MOL   H49516847   5.016   3.657   0.390  0.9599 -1.6727 -1.4005
   17MOL   H49616848   5.026   3.499   0.062 -0.6618  1.8881 -1.1919
   17MOL   H49716849   5.125   3.275   0.143 -2.4847 -1.9188 -1.3037
   17MOL   H49816850   5.094   3.092   0.296  1.8813  0.9109 -0.1176
   17MOL   H49916851   5.034   3.036   0.519 -1.1043 -0.8430 -0.1813
   17MOL   H50016852   4.970   2.897   0.673  0.0361 -0.9154 -0.1307
   17MOL   H50116853   4.794   2.785   0.784  0.2894 -0.1491  0.0954
   17MOL   H50216854   4.501   2.789   0.832 -2.1144  1.0020  0.0665
   17MOL   H50316855   4.503   2.704   0.674 -0.8645 -0.4992  1.2397
   17MOL   H50416856   4.512   3.040   0.562  0.2340 -1.1005 -0.6052
   17MOL   H50516857   4.704   3.165   0.481 -1.0327  1.2400  0.5663
   17MOL   H50616858   4.813   3.346   0.522  0.5712 -0.6531  1.3135
   17MOL   H50716859   4.831   3.510   0.368 -1.7517  0.0101 -1.4311
   17MOL   H50816860   4.975   3.688   7.952  1.3388 -2.6758  1.3745
   17MOL   H50916861   4.950   3.935   7.964  2.3152 -0.7093 -0.2505
   17MOL   H51016862   4.837   4.323   0.261 -0.2117  1.9788 -0.4712
   17MOL   H51116863   4.921   4.486   0.404 -0.5155 -0.4341  0.2915
   17MOL   N51216864   4.376   2.855   0.678 -0.2821  0.0496  0.4933
   17MOL   C51316865   4.311   2.954   0.751 -0.3129 -0.4152  0.4978
   17MOL   C51416866   4.378   3.031   0.845  0.6032  0.4313  0.1635
   17MOL   C51516867   4.321   3.149   0.903 -0.1517  0.2140  0.1431
   17MOL   C51616868   4.186   3.183   0.869 -0.3358 -0.6738  0.2217
   17MOL   N51716869   4.126   3.300   0.918  0.0983  0.0512  0.6890
   17MOL   C51816870   4.173   3.383   1.020 -0.1907  0.2470 -0.1886
   17MOL   C51916871   4.108   3.390   1.144 -0.7088  0.3414  0.2461
   17MOL   C52016872   4.170   3.449   1.259  0.1859 -0.0496  0.7558
   17MOL   C52116873   4.296   3.514   1.235 -0.4886 -0.7467 -0.5663
   17MOL   N52216874   4.362   3.555   1.354 -0.0284  0.1832 -0.1631
   17MOL   C52316875   4.478   3.635   1.360  0.2735  0.6687 -0.3916
   17MOL   C52416876   4.500   3.744   1.274 -0.1014 -0.5853  0.3622
   17MOL   C52516877   4.605   3.835   1.292 -0.3591 -0.4057  0.6740
   17MOL   C52616878   4.703   3.808   1.393 -0.2251 -0.5478  0.1693
   17MOL   N52716879   4.806   3.902   1.412  0.1851 -0.0152  0.1346
   17MOL   C52816880   4.933   3.883   1.462 -0.2095  0.1859 -0.5864
   17MOL   C52916881   5.012   3.767   1.432  0.1228 -0.4047 -0.3832
   17MOL   C53016882   5.139   3.755   1.482 -0.1201 -0.0885 -0.1431
   17MOL   C53116883   5.199   3.861   1.555 -0.2796  0.4858  0.5951
   17MOL   C53216884   5.343   3.839   1.606  0.6332  0.0191  0.2176
   17MOL   C53316885   5.140   3.981   1.567 -0.5533  0.7333 -0.1655
   17MOL   C53416886   5.003   3.990   1.526 -0.3948  0.6920 -0.0819
   17MOL   C53516887   4.684   3.699   1.485  0.3384  0.4254  0.1774
   17MOL   C53616888   4.575   3.607   1.464  0.7174 -0.5358  0.1557
   17MOL   C53716889   4.346   3.520   1.104 -0.6226 -0.2160 -0.0094
   17MOL   C53816890   4.289   3.456   0.996  0.5019  0.5382 -0.1407
   17MOL   C53916891   4.117   3.100   0.774  0.6714  0.3029  0.8127
   17MOL   C54016892   4.179   2.987   0.714  0.3027 -0.0118  0.5962
   17MOL   H54116893   4.321   2.794   0.619 -1.7073  1.0574  0.7539
   17MOL   H54216894   4.485   3.016   0.858  0.6791  0.0744 -0.7819
   17MOL   H54316895   4.378   3.199   0.980 -1.8987  0.4696  1.2939
   17MOL   H54416896   4.028   3.307   0.894  0.0399 -1.3323  0.4380
   17MOL   H54516897   4.018   3.330   1.150  0.6871 -1.6326  2.2988
   17MOL   H54616898   4.134   3.431   1.359  0.5802 -0.9723  0.7408
   17MOL   H54716899   4.329   3.531   1.446 -0.3791  0.5219 -0.1994
   17MOL   H54816900   4.423   3.767   1.201  1.2342 -1.9283 -1.5126
   17MOL   H54916901   4.605   3.917   1.222 -0.7866 -1.4277 -0.5453
   17MOL   H55016902   4.771   3.994   1.436  0.4717 -0.1881  1.2568
   17MOL   H55116903   4.967   3.681   1.386  1.8138 -1.5783  0.1264
   17MOL   H55216904   5.206   3.672   1.464 -1.6768 -0.9309 -2.3371
   17MOL   H55316905   5.356   3.739   1.646  1.8877  0.3650  0.6818
   17MOL   H55416906   5.355   3.900   1.695  2.7540  1.3932 -0.9507
   17MOL   H55516907   5.194   4.064   1.610 -1.6185  0.1246  2.4504
   17MOL   H55616908   4.963   4.090   1.538 -0.0547  0.9257 -0.8364
   17MOL   H55716909   4.742   3.690   1.576 -1.1588  0.1874  1.1317
   17MOL   H55816910   4.558   3.527   1.534 -1.7337  0.3556  0.6286
   17MOL   H55916911   4.445   3.561   1.088  1.0882 -3.3026  2.1950
   17MOL   H56016912   4.329   3.449   0.896  2.1654 -0.7809  0.5804
   17MOL   H56116913   4.021   3.130   0.736  1.3644 -0.2906 -1.4928
   17MOL   H56216914   4.120   2.921   0.652  0.4644 -0.1291  0.5686
   17MOL   N56316915   5.433   3.866   1.501 -0.3475  0.2623  0.1336
   17MOL   C56416916   5.566   3.894   1.520  0.4645  0.4044  0.5729
   17MOL   C56516917   5.647   3.909   1.402  0.2465  0.0964  0.2183
   17MOL   C56616918   5.779   3.944   1.410  0.4980  0.0726 -0.2757
   17MOL   C56716919   5.840   3.968   1.536 -0.0017  0.3996 -0.1135
   17MOL   N56816920   5.975   4.002   1.527  0.5648 -0.3029 -0.6872
   17MOL   C56916921   6.030   4.135   1.552  0.3753  0.3722  0.6716
   17MOL   C57016922   6.170   4.147   1.565  0.1318 -0.0465 -0.0535
   17MOL   C57116923   6.231   4.272   1.590  0.1015  0.5336  0.7178
   17MOL   C57216924   6.149   4.386   1.613 -0.6709  0.2914 -0.2218
   17MOL   N57316925   6.217   4.505   1.642  0.2586 -0.4408 -0.3291
   17MOL   C57416926   6.163   4.633   1.616  0.6613 -0.0032 -0.3846
   17MOL   C57516927   6.074   4.657   1.512 -0.9400  0.2419 -0.1850
   17MOL   C57616928   6.012   4.780   1.490 -0.6547  0.4518 -1.2739
   17MOL   C57716929   6.055   4.892   1.568 -0.6308 -0.0292  0.5183
   17MOL   N57816930   6.022   5.025   1.535  0.8846  0.0698  0.2184
   17MOL   C57916931   5.917   5.063   1.443 -0.2759 -0.5203 -0.0977
   17MOL   C58016932   5.950   5.105   1.313 -0.1219 -0.3228  0.2265
   17MOL   C58116933   5.845   5.112   1.221 -0.0660 -0.6135  0.9153
   17MOL   C58216934   5.707   5.086   1.254 -0.0878 -0.1766  0.0001
   17MOL   C58316935   5.590   5.103   1.154 -0.0989  0.1159 -1.3922
   17MOL   C58416936   5.677   5.046   1.384  0.6708  0.1881 -0.3201
   17MOL   C58516937   5.782   5.037   1.479  0.1601 -0.2268  0.3530
   17MOL   C58616938   6.157   4.875   1.660  0.2194 -0.2515 -0.2795
   17MOL   C58716939   6.207   4.749   1.684 -0.2731  0.6667  0.7028
   17MOL   C58816940   6.005   4.367   1.601 -0.4287 -0.4346 -0.2436
   17MOL   C58916941   5.946   4.246   1.561 -0.4861 -0.0190 -0.3966
   17MOL   C59016942   5.766   3.966   1.654  0.2731 -0.4134  0.2226
   17MOL   C59116943   5.628   3.932   1.649  0.6066  0.0331  1.5550
   17MOL   H59216944   5.398   3.874   1.406  0.1655 -2.2166 -0.2871
   17MOL   H59316945   5.603   3.889   1.305  0.2741 -1.5248  0.5186
   17MOL   H59416946   5.844   3.940   1.324  0.6276  2.2402 -0.3094
   17MOL   H59516947   6.042   3.927   1.522 -1.1778 -2.1285  2.2183
   17MOL   H59616948   6.227   4.056   1.553  0.3582  0.2880 -1.6371
   17MOL   H59716949   6.339   4.274   1.582  0.0478  0.9614  0.0122
   17MOL   H59816950   6.303   4.497   1.694  0.2308 -1.3090 -0.3979
   17MOL   H59916951   6.052   4.576   1.444  1.1511  0.9514 -1.7823
   17MOL   H60016952   5.943   4.785   1.407  0.5514  1.1592 -2.2676
   17MOL   H60116953   6.082   5.097   1.572  0.3308 -0.4605  2.2232
   17MOL   H60216954   6.055   5.121   1.290 -0.2789  0.9172  0.3354
   17MOL   H60316955   5.882   5.133   1.121 -0.3783  0.9639  1.1071
   17MOL   H60416956   5.620   5.049   1.064  1.1696 -2.2683  0.4154
   17MOL   H60516957   5.563   5.206   1.132 -0.7852 -0.1213 -1.6949
   17MOL   H60616958   5.577   5.019   1.412  0.7877  0.2879  0.2024
   17MOL   H60716959   5.745   5.011   1.577  1.2385  0.6652  1.0140
   17MOL   H60816960   6.188   4.962   1.718  2.0622  0.1057 -1.7710
   17MOL   H60916961   6.292   4.739   1.750  0.5131 -0.9822 -0.4992
   17MOL   H61016962   5.941   4.448   1.633  0.4500  0.5029 -0.8604
   17MOL   H61116963   5.840   4.229   1.548 -0.0983 -1.3429 -1.8581
   17MOL   H61216964   5.815   3.979   1.749 -3.5557  2.2828  1.9928
   17MOL   H61316965   5.576   3.920   1.743  0.4332 -3.3390  1.0721
   17MOL   N61416966   5.470   5.026   1.186  0.0823  0.1104 -0.0025
   17MOL   C61516967   5.351   5.089   1.167  0.8998  0.1849  0.6488
   17MOL   C61616968   5.261   5.095   1.277 -0.0252 -0.1943 -0.2555
   17MOL   C61716969   5.141   5.165   1.264  0.5310 -0.2684 -0.9176
   17MOL   C61816970   5.106   5.229   1.146 -0.0696 -0.6570 -0.1361
   17MOL   N61916971   4.999   5.314   1.144 -0.2458 -0.3023  0.0068
   17MOL   C62016972   4.894   5.293   1.054 -0.9538  0.4105  0.2363
   17MOL   C62116973   4.845   5.163   1.033 -0.4010 -0.3514  0.5876
   17MOL   C62216974   4.748   5.139   0.933 -0.1969  0.0473 -0.8874
   17MOL   C62316975   4.712   5.243   0.849  0.0407 -0.2568  0.3128
   17MOL   N62416976   4.614   5.225   0.749 -0.6494 -0.3056 -0.3451
   17MOL   C62516977   4.530   5.327   0.697  0.2468 -0.0424  0.6828
   17MOL   C62616978   4.487   5.311   0.560 -0.3137 -0.0078 -0.8691
   17MOL   C62716979   4.431   5.422   0.493 -0.2062  0.3076  0.4876
   17MOL   C62816980   4.404   5.539   0.570 -0.3850  0.4955  0.0956
   17MOL   N62916981   4.353   5.652   0.510 -0.0444  0.1580  0.3222
   17MOL   C63016982   4.290   5.673   0.384 -0.4883  0.1773 -0.1336
   17MOL   C63116983   4.197   5.586   0.332 -0.1197 -0.0418  0.7529
   17MOL   C63216984   4.133   5.619   0.209 -0.5511  0.4305 -0.0606
   17MOL   C63316985   4.167   5.730   0.136  0.0116  0.2425 -0.1193
   17MOL   C63416986   4.092   5.763   0.008  0.3632  0.1267 -0.4103
   17MOL   C63516987   4.263   5.826   0.190  0.6616  0.0086  1.0715
   17MOL   C63616988   4.320   5.794   0.315  0.4156  0.4447 -0.5371
   17MOL   C63716989   4.425   5.541   0.705  0.1910 -0.2811 -0.1152
   17MOL   C63816990   4.487   5.436   0.770  0.5968  0.2232  0.0569
   17MOL   C63916991   4.766   5.378   0.869 -0.4384  0.1265 -0.7177
   17MOL   C64016992   4.858   5.398   0.973 -0.6227 -0.6707 -0.0506
   17MOL   C64116993   5.192   5.212   1.035  0.2830  0.3450  0.0947
   17MOL   C64216994   5.316   5.143   1.044 -0.5450 -0.5729 -0.1056
   17MOL   H64316995   5.476   4.948   1.250 -1.7468 -1.2963 -1.4897
   17MOL   H64416996   5.289   5.045   1.368 -2.4852  0.0569  0.6688
   17MOL   H64516997   5.074   5.171   1.348  0.8006  0.6917 -0.7620
   17MOL   H64616998   4.955   5.319   1.235  2.4573  0.2508  1.3126
   17MOL   H64716999   4.873   5.079   1.095  0.5948 -0.2685  0.2506
   17MOL   H64817000   4.697   5.044   0.934  0.6655 -0.4134 -0.3323
   17MOL   H64917001   4.620   5.142   0.692  0.5961  0.4803 -1.4202
   17MOL   H65017002   4.515   5.225   0.502 -0.3474  0.0346 -0.9484
   17MOL   H65117003   4.402   5.408   0.390 -0.9761 -1.1386  0.8827
   17MOL   H65217004   4.397   5.733   0.550 -1.0741  1.6881 -1.5653
   17MOL   H65317005   4.168   5.500   0.391 -1.7693  1.4274  2.1366
   17MOL   H65417006   4.060   5.555   0.162  0.2805  0.1399 -0.9784
   17MOL   H65517007   4.050   5.863   0.010  2.0013  0.8180  0.2274
   17MOL   H65617008   4.008   5.694   7.978  0.3129  0.0042  0.5554
   17MOL   H65717009   4.288   5.910   0.126 -2.4324  0.8970  0.9563
   17MOL   H65817010   4.392   5.866   0.353  0.1216  1.0570 -1.1306
   17MOL   H65917011   4.395   5.626   0.763  1.6351  1.2105 -1.4800
   17MOL   H66017012   4.500   5.454   0.875 -1.0136  1.9472 -0.0063
   17MOL   H66117013   4.724   5.461   0.813  1.1508 -0.1845 -2.4010
   17MOL   H66217014   4.884   5.500   0.994 -0.4071 -0.5683 -0.7986
   17MOL   H66317015   5.163   5.248   0.938 -1.4347  3.5706  1.7307
   17MOL   H66417016   5.386   5.147   0.961 -0.8522 -1.4967 -0.4117
   17MOL   N66517017   4.182   5.756   7.882 -0.2491 -0.1501  0.0353
   17MOL   C66617018   4.122   5.708   7.765  0.0828  0.0035 -0.0685
   17MOL   C66717019   4.194   5.628   7.672 -0.4646 -0.1281 -0.5634
   17MOL   C66817020   4.144   5.575   7.553  0.6037  0.1479 -0.2841
   17MOL   C66917021   4.024   5.632   7.511  0.3137 -0.4025  0.3826
   17MOL   N67017022   3.972   5.586   7.390 -0.0776 -0.2211  0.1329
   17MOL   C67117023   3.877   5.642   7.305  0.0481  0.3352 -0.3457
   17MOL   C67217024   3.871   5.778   7.282  0.2817  0.3846  0.7133
   17MOL   C67317025   3.778   5.830   7.193  0.4641  0.5460 -0.0821
   17MOL   C67417026   3.681   5.751   7.132 -0.2916 -0.3202 -0.0507
   17MOL   N67517027   3.593   5.795   7.037  1.0626  0.1727 -0.2747
   17MOL   C67617028   3.571   5.927   7.004 -0.8402  0.2882  0.0677
   17MOL   C67717029   3.674   6.009   6.951 -0.8359 -0.1355  0.0180
   17MOL   C67817030   3.647   6.145   6.904  0.0594  0.6974 -0.3356
   17MOL   C67917031   3.515   6.190   6.912 -0.3761  0.4681 -0.1442
   17MOL   N68017032   3.486   6.317   6.870  0.3342 -0.0846  0.3925
   17MOL   C68117033   3.538   6.403   6.771 -0.2107  0.2071 -0.2024
   17MOL   C68217034   3.521   6.543   6.786  0.5916  0.0355 -0.1052
   17MOL   C68317035   3.560   6.639   6.692 -0.2456 -0.2442 -0.2859
   17MOL   C68417036   3.630   6.590   6.579  0.2852 -0.0948 -1.1125
   17MOL   C68517037   3.668   6.686   6.477 -0.3958 -0.8141 -0.3306
   17MOL   C68617038   3.651   6.455   6.557 -0.0315  0.4823  0.5181
   17MOL   C68717039   3.602   6.360   6.651  0.9263 -0.3639 -0.4184
   17MOL   C68817040   3.412   6.110   6.974 -0.9800 -0.5587  0.3155
   17MOL   C68917041   3.440   5.981   7.021  0.2041 -0.1943  0.6455
   17MOL   C69017042   3.687   5.614   7.154  0.9096  0.5036  0.3267
   17MOL   C69117043   3.793   5.560   7.231 -0.2990  0.0428  0.4080
   17MOL   C69217044   3.947   5.716   7.591 -0.4819 -0.6639  0.3624
   17MOL   C69317045   3.993   5.752   7.717 -0.6394 -0.2799 -0.0403
   17MOL   H69417046   4.271   5.719   7.912  0.5296  0.2930 -1.6723
   17MOL   H69517047   4.293   5.592   7.699 -0.6347  0.4214  0.8421
   17MOL   H69617048   4.196   5.505   7.489 -1.3905 -0.5591 -1.1709
   17MOL   H69717049   3.976   5.487   7.372  0.6195 -0.0342 -0.7817
   17MOL   H69817050   3.942   5.847   7.326 -0.2187  1.1759  0.2967
   17MOL   H69917051   3.765   5.938   7.193  0.5000  0.5554 -1.1059
   17MOL   H70017052   3.578   5.728   6.962  1.7512  1.0421 -1.2142
   17MOL   H70117053   3.775   5.974   6.934  0.6937  3.3738  1.3175
   17MOL   H70217054   3.729   6.195   6.854  0.5152  0.4274  0.1284
   17MOL   H70317055   3.405   6.355   6.916  0.6165  2.4028 -1.0867
   17MOL   H70417056   3.470   6.573   6.876  0.6159 -0.6951  0.1534
   17MOL   H70517057   3.546   6.744   6.711  0.7942 -0.2616  0.6280
   17MOL   H70617058   3.682   6.627   6.387 -1.3154  1.6090 -2.1205
   17MOL   H70717059   3.764   6.728   6.505 -2.6730  4.5651  0.0825
   17MOL   H70817060   3.698   6.409   6.472 -0.6695  0.3771  0.2231
   17MOL   H70917061   3.622   6.255   6.639 -2.6705 -1.2629  0.6527
   17MOL   H71017062   3.308   6.141   6.976 -0.6156  0.7001  3.4989
   17MOL   H71117063   3.360   5.923   7.064 -0.7350  0.8292  0.2903
   17MOL   H71217064   3.618   5.544   7.109  3.1776 -1.4698 -0.1867
   17MOL   H71317065   3.806   5.453   7.229  1.3763  0.2455 -1.0480
   17MOL   H71417066   3.849   5.754   7.565 -1.5043 -1.8053  2.4467
   17MOL   H71517067   3.929   5.822   7.767  0.5787  0.3875  0.6188
   17MOL   N71617068   3.564   6.778   6.446 -0.3776 -0.1640 -1.0314
   17MOL   C71717069   3.611   6.898   6.389 -0.5045  0.0203 -0.4118
   17MOL   C71817070   3.600   7.017   6.461  0.9602 -0.1492  0.3262
   17MOL   C71917071   3.654   7.136   6.402 -0.6383 -0.7435  0.6503
   17MOL   C72017072   3.707   7.141   6.272  0.2607  0.4237 -0.3679
   17MOL   N72117073   3.750   7.267   6.217 -0.2461 -0.3310 -0.1515
   17MOL   C72217074   3.869   7.291   6.147  0.3449  0.0713 -0.5167
   17MOL   C72317075   3.878   7.404   6.058  0.0397 -0.5231 -0.2460
   17MOL   C72417076   4.002   7.441   6.006 -0.2035 -0.5054  0.3711
   17MOL   C72517077   4.113   7.359   6.031  0.4408  0.2171  0.1118
   17MOL   N72617078   4.236   7.400   5.979  0.4609  0.4368  0.0607
   17MOL   C72717079   4.358   7.400   6.042  0.0644  0.1605 -0.5702
   17MOL   C72817080   4.383   7.347   6.176  0.0561  0.3535  0.5553
   17MOL   C72917081   4.512   7.344   6.226  0.5518 -0.0657 -0.0658
   17MOL   C73017082   4.619   7.406   6.154  0.1604 -0.0317 -0.6418
   17MOL   N73117083   4.752   7.411   6.194  0.8978  0.0732  0.7614
   17MOL   C73217084   4.805   7.370   6.316 -1.1431 -0.4863 -0.3540
   17MOL   C73317085   4.737   7.396   6.438  0.3880 -0.4038 -0.1611
   17MOL   C73417086   4.800   7.352   6.559  1.0885  0.7665  0.9458
   17MOL   C73517087   4.938   7.311   6.557  0.0166 -0.3708 -0.7604
   17MOL   C73617088   5.015   7.264   6.681  0.3823 -0.2893  0.6686
   17MOL   C73717089   5.011   7.297   6.438 -0.2323 -0.5473  0.7916
   17MOL   C73817090   4.939   7.319   6.321  0.4946  0.4128  0.5834
   17MOL   C73917091   4.590   7.455   6.027  0.4345 -1.0494 -0.4722
   17MOL   C74017092   4.464   7.458   5.970 -0.4759  0.6312 -0.3954
   17MOL   C74117093   4.104   7.245   6.109 -0.6070  0.5314  0.4306
   17MOL   C74217094   3.985   7.208   6.166  0.2343 -0.0386  0.6169
   17MOL   C74317095   3.719   7.017   6.205  0.1621 -0.1404 -0.1789
   17MOL   C74417096   3.676   6.898   6.266  0.2559 -0.8466  0.2410
   17MOL   H74517097   3.496   6.790   6.520  0.5280  0.9694 -0.3627
   17MOL   H74617098   3.548   7.027   6.554 -1.7630  0.3917 -1.2053
   17MOL   H74717099   3.651   7.230   6.455  2.0154 -1.7921  2.8359
   17MOL   H74817100   3.671   7.329   6.207 -1.2818 -1.3586  1.3770
   17MOL   H74917101   3.802   7.475   6.031  2.3176  1.6945 -1.0314
   17MOL   H75017102   4.011   7.534   5.953 -1.5789 -0.6335 -0.1182
   17MOL   H75117103   4.233   7.462   5.900  0.5469 -0.2506 -0.4860
   17MOL   H75217104   4.300   7.311   6.236  0.3340 -0.1440  0.6388
   17MOL   H75317105   4.516   7.315   6.330  3.7445 -0.1148 -0.1622
   17MOL   H75417106   4.817   7.437   6.121  0.1105 -1.7556 -0.6339
   17MOL   H75517107   4.636   7.431   6.450  0.0431 -1.0327 -1.1758
   17MOL   H75617108   4.742   7.356   6.650  2.9500  1.4263  2.1446
   17MOL   H75717109   5.034   7.357   6.733 -2.7582  0.6688  0.2411
   17MOL   H75817110   5.115   7.231   6.653 -0.5182 -1.3857 -1.3791
   17MOL   H75917111   5.113   7.266   6.429 -0.5350 -0.9353 -1.5981
   17MOL   H76017112   4.988   7.313   6.225  1.5043  1.1221  1.0544
   17MOL   H76117113   4.678   7.501   5.984 -0.4338  1.5260  0.4173
   17MOL   H76217114   4.446   7.502   5.873  0.1972  0.0288 -0.7961
   17MOL   H76317115   4.195   7.187   6.111 -0.6333  0.2842 -3.0029
   17MOL   H76417116   3.974   7.116   6.222 -2.2022  0.1090  0.4488
   17MOL   H76517117   3.759   7.009   6.105 -1.4808 -1.2790 -0.7763
   17MOL   H76617118   3.683   6.804   6.213 -1.3486 -0.5910 -0.4858
   17MOL   N76717119   4.941   7.182   6.772  0.2301  0.2913  0.3019
   17MOL   C76817120   4.919   7.049   6.745 -0.1514  0.1525  0.3957
   17MOL   C76917121   4.900   7.002   6.611 -0.0830  0.1921  0.3742
   17MOL   C77017122   4.871   6.870   6.585 -0.2012  0.4342 -0.4289
   17MOL   C77117123   4.860   6.779   6.695 -0.1042 -0.7114  0.2852
   17MOL   N77217124   4.812   6.649   6.667  1.0291  0.2533  0.3719
   17MOL   C77317125   4.833   6.561   6.555  0.1295 -0.0765 -0.3423
   17MOL   C77417126   4.953   6.570   6.479  0.1481 -0.5585 -0.4837
   17MOL   C77517127   4.981   6.475   6.381  0.1654  0.8170  0.0953
   17MOL   C77617128   4.893   6.366   6.367  0.6382 -0.2105 -0.3699
   17MOL   N77717129   4.931   6.268   6.276 -0.0395  0.5562  0.0428
   17MOL   C77817130   4.872   6.139   6.251 -0.4755 -0.4527 -0.1399
   17MOL   C77917131   4.946   6.024   6.281 -0.0710  0.1078 -0.3510
   17MOL   C78017132   4.895   5.891   6.258  0.1180 -0.4760 -0.7464
   17MOL   C78117133   4.762   5.882   6.215 -0.4103  0.6442 -0.1065
   17MOL   N78217134   4.697   5.762   6.196  0.3949  0.0007 -0.3356
   17MOL   C78317135   4.743   5.633   6.225 -0.4523  0.0715  0.9450
   17MOL   C78417136   4.857   5.578   6.163  0.1121 -0.2094  0.8498
   17MOL   C78517137   4.908   5.454   6.201  0.4833 -0.4378 -0.9656
   17MOL   C78617138   4.827   5.378   6.289 -0.0181 -0.0228 -0.2745
   17MOL   C78717139   4.884   5.243   6.339 -0.5651 -0.1717  0.5134
   17MOL   C78817140   4.701   5.426   6.343 -0.2884 -0.5390 -0.3763
   17MOL   C78917141   4.661   5.555   6.307  0.3242 -0.3207 -0.4542
   17MOL   C79017142   4.683   6.001   6.191  0.0122  0.4147 -0.1150
   17MOL   C79117143   4.742   6.126   6.208  0.3182 -0.6364  0.4598
   17MOL   C79217144   4.761   6.371   6.429 -0.6537  0.5666  0.1161
   17MOL   C79317145   4.730   6.474   6.523  0.6378 -0.4422  0.8129
   17MOL   C79417146   4.872   6.823   6.827 -0.3073  0.4693  0.0230
   17MOL   C79517147   4.904   6.956   6.854  0.6498  0.3465  0.5418
   17MOL   H79617148   4.943   7.209   6.870  1.5335 -1.1499  0.6881
   17MOL   H79717149   4.912   7.067   6.526  1.4324 -1.6667 -0.8682
   17MOL   H79817150   4.850   6.842   6.483 -1.1341 -0.0946 -0.1019
   17MOL   H79917151   4.753   6.609   6.738  1.1581 -0.0510  0.3085
   17MOL   H80017152   5.019   6.650   6.507  0.1463  0.1787 -2.5059
   17MOL   H80117153   5.074   6.484   6.327 -0.8638  0.4506 -1.7667
   17MOL   H80217154   5.027   6.277   6.245  0.1781 -2.1930 -0.2395
   17MOL   H80317155   5.048   6.033   6.315 -0.4392 -0.8977  1.0637
   17MOL   H80417156   4.958   5.806   6.279  0.2589 -0.3875 -0.8106
   17MOL   H80517157   4.597   5.773   6.206  0.1726 -2.4552  0.3799
   17MOL   H80617158   4.912   5.644   6.098 -2.3887  0.9625 -0.1612
   17MOL   H80717159   5.010   5.428   6.178  1.5446  1.2008  1.6104
   17MOL   H80817160   4.974   5.259   6.398 -1.4795 -0.6420  2.0516
   17MOL   H80917161   4.911   5.176   6.257  1.0091  0.8816  0.1335
   17MOL   H81017162   4.640   5.365   6.408 -1.3429  0.7683 -0.1064
   17MOL   H81117163   4.579   5.598   6.362  1.4895 -0.7200  1.6466
   17MOL   H81217164   4.579   6.014   6.165  0.2791  1.1393 -0.8484
   17MOL   H81317165   4.688   6.216   6.184 -0.0499 -1.3661 -1.5240
   17MOL   H81417166   4.687   6.294   6.411  0.9640 -0.6183 -1.5866
   17MOL   H81517167   4.633   6.479   6.571 -1.2701  0.2069 -2.9865
   17MOL   H81617168   4.866   6.756   6.912  3.1015  0.3811  0.2556
   17MOL   H81717169   4.917   6.987   6.957  1.6642 -0.7832  0.7688
   17MOL   N81817170   4.801   5.167   6.425 -0.2492  0.1369 -0.5823
   17MOL   C81917171   4.686   5.099   6.393 -0.3859  0.1266  0.1300
   17MOL   C82017172   4.627   5.009   6.484  0.5949  0.1023 -0.2573
   17MOL   C82117173   4.502   4.949   6.459  0.1766  0.2993 -0.2810
   17MOL   C82217174   4.439   4.977   6.334  0.4613  0.0275  0.3007
   17MOL   N82317175   4.313   4.913   6.299  0.3174  0.4199  0.1940
   17MOL   C82417176   4.192   4.919   6.368 -0.2043  0.0059  0.6658
   17MOL   C82517177   4.076   4.878   6.297  0.6922 -0.1219  0.8175
   17MOL   C82617178   3.959   4.855   6.371 -0.4880 -0.0529 -0.4409
   17MOL   C82717179   3.956   4.894   6.505 -0.8696 -0.0017 -0.1969
   17MOL   N82817180   3.842   4.877   6.581  1.0552  0.5120 -0.0543
   17MOL   C82917181   3.768   4.762   6.588 -0.2318 -0.5941 -0.0292
   17MOL   C83017182   3.824   4.638   6.554 -0.7058 -0.7519 -0.3420
   17MOL   C83117183   3.749   4.521   6.573 -0.3503 -0.4867  0.2839
   17MOL   C83217184   3.614   4.528   6.613 -0.5363  0.1718  0.5829
   17MOL   N83317185   3.539   4.410   6.614  0.6515  0.1505 -0.5091
   17MOL   C83417186   3.443   4.370   6.708  0.0434 -0.8512  0.4629
   17MOL   C83517187   3.442   4.394   6.845 -0.5329  0.1362  0.2530
   17MOL   C83617188   3.336   4.356   6.934 -0.7624 -0.4417  0.2411
   17MOL   C83717189   3.216   4.305   6.887 -0.3422 -0.3053 -0.5251
   17MOL   C83817190   3.103   4.268   6.980  0.5709  0.5924  0.3636
   17MOL   C83917191   3.211   4.280   6.750  0.2475  0.2158  0.6835
   17MOL   C84017192   3.322   4.304   6.664 -0.1736 -0.1533 -0.1723
   17MOL   C84117193   3.552   4.658   6.642  0.1955  0.6835  0.5747
   17MOL   C84217194   3.633   4.771   6.622 -0.9447  0.1105 -0.5959
   17MOL   C84317195   4.070   4.941   6.578 -0.4170  0.3048 -0.2011
   17MOL   C84417196   4.194   4.950   6.507 -0.2803 -0.3385 -0.2315
   17MOL   C84517197   4.511   5.043   6.236 -0.0646  0.3992  0.0791
   17MOL   C84617198   4.628   5.111   6.261 -0.2090 -0.3975 -0.1282
   17MOL   H84717199   4.795   5.198   6.521  0.0780 -0.2274 -0.4434
   17MOL   H84817200   4.664   4.990   6.584 -1.7801  0.7792  0.7873
   17MOL   H84917201   4.472   4.877   6.535  2.3045  1.2842  1.5464
   17MOL   H85017202   4.303   4.877   6.205 -0.0385 -0.6408  0.6276
   17MOL   H85117203   4.081   4.849   6.193  1.4959  0.1383  0.7830
   17MOL   H85217204   3.871   4.813   6.325 -1.6041  1.6005  0.1572
   17MOL   H85317205   3.816   4.956   6.640  0.9787  0.6436 -0.2612
   17MOL   H85417206   3.929   4.626   6.534 -0.7602  0.3852 -1.4126
   17MOL   H85517207   3.801   4.428   6.555  0.3558  0.0802 -0.5733
   17MOL   H85617208   3.558   4.337   6.546 -1.1744  0.7803 -1.7342
   17MOL   H85717209   3.531   4.439   6.886 -0.8130 -0.1371  1.1716
   17MOL   H85817210   3.364   4.379   7.036 -2.3052 -0.5668  0.6930
   17MOL   H85917211   3.073   4.166   6.957  3.1072  0.2435 -1.7213
   17MOL   H86017212   3.020   4.330   6.946  0.4426 -0.3353 -1.0851
   17MOL   H86117213   3.131   4.227   6.701 -0.1711  0.9080  0.6111
   17MOL   H86217214   3.309   4.284   6.559 -0.8113 -1.3978  0.1268
   17MOL   H86317215   3.445   4.663   6.654  0.1592  1.6089 -0.1060
   17MOL   H86417216   3.599   4.873   6.636 -0.3859  0.3573 -1.0530
   17MOL   H86517217   4.068   4.957   6.685  0.2179 -1.9196  0.1755
   17MOL   H86617218   4.276   4.985   6.567  0.7793 -1.2673 -1.1229
   17MOL   H86717219   4.466   5.048   6.137  2.0329 -1.2898 -0.9895
   17MOL   H86817220   4.672   5.162   6.177  0.3175 -0.6588 -0.0091
   17MOL   N86917221   3.121   4.293   7.124  0.4708 -0.0851  1.2092
   17MOL   C87017222   3.225   4.229   7.193  0.0690 -0.1947  0.8265
   17MOL   C87117223   3.251   4.278   7.323 -0.1531  0.1410  0.1410
   17MOL   C87217224   3.359   4.231   7.406  0.3261 -0.2330  0.4177
   17MOL   C87317225   3.437   4.128   7.363 -0.1199 -0.2072 -0.3831
   17MOL   N87417226   3.536   4.091   7.452  0.1789 -0.7497  0.3977
   17MOL   C87517227   3.661   4.033   7.428 -0.0822  0.3779  0.1276
   17MOL   C87617228   3.721   4.026   7.302  0.3284  0.3607  0.4634
   17MOL   C87717229   3.856   3.988   7.277  0.3465 -0.6255 -1.0610
   17MOL   C87817230   3.937   3.953   7.391 -0.3944  0.2631  0.4330
   17MOL   N87917231   4.066   3.892   7.372  0.0050  0.4529 -0.4493
   17MOL   C88017232   4.154   3.857   7.471 -0.1883  0.5387 -0.2532
   17MOL   C88117233   4.161   3.921   7.602  0.6817 -0.2350 -0.3172
   17MOL   C88217234   4.240   3.871   7.704  0.1331  0.3711  1.1697
   17MOL   C88317235   4.331   3.761   7.671  0.4082  0.1493 -0.1969
   17MOL   N88417236   4.420   3.716   7.769 -0.0190 -0.0020 -0.7520
   17MOL   C88517237   4.434   3.765   7.896 -0.2115  0.6642  0.5702
   17MOL   C88617238   4.552   3.831   7.927 -0.8137  0.1752 -0.3593
   17MOL   C88717239   4.562   3.885   0.073 -0.0278 -0.7749 -0.0761
   17MOL   C88817240   4.472   3.853   0.176  0.4476  0.1273  0.0658
   17MOL   C88917241   4.499   3.904   0.313 -0.1936 -0.4540 -0.5475
   17MOL   C89017242   4.362   3.773   0.142  0.0682 -0.4735 -0.0070
   17MOL   C89117243   4.336   3.734   0.010 -0.3532  0.2939  0.0930
   17MOL   C89217244   4.341   3.712   7.537  0.2679  0.3165  0.2669
   17MOL   C89317245   4.249   3.758   7.441  0.5335  0.3057  0.3212
   17MOL   C89417246   3.875   3.943   7.521  0.8829 -0.1922  0.0827
   17MOL   C89517247   3.743   3.989   7.541  0.0799  0.0590 -0.0832
   17MOL   C89617248   3.416   4.075   7.235  0.6162  1.1530 -0.1452
   17MOL   C89717249   3.306   4.121   7.155 -0.1340 -0.8193 -0.3950
   17MOL   H89817250   3.069   4.368   7.167  0.6329  0.4555  0.4778
   17MOL   H89917251   3.201   4.365   7.364 -1.2387 -0.7016  0.6154
   17MOL   H90017252   3.377   4.273   7.503  1.7539  1.9773 -0.7654
   17MOL   H90117253   3.516   4.091   7.551 -1.5990  1.8084  0.0821
   17MOL   H90217254   3.671   4.039   7.207  1.3609 -0.5507 -0.2188
   17MOL   H90317255   3.896   3.993   7.177 -0.3168  2.0757 -1.2550
   17MOL   H90417256   4.090   3.862   7.279  0.1745 -3.2846  0.7149
   17MOL   H90517257   4.101   4.009   7.623 -0.8020 -0.9364 -1.4557
   17MOL   H90617258   4.232   3.916   7.802 -0.4884 -1.8577  2.1700
   17MOL   H90717259   4.454   3.623   7.747  2.5831  1.4440 -3.0765
   17MOL   H90817260   4.627   3.836   7.850 -1.0768  0.9183 -0.5730
   17MOL   H90917261   4.653   3.940   0.095  0.2350 -0.5575 -1.6007
   17MOL   H91017262   4.592   3.860   0.350 -0.9763 -0.8135  1.0197
   17MOL   H91117263   4.418   3.879   0.381  1.0636  0.2711  1.2537
   17MOL   H91217264   4.296   3.749   0.225 -0.8646  0.5585 -0.4410
   17MOL   H91317265   4.247   3.679   7.965  0.4865 -1.9253  1.7441
   17MOL   H91417266   4.408   3.630   7.516  2.2530  2.2993 -1.3557
   17MOL   H91517267   4.251   3.719   7.341  1.1300 -0.0131  0.4546
   17MOL   H91617268   3.920   3.883   7.599 -2.2046 -1.0453  1.3009
   17MOL   H91717269   3.709   3.995   7.643  2.1714 -0.8693  0.6923
   17MOL   H91817270   3.465   3.988   7.194  1.6052  1.9982 -0.7806
   17MOL   H91917271   3.283   4.075   7.060  1.6451  1.1283 -1.8186
   17MOL   N92017272   4.502   4.049   0.316 -0.5379  0.5463  0.2395
   17MOL   C92117273   4.549   4.114   0.432  0.3521  0.1370  0.0833
   17MOL   C92217274   4.564   4.046   0.557 -0.3344  0.4586  0.2006
   17MOL   C92317275   4.624   4.116   0.666  0.3491  0.6243 -0.4429
   17MOL   C92417276   4.644   4.255   0.658 -0.2773 -0.3521 -0.9664
   17MOL   N92517277   4.693   4.322   0.771  0.7426  0.2400  0.4707
   17MOL   C92617278   4.617   4.406   0.851  0.1546  0.0528  0.9653
   17MOL   C92717279   4.508   4.483   0.806 -0.0336 -0.9544  0.4388
   17MOL   C92817280   4.435   4.575   0.890 -0.3309 -0.8413 -0.1442
   17MOL   C92917281   4.479   4.587   1.024 -0.2688 -0.3208  0.0836
   17MOL   N93017282   4.415   4.676   1.108  0.1767 -0.0956  0.5164
   17MOL   C93117283   4.381   4.810   1.072  0.0014 -0.2686  0.5868
   17MOL   C93217284   4.430   4.879   0.958 -0.3559  0.3171 -0.2289
   17MOL   C93317285   4.395   5.013   0.939 -1.1963  0.2413  0.8586
   17MOL   C93417286   4.320   5.082   1.040  0.2286 -0.5196 -0.2386
   17MOL   N93517287   4.288   5.221   1.029  0.1942  0.0238  0.0583
   17MOL   C93617288   4.217   5.290   0.928 -0.4372  0.3682 -0.6689
   17MOL   C93717289   4.166   5.415   0.967  0.1310  0.0401 -0.0033
   17MOL   C93817290   4.116   5.505   0.866  0.0851  1.5833  0.3614
   17MOL   C93917291   4.092   5.457   0.739 -0.5639  0.1778 -0.5008
   17MOL   C94017292   4.024   5.547   0.635 -0.8853  0.3069 -0.4943
   17MOL   C94117293   4.138   5.331   0.700  0.1460  0.1667 -0.1527
   17MOL   C94217294   4.201   5.249   0.791  0.9292  0.1094  0.0979
   17MOL   C94317295   4.272   5.014   1.157 -0.1169 -0.6409  0.2069
   17MOL   C94417296   4.302   4.877   1.167 -0.5217 -0.3069 -0.1051
   17MOL   C94517297   4.591   4.523   1.068 -1.1825 -0.2188  0.2616
   17MOL   C94617298   4.663   4.433   0.986  0.3435  0.1534  0.3776
   17MOL   C94717299   4.622   4.321   0.538 -0.3037 -0.3938 -0.4103
   17MOL   C94817300   4.577   4.252   0.420 -0.0421  0.6000  0.4012
   17MOL   H94917301   4.473   4.101   0.234 -1.1577  1.8192  1.2573
   17MOL   H95017302   4.549   3.941   0.576  1.2068 -0.2751 -2.2860
   17MOL   H95117303   4.633   4.060   0.757  1.4166  0.6852 -0.5044
   17MOL   H95217304   4.758   4.263   0.822  0.2956 -1.3923 -0.8395
   17MOL   H95317305   4.484   4.471   0.701 -1.4349  3.6086  0.1087
   17MOL   H95417306   4.367   4.649   0.852 -0.0621  0.1830  1.3097
   17MOL   H95517307   4.453   4.664   1.201 -0.5780 -0.9142  0.7281
   17MOL   H95617308   4.494   4.831   0.886  1.4088  1.2978  0.6717
   17MOL   H95717309   4.428   5.065   0.851  1.0070  0.0145  1.5224
   17MOL   H95817310   4.261   5.262   1.117 -0.7002 -0.6855  0.1116
   17MOL   H95917311   4.164   5.447   1.070 -2.2227  0.9917 -0.3160
   17MOL   H96017312   4.084   5.606   0.887  0.6654  1.4563  1.8597
   17MOL   H96117313   3.919   5.550   0.667 -0.2767  2.3682  1.4828
   17MOL   H96217314   4.029   5.490   0.543 -0.3045 -0.7221  0.1577
   17MOL   H96317315   4.112   5.300   0.600 -0.6570 -0.2659  0.1930
   17MOL   H96417316   4.235   5.151   0.762 -0.5847  0.7276 -4.0433
   17MOL   H96517317   4.215   5.067   1.231  1.8164  1.5757  0.1490
   17MOL   H96617318   4.264   4.829   1.257 -1.8144  0.8138 -0.0296
   17MOL   H96717319   4.622   4.555   1.167  2.6504 -0.1266 -0.8851
   17MOL   H96817320   4.747   4.382   1.031  0.3161 -0.7919 -0.6255
   17MOL   H96917321   4.650   4.425   0.531  0.4774 -0.7040 -2.2017
   17MOL   H97017322   4.565   4.302   0.325  0.9567  1.5951  0.7857
   17MOL   N97117323   4.095   5.672   0.631  0.2855  0.2412  0.4806
   17MOL   C97217324   4.032   5.795   0.629  0.1976 -0.1422  0.2503
   17MOL   C97317325   3.907   5.819   0.686  0.2126 -0.7893 -0.1439
   17MOL   C97417326   3.859   5.951   0.689  0.4961  0.1837 -0.5433
   17MOL   C97517327   3.934   6.059   0.637  0.1239  0.0061 -0.6202
   17MOL   N97617328   3.894   6.190   0.643 -0.1500 -0.1300 -0.6977
   17MOL   C97717329   3.765   6.234   0.606  0.2865 -0.4398 -0.1852
   17MOL   C97817330   3.670   6.162   0.527 -0.1729 -0.2191 -0.4380
   17MOL   C97917331   3.546   6.221   0.501  0.2358 -0.5599  0.0397
   17MOL   C98017332   3.525   6.350   0.539  0.3100  0.3005 -0.0629
   17MOL   N98117333   3.413   6.409   0.490  0.4818  0.5440 -0.0793
   17MOL   C98217334   3.313   6.480   0.563  0.9553 -0.5046 -0.1908
   17MOL   C98317335   3.320   6.487   0.700  0.5276 -0.4366  0.5737
   17MOL   C98417336   3.211   6.551   0.772 -0.5738 -0.9341 -0.0148
   17MOL   C98517337   3.095   6.596   0.711 -0.4077 -0.2615 -0.6720
   17MOL   N98617338   2.988   6.648   0.785 -0.4733  0.2824  0.1772
   17MOL   C98717339   2.894   6.739   0.741 -0.4202  0.1258 -0.2264
   17MOL   C98817340   2.759   6.721   0.783  0.4584  0.8662  0.0935
   17MOL   C98917341   2.653   6.797   0.733  0.1527  0.0613  0.9995
   17MOL   C99017342   2.684   6.916   0.647 -0.3785 -0.1499  0.4102
   17MOL   C99117343   2.579   7.009   0.580 -0.1990  0.3980 -0.5386
   17MOL   C99217344   2.818   6.934   0.612  0.0173 -0.5922 -0.0140
   17MOL   C99317345   2.920   6.842   0.657 -0.0910 -0.2269  0.1131
   17MOL   C99417346   3.090   6.578   0.567 -0.5152 -0.7587 -0.1193
   17MOL   C99517347   3.194   6.517   0.498 -0.6272  0.1855 -0.0197
   17MOL   C99617348   3.614   6.419   0.618  0.8140 -0.7882  0.0316
   17MOL   C99717349   3.729   6.362   0.652 -0.2863 -0.2585  0.6097
   17MOL   C99817350   4.055   6.031   0.573  0.3208  0.3479 -0.0710
   17MOL   C99917351   4.104   5.900   0.570  0.4934  0.3740 -0.3120
   17MOL     H117352   4.183   5.658   0.585  0.5710  0.8964  0.8172
   17MOL     H217353   3.849   5.745   0.739  1.0945 -1.2225  0.2126
   17MOL     H317354   3.773   5.971   0.751 -0.0936 -0.9772 -0.9720
   17MOL     H417355   3.970   6.254   0.623 -0.5344  0.2433 -0.9783
   17MOL     H517356   3.688   6.062   0.491 -2.0009 -0.3870 -0.9406
   17MOL     H617357   3.478   6.161   0.443 -1.0763  1.6808 -0.7864
   17MOL     H717358   3.380   6.360   0.407  1.7630  0.8068 -0.7512
   17MOL     H817359   3.402   6.444   0.755  1.0544 -0.7897 -0.4860
   17MOL     H917360   3.225   6.561   0.879  3.3490  3.1407 -0.7317
   17MOL    H1017361   2.999   6.629   0.884  0.6776  0.3203  0.0723
   17MOL    H1117362   2.739   6.644   0.856  1.6958  0.6693  0.2364
   17MOL    H1217363   2.553   6.786   0.774 -0.1193 -0.3735  0.2197
   17MOL    H1317364   2.555   7.093   0.646  2.1502  0.1606  0.6642
   17MOL    H1417365   2.486   6.958   0.558 -0.2222 -0.5616  1.6806
   17MOL    H1517366   2.851   7.009   0.542 -2.2945 -0.9448 -1.5563
   17MOL    H1617367   3.024   6.852   0.629  0.5999  0.9108  2.8964
   17MOL    H1717368   2.999   6.597   0.511  0.1968  1.5597 -0.5312
   17MOL    H1817369   3.180   6.506   0.392 -1.9939 -1.9921  0.3566
   17MOL    H1917370   3.595   6.519   0.654  0.6772 -1.0945  0.8140
   17MOL    H2017371   3.800   6.404   0.722 -0.9680  0.5559  0.8133
   17MOL    H2117372   4.112   6.109   0.524 -0.2918 -0.0657 -1.4890
   17MOL    H2217373   4.190   5.875   0.510  1.1492 -1.4265  1.3186
   17MOL    H2317374   2.623   7.062   0.496  0.6720  0.8402  0.1822
   18MOL     N117375   4.973   3.632   6.690 -0.6261 -0.8695 -0.1667
   18MOL     C217376   5.080   3.648   6.607  0.1729 -0.5931 -0.0709
   18MOL     C317377   5.121   3.778   6.571 -0.7871  0.0532  0.0868
   18MOL     C417378   5.228   3.799   6.478  0.6168  0.6221 -0.6443
   18MOL     C517379   5.298   3.688   6.427  0.7917  0.1423  0.8032
   18MOL     N617380   5.399   3.702   6.328  0.3779  0.8369 -0.1500
   18MOL     C717381   5.418   3.811   6.245 -0.9370  0.3568  0.3912
   18MOL     C817382   5.375   3.801   6.111 -0.2896 -0.2018  0.1241
   18MOL     C917383   5.387   3.915   6.032  0.6264  0.5234  0.1983
   18MOL    C1017384   5.443   4.036   6.078 -0.3724  0.0085  0.3724
   18MOL    N1117385   5.437   4.155   6.000  0.2304 -0.5561  0.5255
   18MOL    C1217386   5.536   4.258   5.997 -0.4162 -0.3299  0.3484
   18MOL    C1317387   5.665   4.248   6.059 -0.1515  0.2647 -0.2439
   18MOL    C1417388   5.762   4.340   6.024  0.6631 -0.1282 -0.0794
   18MOL    C1517389   5.727   4.455   5.942  0.7480  0.6742  0.1449
   18MOL    N1617390   5.822   4.553   5.913 -0.7072 -0.8683  0.1782
   18MOL    C1717391   5.896   4.638   5.997  0.1725  0.6260 -0.7794
   18MOL    C1817392   5.925   4.610   6.132 -0.0166 -0.1976  0.0114
   18MOL    C1917393   6.009   4.694   6.202  0.3539  0.8172  0.2405
   18MOL    C2017394   6.061   4.816   6.149 -0.6171 -0.0471  0.2591
   18MOL    C2117395   6.149   4.910   6.231 -0.2138  0.0580 -1.1498
   18MOL    C2217396   6.034   4.840   6.014  0.1266 -0.3890  0.2086
   18MOL    C2317397   5.949   4.754   5.937  0.4567 -0.1360 -0.4314
   18MOL    C2417398   5.592   4.481   5.902 -0.2547 -0.0978 -0.3468
   18MOL    C2517399   5.508   4.371   5.919  0.4122 -0.0324  0.0462
   18MOL    C2617400   5.489   4.042   6.209 -0.3262  0.5787 -0.1519
   18MOL    C2717401   5.478   3.926   6.297  0.2065  0.4682 -0.1671
   18MOL    C2817402   5.253   3.556   6.458 -0.5014 -0.2868 -0.0036
   18MOL    C2917403   5.154   3.542   6.560 -0.1809  0.3114  0.7073
   18MOL    H3017404   4.931   3.542   6.704 -1.0226 -0.7246 -0.4375
   18MOL    H3117405   5.061   3.861   6.608  0.8344  0.3910  2.0861
   18MOL    H3217406   5.255   3.896   6.439 -1.7312  1.6653  0.1835
   18MOL    H3317407   5.438   3.616   6.291 -0.5534  0.3642 -0.0364
   18MOL    H3417408   5.344   3.710   6.061 -2.5588  2.4916 -3.6844
   18MOL    H3517409   5.365   3.914   5.926  0.6246 -0.7944  0.1945
   18MOL    H3617410   5.367   4.159   5.927 -0.3357 -1.9195  0.9690
   18MOL    H3717411   5.693   4.154   6.103  0.2222  1.0098  1.1671
   18MOL    H3817412   5.865   4.327   6.052  0.8631 -0.0108 -0.7480
   18MOL    H3917413   5.792   4.590   5.824 -0.3693  0.5447  0.6346
   18MOL    H4017414   5.882   4.524   6.180  0.2089 -0.4356 -0.2144
   18MOL    H4117415   6.026   4.667   6.305 -2.2676  1.2323  0.8301
   18MOL    H4217416   6.148   5.011   6.189 -0.2216  0.5837  0.0912
   18MOL    H4317417   6.250   4.871   6.236  0.0499  0.8082 -0.5851
   18MOL    H4417418   6.081   4.919   5.956  0.8554  1.1762  2.8694
   18MOL    H4517419   5.932   4.789   5.836  2.6277  1.7564 -0.1892
   18MOL    H4617420   5.556   4.561   5.839  0.1977  0.0857 -0.3776
   18MOL    H4717421   5.407   4.382   5.882  0.0607  0.9611  1.2570
   18MOL    H4817422   5.537   4.128   6.254 -1.5001  1.7160 -1.0091
   18MOL    H4917423   5.516   3.930   6.398  2.7966 -0.2642 -1.0617
   18MOL    H5017424   5.304   3.473   6.413  2.0251  0.7681  0.8104
   18MOL    H5117425   5.128   3.442   6.590  0.8708 -0.6094 -1.3632
   18MOL    H5217426   4.903   3.705   6.685  1.0099  0.7161 -0.4680
   18MOL    N5317427   6.096   4.934   6.363 -1.0526  0.4835 -0.1777
   18MOL    C5417428   6.169   5.000   6.464  0.3701 -0.4277 -0.4534
   18MOL    C5517429   6.122   4.989   6.596  0.1272 -0.5626  0.2026
   18MOL    C5617430   6.164   5.071   6.700  0.2526  0.0430  0.0623
   18MOL    C5717431   6.260   5.172   6.676 -0.2383  0.2101 -0.5693
   18MOL    N5817432   6.301   5.244   6.790  0.7943 -0.1857  0.7017
   18MOL    C5917433   6.398   5.347   6.787 -0.2171 -0.0335 -0.8218
   18MOL    C6017434   6.381   5.449   6.699 -0.4348 -0.3450  0.7595
   18MOL    C6117435   6.476   5.555   6.698  0.4958  0.6227  0.3747
   18MOL    C6217436   6.592   5.548   6.784 -0.2825  0.0833  0.3541
   18MOL    N6317437   6.689   5.641   6.789 -0.4826 -0.9752  1.1105
   18MOL    C6417438   6.735   5.725   6.686  0.5205  0.8584 -0.3337
   18MOL    C6517439   6.795   5.850   6.715  0.6207  0.2043 -0.4017
   18MOL    C6617440   6.837   5.943   6.612 -0.0886  0.4655 -0.4855
   18MOL    C6717441   6.819   5.906   6.478  0.5657  0.0113  0.7913
   18MOL    N6817442   6.875   5.987   6.381  0.6792  0.1187  0.3626
   18MOL    C6917443   6.821   6.023   6.256  0.2530  0.0263  0.1216
   18MOL    C7017444   6.679   6.013   6.239 -0.3561 -0.0160 -0.0530
   18MOL    C7117445   6.621   6.049   6.120  0.0189  0.0976  0.2440
   18MOL    C7217446   6.703   6.097   6.015  0.3260  0.2691 -0.8651
   18MOL    C7317447   6.647   6.120   5.881 -0.5476 -0.6848 -0.1993
   18MOL    C7417448   6.844   6.104   6.031 -0.1483  0.5333  0.3270
   18MOL    C7517449   6.903   6.064   6.153  0.4565  0.1525  0.8525
   18MOL    C7617450   6.756   5.781   6.447  0.3005  0.1578 -0.2802
   18MOL    C7717451   6.719   5.692   6.549  0.0779  0.1885 -0.0637
   18MOL    C7817452   6.607   5.440   6.871  0.2803 -0.1411  0.0699
   18MOL    C7917453   6.511   5.336   6.872  0.0757  0.2816  0.1075
   18MOL    C8017454   6.312   5.177   6.541  0.1432 -0.0012 -0.5983
   18MOL    C8117455   6.261   5.100   6.438 -0.3415  0.7361 -0.4479
   18MOL    H8217456   6.005   4.901   6.390 -0.9437  0.4819  0.1829
   18MOL    H8317457   6.036   4.924   6.610  0.1167 -0.3959  0.9347
   18MOL    H8417458   6.114   5.064   6.796 -0.8817  1.7462 -0.3815
   18MOL    H8517459   6.275   5.203   6.878 -1.4162 -1.5146 -0.5319
   18MOL    H8617460   6.295   5.461   6.635  0.1341  1.9066  0.3490
   18MOL    H8717461   6.462   5.643   6.638 -0.0940 -1.0945 -2.0510
   18MOL    H8817462   6.746   5.639   6.873  1.1073 -1.0104  0.0412
   18MOL    H8917463   6.799   5.886   6.817  1.1733  0.0765 -0.3778
   18MOL    H9017464   6.879   6.034   6.652  3.0023 -2.2687  2.7773
   18MOL    H9117465   6.951   6.047   6.411  1.0095 -1.2417  2.4062
   18MOL    H9217466   6.624   5.999   6.331 -1.6120  2.5067 -0.3657
   18MOL    H9317467   6.515   6.031   6.108  0.2575 -1.8678  0.7651
   18MOL    H9417468   6.602   6.038   5.826  1.8737 -2.2436  0.1049
   18MOL    H9517469   6.730   6.152   5.817  0.1050  2.0581  1.9181
   18MOL    H9617470   6.905   6.136   5.948 -1.8255  0.7694 -0.8355
   18MOL    H9717471   7.010   6.065   6.168  0.2131 -1.6784  3.0197
   18MOL    H9817472   6.745   5.761   6.342 -1.0153  0.5827 -0.2360
   18MOL    H9917473   6.682   5.593   6.527  1.7213 -0.1334 -1.4276
   18MOL   H10017474   6.691   5.435   6.938 -0.2908 -2.3496  0.6627
   18MOL   H10117475   6.522   5.254   6.941 -0.5357 -0.8843 -1.1655
   18MOL   H10217476   6.395   5.243   6.521  0.4495 -0.0450  0.4868
   18MOL   H10317477   6.320   5.109   6.348  2.0576 -1.5505  0.8233
   18MOL   N10417478   6.540   6.217   5.887 -0.4982 -0.7358  0.1262
   18MOL   C10517479   6.504   6.287   5.768  0.0588  0.9962  0.8688
   18MOL   C10617480   6.537   6.247   5.632  0.1905  0.3520 -0.6791
   18MOL   C10717481   6.494   6.311   5.515  0.2662 -0.2572  0.7093
   18MOL   C10817482   6.418   6.432   5.527 -0.0182  0.0868  0.1449
   18MOL   N10917483   6.365   6.503   5.417 -0.0182 -0.3783 -0.0405
   18MOL   C11017484   6.420   6.523   5.293  0.5373 -0.3046 -0.3754
   18MOL   C11117485   6.334   6.566   5.189  0.4008  0.8085 -0.4548
   18MOL   C11217486   6.388   6.593   5.060 -0.4616 -0.6262  0.2478
   18MOL   C11317487   6.530   6.578   5.038  0.6477  0.8401  0.2252
   18MOL   N11417488   6.585   6.602   4.913 -0.0657 -0.2648 -0.2149
   18MOL   C11517489   6.718   6.631   4.878  0.4411 -0.4611 -0.0737
   18MOL   C11617490   6.812   6.700   4.962  0.4968 -0.2742  0.4219
   18MOL   C11717491   6.949   6.711   4.922 -0.1388  0.4725 -0.8356
   18MOL   C11817492   6.988   6.667   4.791  0.1890  0.0707  0.5859
   18MOL   N11917493   7.122   6.678   4.756  0.6552 -0.5123 -0.2200
   18MOL   C12017494   7.185   6.707   4.636  0.2724 -0.6389 -0.1650
   18MOL   C12117495   7.114   6.784   4.540 -0.7256 -0.3446  0.4953
   18MOL   C12217496   7.177   6.820   4.418  0.7279  0.9429  0.3421
   18MOL   C12317497   7.313   6.788   4.400  0.4174 -0.7300  0.6049
   18MOL   C12417498   7.395   6.842   4.284 -0.0220 -0.0290  0.0934
   18MOL   C12517499   7.383   6.718   4.498 -0.1763 -0.2912 -0.4691
   18MOL   C12617500   7.322   6.678   4.615  0.5112  0.2431 -0.2327
   18MOL   C12717501   6.898   6.605   4.699  0.5588 -0.1041 -0.3225
   18MOL   C12817502   6.759   6.589   4.749 -0.9970  0.1124  0.1836
   18MOL   C12917503   6.615   6.531   5.144 -0.1243 -0.0489  0.1211
   18MOL   C13017504   6.558   6.504   5.269  0.2528  0.0047 -0.2069
   18MOL   C13117505   6.379   6.472   5.659 -0.2718  0.0719 -0.1868
   18MOL   C13217506   6.427   6.404   5.772  0.0992 -0.1471 -0.6030
   18MOL   H13317507   6.542   6.273   5.971  0.1839  0.6064 -0.7646
   18MOL   H13417508   6.590   6.153   5.621  0.6293  0.8186 -2.8335
   18MOL   H13517509   6.514   6.267   5.419  0.1090  1.2692 -0.0428
   18MOL   H13617510   6.298   6.575   5.442  0.6623  0.4380 -0.5384
   18MOL   H13717511   6.231   6.593   5.204  0.3026  0.0709  0.2012
   18MOL   H13817512   6.321   6.629   4.984  1.0039  1.5395 -0.0607
   18MOL   H13917513   6.515   6.604   4.840  0.2201 -0.9268 -0.5000
   18MOL   H14017514   6.784   6.743   5.057  0.9990  0.7925  0.0968
   18MOL   H14117515   7.017   6.763   4.988 -0.0174 -1.2234  0.3966
   18MOL   H14217516   7.188   6.657   4.830 -0.1639 -0.2178  0.6050
   18MOL   H14317517   7.009   6.806   4.556 -1.0621 -0.9944 -0.7813
   18MOL   H14417518   7.121   6.872   4.341 -1.4112  0.0547  1.2430
   18MOL   H14517519   7.403   6.752   4.223  4.5069 -1.3137  2.3110
   18MOL   H14617520   7.500   6.859   4.309  0.5447 -0.9785 -1.5211
   18MOL   H14717521   7.488   6.701   4.481  0.8758  2.5225  2.6450
   18MOL   H14817522   7.372   6.618   4.690 -1.0138 -0.1655  0.4879
   18MOL   H14917523   6.929   6.552   4.610  1.2110 -4.9433  2.6026
   18MOL   H15017524   6.684   6.534   4.693  0.2977 -1.1158 -0.3662
   18MOL   H15117525   6.719   6.517   5.122  0.2924 -0.3896  2.1812
   18MOL   H15217526   6.627   6.459   5.339  3.5747  1.3070 -2.4989
   18MOL   H15317527   6.318   6.560   5.675 -1.7198 -0.7963 -0.7918
   18MOL   H15417528   6.398   6.446   5.868  0.4692 -0.5985 -0.2935
   18MOL   N15517529   7.342   6.962   4.213 -0.0118  0.0562  0.0285
   18MOL   C15617530   7.340   7.093   4.256  0.1822 -0.0938 -0.4844
   18MOL   C15717531   7.299   7.198   4.176  0.3096  0.3535 -0.1904
   18MOL   C15817532   7.296   7.324   4.225  1.2077 -0.1435 -1.0497
   18MOL   C15917533   7.340   7.347   4.357  0.0960  0.4783  0.1058
   18MOL   N16017534   7.341   7.475   4.412  0.0839 -0.6240 -0.5857
   18MOL   C16117535   7.290   7.515   4.537  0.3331  0.3324 -0.0127
   18MOL   C16217536   7.325   7.639   4.587  0.3841  0.0525  0.0978
   18MOL   C16317537   7.286   7.679   4.720 -0.5048  0.0488  0.1877
   18MOL   C16417538   7.205   7.590   4.796  0.0215 -0.7423  1.0070
   18MOL   N16517539   7.160   7.614   4.926 -0.1425  0.4967  0.3710
   18MOL   C16617540   7.152   7.728   5.000 -0.1537 -0.6492 -0.3185
   18MOL   C16717541   7.153   7.861   4.941  0.3006 -0.5675 -0.2880
   18MOL   C16817542   7.155   7.968   5.031 -0.2273 -0.4336 -0.1411
   18MOL   C16917543   7.133   7.949   5.166  0.3022 -0.2903 -0.1931
   18MOL   N17017544   7.102   0.080   5.250 -0.1086  0.2183 -0.2985
   18MOL   C17117545   7.011   0.074   5.359 -0.0057 -0.7492 -0.0642
   18MOL   C17217546   6.882   0.020   5.337  0.3191 -0.2575 -0.1768
   18MOL   C17317547   6.783   0.028   5.443  0.1246 -0.0776 -0.2033
   18MOL   C17417548   6.814   0.099   5.562 -0.2440  0.3662  0.8745
   18MOL   C17517549   6.718   0.094   5.679  0.1167 -0.6256 -0.7665
   18MOL   C17617550   6.946   0.156   5.577 -0.9221 -0.1878 -0.7647
   18MOL   C17717551   7.043   0.138   5.477  0.3624 -0.0914 -0.1508
   18MOL   C17817552   7.122   7.819   5.224  0.1245 -0.5094  0.2481
   18MOL   C17917553   7.138   7.705   5.142  0.0314  0.4360  0.0019
   18MOL   C18017554   7.168   7.467   4.750 -0.3705  0.7987 -0.5561
   18MOL   C18117555   7.204   7.438   4.618  0.4178  0.0910 -0.4911
   18MOL   C18217556   7.388   7.241   4.434 -0.2630 -0.7489 -0.0011
   18MOL   C18317557   7.393   7.112   4.381 -0.9593 -0.0188 -0.2399
   18MOL   H18417558   7.328   6.942   4.116  1.2728  1.1612 -0.4113
   18MOL   H18517559   7.254   7.183   4.079  1.5469 -0.7379 -0.6108
   18MOL   H18617560   7.261   7.409   4.168 -1.0470  1.2638  2.2121
   18MOL   H18717561   7.356   7.547   4.342  0.5806  0.2205  0.3858
   18MOL   H18817562   7.380   7.709   4.527  1.4439 -1.3049 -0.5340
   18MOL   H18917563   7.317   7.778   4.750 -1.9209  1.9629 -4.2612
   18MOL   H19017564   7.142   7.534   4.985 -0.6510  0.8965  0.7578
   18MOL   H19117565   7.163   7.871   4.834 -2.3741  1.6370 -0.3858
   18MOL   H19217566   7.175   0.085   4.993  0.8746 -0.6237 -0.0670
   18MOL   H19317567   7.147   0.167   5.225  1.9235 -0.8252 -0.4383
   18MOL   H19417568   6.861   7.956   5.242 -0.0945 -0.0787 -0.1704
   18MOL   H19517569   6.684   7.969   5.434 -0.4139  1.0816  0.3149
   18MOL   H19617570   6.622   0.141   5.656 -0.5486 -2.7272 -2.4113
   18MOL   H19717571   6.750   0.162   5.758 -0.6265 -0.6215 -0.4640
   18MOL   H19817572   6.974   0.192   5.675 -0.4408 -1.5616 -0.3905
   18MOL   H19917573   7.146   0.169   5.488 -0.0878  1.5741 -0.3819
   18MOL   H20017574   7.095   7.808   5.327 -1.6970 -1.6607 -0.3276
   18MOL   H20117575   7.119   7.608   5.186 -0.6192  0.6305  0.1575
   18MOL   H20217576   7.097   7.410   4.809  0.1477  1.6967  0.9632
   18MOL   H20317577   7.181   7.342   4.575  1.3627  0.8428 -2.7768
   18MOL   H20417578   7.418   7.265   4.535 -1.1564 -0.0976  0.1100
   18MOL   H20517579   7.435   7.033   4.442 -0.8646  1.1677  1.2773
   18MOL   N20617580   6.713   7.942   5.733  0.1395  0.1387 -0.5602
   18MOL   C20717581   6.673   7.911   5.865  0.1352 -0.5085  0.2384
   18MOL   C20817582   6.580   0.005   5.936 -0.0850 -1.0019 -0.8002
   18MOL   C20917583   6.540   7.948   6.065 -0.2311 -0.3865 -0.1027
   18MOL   C21017584   6.597   7.832   6.120 -0.2609 -0.2297  0.4014
   18MOL   N21117585   6.566   7.809   6.253  0.1320  0.5092 -0.0182
   18MOL   C21217586   6.532   7.684   6.304 -0.3194  0.2967  0.2861
   18MOL   C21317587   6.467   7.584   6.227  0.1932  0.3743  0.3704
   18MOL   C21417588   6.440   7.458   6.285  0.6352 -0.3332 -0.0945
   18MOL   C21517589   6.470   7.439   6.422  0.1970 -0.0210 -0.1259
   18MOL   N21617590   6.427   7.322   6.484 -0.0999 -1.1163 -0.2305
   18MOL   C21717591   6.368   7.304   6.609  0.1773  0.3660 -0.4764
   18MOL   C21817592   6.295   7.410   6.672  0.0293 -0.3626  0.4588
   18MOL   C21917593   6.233   7.384   6.799  0.7513 -0.5442  0.0949
   18MOL   C22017594   6.258   7.264   6.865 -0.4069 -0.2080  0.1406
   18MOL   N22117595   6.186   7.238   6.981  0.2752 -0.1915  0.4766
   18MOL   C22217596   6.200   7.321   7.088 -0.3701 -0.4178 -0.4700
   18MOL   C22317597   6.310   7.403   7.112  0.2969  0.4629 -0.1861
   18MOL   C22417598   6.336   7.464   7.236 -0.1107  0.3277 -0.5594
   18MOL   C22517599   6.241   7.451   7.337 -0.1454 -0.6127  0.3928
   18MOL   C22617600   6.274   7.521   7.464 -0.3792  0.3860  0.4114
   18MOL   C22717601   6.127   7.368   7.318  0.5534 -0.2272  0.0152
   18MOL   C22817602   6.104   7.302   7.195 -0.2618 -0.2496 -0.2309
   18MOL   C22917603   6.312   7.155   6.799  0.1000 -0.1712  0.0340
   18MOL   C23017604   6.382   7.185   6.677  0.5522  0.5202  0.4248
   18MOL   C23117605   6.534   7.538   6.497 -0.3998 -0.4794 -0.7378
   18MOL   C23217606   6.562   7.657   6.437  0.2144  0.1030 -0.3798
   18MOL   C23317607   6.691   7.751   6.053  0.7723 -0.4692 -0.0340
   18MOL   C23417608   6.723   7.785   5.918  0.4093 -0.3969 -0.0956
   18MOL   H23517609   6.763   7.877   5.675 -0.2171  0.1539 -0.8873
   18MOL   H23617610   6.534   0.093   5.895  0.1805 -0.5961 -0.2204
   18MOL   H23717611   6.454   0.017   6.106  0.2765  0.2970  0.1081
   18MOL   H23817612   6.585   7.881   6.322 -0.8831  2.1969 -1.4502
   18MOL   H23917613   6.445   7.603   6.123  1.5461  2.0939  0.3563
   18MOL   H24017614   6.392   7.376   6.233  2.1046  1.5896 -4.7502
   18MOL   H24117615   6.454   7.233   6.444 -1.5971 -1.1430 -1.2253
   18MOL   H24217616   6.287   7.508   6.626 -1.0885 -0.8217 -0.3203
   18MOL   H24317617   6.165   7.455   6.844 -0.8393 -1.6513 -0.5181
   18MOL   H24417618   6.094   7.204   6.960 -0.1195  1.0653  0.1392
   18MOL   H24517619   6.380   7.408   7.030  0.8052  2.2833  0.3303
   18MOL   H24617620   6.422   7.529   7.240  0.2962 -0.2466 -0.0419
   18MOL   H24717621   6.185   7.547   7.522 -0.8589 -2.5257  1.0587
   18MOL   H24817622   6.325   7.616   7.443  0.6689 -0.4034 -0.6931
   18MOL   H24917623   6.059   7.352   7.401  2.9768  0.2717  2.1641
   18MOL   H25017624   6.019   7.236   7.187  1.1526 -2.4491  2.3794
   18MOL   H25117625   6.317   7.060   6.851  0.3266 -0.9199 -1.3105
   18MOL   H25217626   6.428   7.102   6.625  1.7109  0.4448  1.5490
   18MOL   H25317627   6.554   7.530   6.603 -1.4601 -1.8194 -0.6321
   18MOL   H25417628   6.617   7.727   6.498 -0.5289 -0.6068  1.1317
   18MOL   H25517629   6.733   7.661   6.095 -0.0641 -0.8628 -0.0329
   18MOL   H25617630   6.785   7.722   5.857  1.7311  0.4200  0.3880
   18MOL   N25717631   6.357   7.436   7.545 -1.0063  0.0714 -0.3939
   18MOL   C25817632   6.453   7.504   7.628  0.5791  0.9645 -0.1431
   18MOL   C25917633   6.580   7.454   7.642 -0.6232  0.7888  0.3673
   18MOL   C26017634   6.671   7.508   7.733 -0.2020  0.6486  0.0855
   18MOL   C26117635   6.635   7.615   7.814  0.0042 -0.1717 -0.6055
   18MOL   N26217636   6.727   7.662   7.908  0.0549 -0.0735 -0.5684
   18MOL   C26317637   6.697   7.752   0.028 -0.0869 -0.3058  0.8493
   18MOL   C26417638   6.647   7.883   0.005  0.2901  0.0039  0.4889
   18MOL   C26517639   6.602   7.966   0.106  0.0354 -0.3095  0.3447
   18MOL   C26617640   6.615   7.923   0.245 -0.2143  0.4642 -0.5853
   18MOL   N26717641   6.565   0.024   0.354  0.0593  0.3853  0.1406
   18MOL   C26817642   6.435   0.060   0.382 -0.4781 -0.6103  0.1393
   18MOL   C26917643   6.409   0.141   0.495 -0.5729  0.2575  0.0582
   18MOL   C27017644   6.275   0.186   0.520  0.4019  0.0624 -0.2268
   18MOL   C27117645   6.165   0.137   0.443 -0.4634 -0.0111 -0.0944
   18MOL   N27217646   6.037   0.157   0.483 -0.6008  0.2761  0.1328
   18MOL   C27317647   5.933   0.068   0.455  0.2018 -0.0186 -0.2548
   18MOL   C27417648   5.901   7.941   0.540  0.0224  0.2393 -0.1189
   18MOL   C27517649   5.802   7.846   0.505 -0.1272  0.0891 -0.4642
   18MOL   C27617650   5.742   7.856   0.380  0.8527  0.5411  0.3369
   18MOL   C27717651   5.636   7.754   0.341 -0.4376 -0.2707  1.3272
   18MOL   C27817652   5.778   7.958   0.288 -0.1773  0.5660 -0.1716
   18MOL   C27917653   5.874   0.072   0.324 -0.2141  0.4765 -0.0191
   18MOL   C28017654   6.199   0.061   0.326 -0.7796  0.2503 -0.0623
   18MOL   C28117655   6.333   0.028   0.293  0.7487 -0.0111 -0.0442
   18MOL   C28217656   6.659   7.791   0.267 -0.2533  0.4210 -0.1792
   18MOL   C28317657   6.716   7.710   0.164  0.4886 -0.0578 -0.4811
   18MOL   C28417658   6.502   7.663   7.806 -1.0495  0.0350 -0.2449
   18MOL   C28517659   6.413   7.614   7.710 -0.0256  0.1185 -0.1102
   18MOL   H28617660   6.364   7.347   7.500 -1.3433  1.0611 -2.4410
   18MOL   H28717661   6.609   7.366   7.585 -0.2343  0.0132  1.7294
   18MOL   H28817662   6.770   7.464   7.740 -0.9546 -1.0544  0.1688
   18MOL   H28917663   6.801   7.596   7.929  0.7237  0.4662 -1.2012
   18MOL   H29017664   6.631   7.916   7.885 -1.0488  0.2519  0.7635
   18MOL   H29117665   6.555   0.077   0.076  2.3692  0.5074 -0.9270
   18MOL   H29217666   6.627   0.036   0.432  0.3490  0.9159 -0.1685
   18MOL   H29317667   6.483   0.179   0.563  0.4780  1.4700 -1.7179
   18MOL   H29417668   6.263   0.257   0.600  0.6186  0.3019 -0.4082
   18MOL   H29517669   6.028   0.192   0.578  1.3664  4.4684 -1.0936
   18MOL   H29617670   5.934   7.922   0.641 -2.1243 -0.3725  0.4813
   18MOL   H29717671   5.778   7.764   0.572  1.2345  0.5043  0.5614
   18MOL   H29817672   5.575   7.805   0.266  3.1896 -0.4027 -1.8660
   18MOL   H29917673   5.573   7.736   0.428 -0.9188 -1.7557  0.6902
   18MOL   H30017674   5.742   7.951   0.186 -1.9430  1.1348  0.3831
   18MOL   H30117675   5.918   0.143   0.255 -0.7168  1.4450  0.6371
   18MOL   H30217676   6.119   0.006   0.279 -1.4507  1.2544 -0.1348
   18MOL   H30317677   6.354   7.944   0.210  0.3866  2.1899 -1.9695
   18MOL   H30417678   6.659   7.759   0.370 -0.5021  2.5228  0.4852
   18MOL   H30517679   6.754   7.612   0.187 -0.3630 -0.0913  0.8291
   18MOL   H30617680   6.470   7.733   7.882  0.7561  0.9802 -0.3481
   18MOL   H30717681   6.311   7.650   7.710  0.2482  0.9109 -0.0493
   18MOL   N30817682   5.692   7.624   0.290  0.7388 -0.4174  0.1559
   18MOL   C30917683   5.596   7.531   0.241  0.3888 -0.3956 -0.4736
   18MOL   C31017684   5.501   7.476   0.321 -0.2022  0.3607  0.5443
   18MOL   C31117685   5.400   7.387   0.274 -0.1635 -0.0117  0.1748
   18MOL   C31217686   5.400   7.355   0.134 -0.0784  0.6523 -0.9248
   18MOL   N31317687   5.283   7.300   0.082 -0.3086 -0.4005  0.5460
   18MOL   C31417688   5.264   7.234   7.941  0.1759  0.4556 -0.6313
   18MOL   C31517689   5.359   7.155   7.871 -0.3824 -0.2297  0.4533
   18MOL   C31617690   5.323   7.096   7.753  0.1683  0.0315  0.1139
   18MOL   C31717691   5.200   7.116   7.691 -0.2442 -0.4802 -0.1376
   18MOL   N31817692   5.177   7.047   7.566  0.1479  0.1141 -0.9104
   18MOL   C31917693   5.079   7.077   7.472  0.1708 -0.2136 -0.6976
   18MOL   C32017694   5.019   6.975   7.396 -0.1971  0.7405 -0.3168
   18MOL   C32117695   4.942   7.008   7.284 -0.1436 -0.0032  0.1897
   18MOL   C32217696   4.905   7.141   7.264  0.5529  0.3194  0.1742
   18MOL   N32317697   4.837   7.172   7.147 -0.9486 -0.1207  0.0081
   18MOL   C32417698   4.837   7.296   7.079 -0.1143  0.0340 -0.6782
   18MOL   C32517699   4.963   7.348   7.046  0.2351 -0.3807  0.0155
   18MOL   C32617700   4.970   7.480   6.993 -0.3272  0.5881  0.1177
   18MOL   C32717701   4.850   7.554   6.968  0.6115  0.0137 -0.2032
   18MOL   C32817702   4.847   7.704   6.936  0.1463  0.4681 -0.3270
   18MOL   C32917703   4.724   7.490   6.994  0.7543  0.3266  0.0657
   18MOL   C33017704   4.716   7.357   7.040  0.0742  0.2913 -0.3249
   18MOL   C33117705   4.962   7.240   7.346 -0.2175 -0.5800 -0.5951
   18MOL   C33217706   5.042   7.209   7.452 -0.5702 -0.1305 -0.0040
   18MOL   C33317707   5.108   7.193   7.763  0.0675 -0.3043 -0.1529
   18MOL   C33417708   5.137   7.255   7.885 -1.1961  0.4680 -0.2618
   18MOL   C33517709   5.501   7.406   0.050  0.1018 -0.2413 -1.1769
   18MOL   C33617710   5.601   7.494   0.104  0.4156  0.2664 -0.0120
   18MOL   H33717711   5.768   7.639   0.226 -0.2741 -1.8935 -1.4773
   18MOL   H33817712   5.504   7.491   0.428  0.0092 -2.7741  1.0193
   18MOL   H33917713   5.321   7.364   0.344  0.6634 -0.4497  0.9733
   18MOL   H34017714   5.203   7.300   0.144 -0.2095 -0.1473  0.6747
   18MOL   H34117715   5.456   7.133   7.911  0.3123  0.8584 -0.5967
   18MOL   H34217716   5.398   7.038   7.702  0.3689 -0.2685  0.7501
   18MOL   H34317717   5.215   6.954   7.561 -1.6897 -0.7663  0.9863
   18MOL   H34417718   5.045   6.872   7.418 -1.3532  0.4817 -0.1203
   18MOL   H34517719   4.921   6.934   7.209 -1.0499  1.1121 -0.6806
   18MOL   H34617720   4.755   7.116   7.127 -0.2456 -1.5447  0.9951
   18MOL   H34717721   5.057   7.298   7.065 -0.1468 -0.1040  2.8543
   18MOL   H34817722   5.071   7.518   6.987  0.0866 -0.2302  1.4208
   18MOL   H34917723   4.751   7.751   6.957 -0.2225  0.9683 -3.0523
   18MOL   H35017724   4.874   7.715   6.832  2.5188  0.8320  0.3188
   18MOL   H35117725   4.631   7.543   6.987  0.6247 -0.2620 -3.3324
   18MOL   H35217726   4.619   7.310   7.043 -0.1461  0.6209 -1.9077
   18MOL   H35317727   4.946   7.343   7.320  1.0350 -0.3998 -0.6740
   18MOL   H35417728   5.079   7.289   7.514 -0.7858 -1.5267  1.9767
   18MOL   H35517729   5.008   7.205   7.724  0.5896  3.3283 -0.5737
   18MOL   H35617730   5.059   7.316   7.928 -1.5678  0.7869 -1.3571
   18MOL   H35717731   5.502   7.372   7.929 -0.6307 -1.5043 -0.7804
   18MOL   H35817732   5.689   7.520   0.047 -0.5375  2.1289 -0.6720
   18MOL   N35917733   4.945   7.779   7.000  0.2367  0.8133  0.2505
   18MOL   C36017734   4.957   7.765   7.139  1.0989  0.5378  0.5429
   18MOL   C36117735   4.845   7.753   7.221 -0.0087 -0.4530  0.1507
   18MOL   C36217736   4.863   7.732   7.356 -0.6249 -0.7595  0.0614
   18MOL   C36317737   4.989   7.743   7.417 -0.3362 -0.5022 -0.0935
   18MOL   N36417738   5.005   7.730   7.557  0.1355  0.3303 -0.2332
   18MOL   C36517739   5.122   7.721   7.629  0.5523 -0.0801 -0.2626
   18MOL   C36617740   5.147   7.605   7.706  0.7096 -0.4388  0.5681
   18MOL   C36717741   5.258   7.606   7.789  0.4040 -0.4710  0.0857
   18MOL   C36817742   5.344   7.720   7.796 -0.2267 -0.1456  0.1333
   18MOL   N36917743   5.448   7.725   7.892 -0.0420 -0.5981  0.2872
   18MOL   C37017744   5.582   7.744   7.862  0.0053 -0.2394 -0.3476
   18MOL   C37117745   5.653   7.650   7.779  0.2747 -0.2185  0.1212
   18MOL   C37217746   5.794   7.675   7.771  0.0066 -0.2373  0.3026
   18MOL   C37317747   5.850   7.793   7.815 -0.8659 -0.5234  0.7855
   18MOL   N37417748   5.987   7.800   7.794  0.5908  0.3268 -0.1770
   18MOL   C37517749   6.058   7.922   7.798 -0.3312 -0.1903  0.3235
   18MOL   C37617750   6.186   7.934   7.864  0.1497  0.3283  0.1009
   18MOL   C37717751   6.252   0.076   7.877  0.4554  0.3188 -0.7934
   18MOL   C37817752   6.204   0.187   7.811 -0.3072 -0.3070  0.7251
   18MOL   C37917753   6.262   0.324   7.821 -1.1016 -0.4415 -0.6698
   18MOL   C38017754   6.082   0.179   7.743  0.1858 -0.3368 -0.2150
   18MOL   C38117755   6.011   0.054   7.731 -0.3371 -0.1738  0.4301
   18MOL   C38217756   5.778   7.881   7.893  0.2666  0.0763  0.0466
   18MOL   C38317757   5.644   7.853   7.923  0.0020 -0.1638 -0.1671
   18MOL   C38417758   5.320   7.831   7.715  0.5328 -0.5692  0.0503
   18MOL   C38517759   5.203   7.835   7.635 -0.5306 -0.8381  0.4265
   18MOL   C38617760   5.103   7.762   7.328 -0.0259 -0.2440 -0.2111
   18MOL   C38717761   5.087   7.772   7.193  0.1769  0.0427  0.3955
   18MOL   H38817762   5.030   7.764   6.947 -0.4611 -3.2512  0.1405
   18MOL   H38917763   4.741   7.738   7.197 -0.0492  0.3237 -0.1780
   18MOL   H39017764   4.773   7.717   7.415 -0.1419 -0.3131  0.9272
   18MOL   H39117765   4.936   7.670   7.599  0.4778 -1.2169 -1.8132
   18MOL   H39217766   5.083   7.519   7.694 -0.7344  0.4899  1.4450
   18MOL   H39317767   5.275   7.523   7.855  1.3887 -1.2858 -1.1643
   18MOL   H39417768   5.433   7.638   7.941 -0.4599 -1.3131 -1.0905
   18MOL   H39517769   5.597   7.564   7.747  0.4760  0.2689 -1.5967
   18MOL   H39617770   5.851   7.602   7.716  0.1787  1.5545 -1.9780
   18MOL   H39717771   6.043   7.715   7.797 -2.6320 -1.8623  0.0958
   18MOL   H39817772   6.228   7.843   7.905 -2.5471 -1.2765 -0.5642
   18MOL   H39917773   6.338   0.085   7.942 -0.5841 -2.3714  1.0021
   18MOL   H40017774   6.199   0.391   7.879  0.5313  0.5641 -0.0186
   18MOL   H40117775   6.273   0.368   7.722  0.5835 -2.6842 -1.5192
   18MOL   H40217776   6.033   0.270   7.714 -2.3770 -1.0055  1.8601
   18MOL   H40317777   5.926   0.064   7.664 -1.2905 -1.8964  1.3714
   18MOL   H40417778   5.824   7.973   7.926 -1.1887  0.9180 -0.2413
   18MOL   H40517779   5.601   7.913   0.020 -2.4803 -1.1331 -0.7414
   18MOL   H40617780   5.386   7.916   7.727 -1.9166  1.4188 -0.1423
   18MOL   H40717781   5.183   7.914   7.564  0.1120 -1.2773 -0.2594
   18MOL   H40817782   5.207   7.766   7.358 -0.1960  1.1793  0.2120
   18MOL   H40917783   5.168   7.781   7.122 -0.6157  2.0241 -0.3046
   18MOL   N41017784   6.390   0.335   7.890  0.0605 -0.8239  0.3946
   18MOL   C41117785   6.510   0.281   7.844  0.4153 -0.1821 -0.5518
   18MOL   C41217786   6.628   0.312   7.910 -0.2075 -0.1663  0.1574
   18MOL   C41317787   6.757   0.277   7.867  0.5464  0.0163  0.0751
   18MOL   C41417788   6.764   0.204   7.747  0.0608 -0.7816 -0.1884
   18MOL   N41517789   6.889   0.172   7.694 -0.2085 -0.6060  0.4083
   18MOL   C41617790   6.916   0.060   7.618  0.6946  0.3970  0.2250
   18MOL   C41717791   6.842   7.924   7.641  0.2900 -0.1196  0.5864
   18MOL   C41817792   6.879   7.804   7.577  0.1006 -0.6344 -0.2861
   18MOL   C41917793   6.986   7.802   7.487  0.4959  0.4858 -0.4668
   18MOL   N42017794   7.044   7.690   7.426 -0.3899 -0.4240  0.0730
   18MOL   C42117795   7.030   7.559   7.478  0.2964 -0.5953 -0.0862
   18MOL   C42217796   6.910   7.493   7.459 -0.1478  0.1966 -0.2398
   18MOL   C42317797   6.895   7.364   7.514 -0.2114 -0.4931 -0.8971
   18MOL   C42417798   7.004   7.307   7.591  0.1597  0.2504  0.2365
   18MOL   N42517799   6.995   7.181   7.635 -0.0757 -0.0037  0.2295
   18MOL   C42617800   7.101   7.097   7.675 -0.2031  0.6261 -0.4150
   18MOL   C42717801   7.105   7.043   7.803  0.6707  0.0792 -0.4982
   18MOL   C42817802   7.220   6.960   7.840  0.6449 -0.2729  0.3104
   18MOL   C42917803   7.327   6.942   7.745  0.3418  0.1643 -0.2798
   18MOL   C43017804   7.444   6.857   7.777  0.1298 -0.7420 -0.7193
   18MOL   C43117805   7.307   6.992   7.612 -0.6505 -0.2330 -0.7982
   18MOL   C43217806   7.203   7.075   7.583  0.4933 -0.1388  0.2784
   18MOL   C43317807   7.124   7.382   7.606  0.1671 -0.6499  0.1014
   18MOL   C43417808   7.132   7.516   7.568 -0.0183 -0.4136  0.4611
   18MOL   C43517809   7.052   7.920   7.461  0.1793  0.7833  0.5938
   18MOL   C43617810   7.025   0.055   7.531  0.0803  0.0077 -0.0485
   18MOL   C43717811   6.645   0.171   7.676 -0.8226 -0.0088  0.3163
   18MOL   C43817812   6.520   0.196   7.726 -0.4243  0.3326 -0.3305
   18MOL   H43917813   6.384   0.363   0.005 -0.3215 -0.2429  0.2104
   18MOL   H44017814   6.627   0.374   0.016  0.0653  0.3500 -0.2020
   18MOL   H44117815   6.842   0.310   7.925  0.6217 -0.5094  0.2629
   18MOL   H44217816   6.969   0.225   7.724 -0.2277  0.9447 -2.1276
   18MOL   H44317817   6.767   7.917   7.718 -1.6435 -1.5693 -1.3676
   18MOL   H44417818   6.823   7.716   7.601  1.4378 -1.4312 -0.0324
   18MOL   H44517819   7.139   7.702   7.394 -0.8493 -0.4188 -1.3412
   18MOL   H44617820   6.838   7.540   7.394  0.9476  1.4610 -0.5469
   18MOL   H44717821   6.808   7.306   7.488 -1.0086  0.8755 -1.3679
   18MOL   H44817822   6.908   7.156   7.680 -0.1268 -0.5734 -0.1726
   18MOL   H44917823   7.020   7.049   7.869  0.5091  0.2534 -0.7202
   18MOL   H45017824   7.239   6.916   7.937  0.3323 -1.3265 -0.0935
   18MOL   H45117825   7.423   6.759   7.734  0.2938 -1.5262  0.9134
   18MOL   H45217826   7.437   6.833   7.883 -2.8520  0.0463 -0.6951
   18MOL   H45317827   7.377   6.970   7.533  1.3049 -0.7495  1.0011
   18MOL   H45417828   7.200   7.128   7.489  1.3413  0.2250  0.4462
   18MOL   H45517829   7.210   7.345   7.660  0.9295  1.0097  0.0654
   18MOL   H45617830   7.219   7.570   7.603  1.3185 -1.1317 -1.6799
   18MOL   H45717831   7.133   7.916   7.391  0.4892  1.7494  0.8870
   18MOL   H45817832   7.080   0.145   7.507  0.3505  0.4099  2.0110
   18MOL   H45917833   6.642   0.123   7.579  0.2244  0.5266  0.0048
   18MOL   H46017834   6.439   0.155   7.668  0.7110  0.7670 -2.2917
   18MOL   N46117835   7.575   6.910   7.728  0.3533 -0.5732 -0.8438
   18MOL   C46217836   7.678   6.815   7.696  0.4311  0.3971 -0.1914
   18MOL   C46317837   7.767   6.830   7.587  0.3815  0.1689  0.4082
   18MOL   C46417838   7.843   6.722   7.542 -0.0551  0.1253 -0.9745
   18MOL   C46517839   7.839   6.600   7.616 -0.4717 -0.0240 -0.0155
   18MOL   N46617840   7.886   6.474   7.568 -1.2007  0.6473  0.4037
   18MOL   C46717841   0.014   6.444   7.487  0.9291 -0.7258  0.1498
   18MOL   C46817842   0.122   6.531   7.487  0.1697  0.0321  0.0921
   18MOL   C46917843   0.235   6.512   7.398 -0.0311 -0.2618 -0.6947
   18MOL   C47017844   0.236   6.392   7.330 -0.2741  0.9703 -0.2189
   18MOL   N47117845   0.352   6.375   7.259 -0.0071 -0.8446  0.7441
   18MOL   C47217846   0.462   6.303   7.320  0.3408  0.0443 -0.2746
   18MOL   C47317847   0.451   6.265   7.455  0.3696  0.4295 -0.4916
   18MOL   C47417848   0.550   6.184   7.518  0.6618  0.4737  0.5511
   18MOL   C47517849   0.667   6.153   7.443 -0.0773 -0.1681  0.8769
   18MOL   N47617850   0.771   6.083   7.505 -0.8206  0.0867  0.3270
   18MOL   C47717851   0.769   5.968   7.583 -0.8217  0.3026 -0.3798
   18MOL   C47817852   0.893   5.923   7.638  0.3982 -0.7024  0.5082
   18MOL   C47917853   0.893   5.816   7.730  0.2641  0.1948 -0.3707
   18MOL   C48017854   0.778   5.743   7.755  0.8700  0.0880 -0.0420
   18MOL   C48117855   0.786   5.619   7.840 -0.4980 -0.3403  0.0709
   18MOL   C48217856   0.654   5.790   7.699 -0.2298  0.3704  0.1437
   18MOL   C48317857   0.650   5.898   7.605 -0.0501 -0.3861  0.4330
   18MOL   C48417858   0.681   6.201   7.309  0.0658 -0.2690  0.1393
   18MOL   C48517859   0.572   6.269   7.246 -0.1462  0.2386 -0.3280
   18MOL   C48617860   0.137   6.295   7.337 -0.1433  0.4895  0.4653
   18MOL   C48717861   0.024   6.323   7.414  0.1386  0.1084 -0.0424
   18MOL   C48817862   7.778   6.604   7.745  0.0119  0.4843  0.0125
   18MOL   C48917863   7.688   6.702   7.781 -0.5563 -0.3472  0.4199
   18MOL   H49017864   7.578   6.983   7.658 -0.7877  1.2268  0.9379
   18MOL   H49117865   7.761   6.917   7.522 -0.7944 -1.8912 -2.3427
   18MOL   H49217866   7.899   6.733   7.451  0.8678 -4.1936 -1.0714
   18MOL   H49317867   7.863   6.391   7.621 -0.5297 -1.7196 -2.8533
   18MOL   H49417868   0.130   6.619   7.550 -0.2553 -0.2972  0.6134
   18MOL   H49517869   0.316   6.583   7.395 -0.1863 -0.0710 -0.4745
   18MOL   H49617870   0.329   6.337   7.168 -0.6877  0.7854  0.2101
   18MOL   H49717871   0.361   6.290   7.509  0.1590 -0.9767 -0.1938
   18MOL   H49817872   0.532   6.159   7.622 -4.1025 -1.1791 -0.5431
   18MOL   H49917873   0.867   6.111   7.489 -0.6063 -1.6385 -1.5732
   18MOL   H50017874   0.985   5.972   7.610  0.6801 -0.8835  1.1067
   18MOL   H50117875   0.987   5.793   7.777  1.4862 -0.4318 -3.0464
   18MOL   H50217876   0.889   5.589   7.859 -0.0673  2.6910  2.9739
   18MOL   H50317877   0.725   5.543   7.792 -0.1222 -1.4366  1.3089
   18MOL   H50417878   0.559   5.745   7.722  0.6106 -1.3840  0.3173
   18MOL   H50517879   0.559   5.933   7.558  0.7134  0.8525 -0.1504
   18MOL   H50617880   0.772   6.198   7.250  1.2557  1.8631  1.7729
   18MOL   H50717881   0.580   6.302   7.143 -0.8891 -0.6912 -0.6940
   18MOL   H50817882   0.143   6.196   7.293 -1.7292  0.0080  1.2781
   18MOL   H50917883   7.925   6.253   7.427 -3.1142  3.8055  0.4027
   18MOL   H51017884   7.770   6.512   7.799  0.8569  0.0158 -0.6459
   18MOL   H51117885   7.630   6.703   7.872  0.2846  1.8556  0.9706
   18MOL   N51217886   0.739   5.645   7.977  0.5473 -0.4197 -0.3768
   18MOL   C51317887   0.605   5.645   0.032 -0.2454  0.0432  0.1529
   18MOL   C51417888   0.507   5.581   7.933 -0.3161 -0.2780  0.3282
   18MOL   C51517889   0.372   5.580   7.981  0.3257  0.0672 -0.2360
   18MOL   C51617890   0.336   5.639   0.119 -0.0691 -0.3338 -0.4578
   18MOL   N51717891   0.204   5.621   0.166  0.0711  0.0178 -0.0650
   18MOL   C51817892   0.137   5.683   0.267  0.0079  0.1848  0.0722
   18MOL   C51917893   0.032   5.615   0.323  0.3398 -0.1921  0.2975
   18MOL   C52017894   7.929   5.678   0.416 -0.0688 -0.1793  0.4417
   18MOL   C52117895   7.956   5.809   0.456 -0.2426 -0.1928  0.1035
   18MOL   N52217896   7.874   5.861   0.557  0.0757 -0.2097  0.4194
   18MOL   C52317897   7.916   5.917   0.676 -0.8752 -0.1764  0.7252
   18MOL   C52417898   0.069   5.934   0.711  0.0636 -1.2674 -0.5342
   18MOL   C52517899   0.108   5.977   0.836  0.1515  0.0448  0.2500
   18MOL   C52617900   0.011   6.032   0.928 -0.2755 -0.0060 -0.1736
   18MOL   N52717901   0.037   6.067   1.060 -0.4497 -0.4435 -0.2033
   18MOL   C52817902   0.141   6.140   1.110 -0.1637  0.7924  0.5206
   18MOL   C52917903   0.219   6.227   1.027 -0.1385 -0.6947  0.5602
   18MOL   C53017904   0.322   6.304   1.083  0.0929 -0.1697  0.6034
   18MOL   C53117905   0.350   6.286   1.221  0.0077 -0.5807  0.0073
   18MOL   C53217906   0.458   6.378   1.278 -0.1181  0.5968  0.2893
   18MOL   C53317907   0.277   6.195   1.302  0.6331  0.3368  0.2783
   18MOL   C53417908   0.171   6.118   1.248  0.0874  0.2554  0.5673
   18MOL   C53517909   7.855   6.015   0.895 -0.2384  0.1230  0.2302
   18MOL   C53617910   7.816   5.950   0.772 -0.4161  0.4570 -0.3860
   18MOL   C53717911   0.077   5.879   0.396  0.0071 -0.2623 -0.0293
   18MOL   C53817912   0.155   5.817   0.296  0.6840 -0.3965  0.1100
   18MOL   C53917913   0.432   5.695   0.207 -0.6823  0.1795  0.3866
   18MOL   C54017914   0.565   5.695   0.159 -0.1848 -0.0074  0.5492
   18MOL   H54117915   0.810   5.688   0.052 -0.8741  0.4792  0.7430
   18MOL   H54217916   0.534   5.543   7.836  2.9444  2.2455  0.1730
   18MOL   H54317917   0.300   5.532   7.917  0.8194 -2.1829  0.8522
   18MOL   H54417918   0.147   5.547   0.128 -2.4948  1.5766  0.6508
   18MOL   H54517919   0.006   5.517   0.286  0.7425 -0.8179  1.6284
   18MOL   H54617920   7.845   5.618   0.448  1.6410 -2.3838  0.8632
   18MOL   H54717921   7.779   5.829   0.563  0.4124 -1.1576  0.7983
   18MOL   H54817922   0.142   5.887   0.646  0.0925 -0.0199 -1.4259
   18MOL   H54917923   0.215   5.984   0.847  0.2508 -2.0606  0.7236
   18MOL   H55017924   7.938   6.048   1.116 -1.6139 -2.2209 -2.3778
   18MOL   H55117925   0.194   6.253   0.925  0.1263 -0.2648  0.6016
   18MOL   H55217926   0.376   6.377   1.025 -0.2672  1.4986  2.3076
   18MOL   H55317927   0.442   6.387   1.385 -0.7888  1.7463  0.1063
   18MOL   H55417928   0.441   6.481   1.245 -0.4649 -0.1136 -1.8829
   18MOL   H55517929   0.293   6.182   1.408 -2.0565  0.8134  0.7720
   18MOL   H55617930   0.107   6.058   1.311 -0.2751  0.4040  0.3472
   18MOL   H55717931   7.778   6.043   0.965 -0.9018 -0.3195 -0.3120
   18MOL   H55817932   7.713   5.921   0.761  0.0823 -2.7201  2.7561
   18MOL   H55917933   0.090   5.984   0.421  1.3105 -0.8163  1.6812
   18MOL   H56017934   0.239   5.862   0.246  0.2254 -0.1760 -0.4676
   18MOL   H56117935   0.412   5.743   0.301  3.1251  1.4018  0.6552
   18MOL   H56217936   0.630   5.756   0.220 -0.4646  1.3565 -0.4898
   18MOL   N56317937   0.594   6.348   1.245  0.2281  0.5016  0.4496
   18MOL   C56417938   0.693   6.393   1.331  0.3031 -0.1881  0.0416
   18MOL   C56517939   0.826   6.358   1.301 -0.3599 -0.0536  0.7684
   18MOL   C56617940   0.936   6.412   1.371  0.1015  0.7239  0.3023
   18MOL   C56717941   0.918   6.490   1.483 -0.4154 -1.1213  0.2172
   18MOL   N56817942   1.027   6.538   1.545  0.0649 -0.1079  0.4066
   18MOL   C56917943   1.036   6.589   1.678 -0.4829 -0.4189  0.0539
   18MOL   C57017944   1.134   6.684   1.707  0.0325  0.3038 -0.0135
   18MOL   C57117945   1.143   6.737   1.836 -0.5561 -0.9672 -0.0961
   18MOL   C57217946   1.055   6.700   1.938 -0.1073  0.1695 -0.1268
   18MOL   N57317947   1.076   6.750   2.066  0.1748  0.2765 -0.3652
   18MOL   C57417948   1.087   6.881   2.100  0.0615 -0.2460 -0.2074
   18MOL   C57517949   1.034   6.987   2.022 -0.2824  0.2655 -0.5331
   18MOL   C57617950   1.028   7.117   2.060  0.1614  0.1038  0.0107
   18MOL   C57717951   1.082   7.153   2.185  0.2934 -0.2804  0.3772
   18MOL   N57817952   1.075   7.287   2.212  0.6127  0.0159  0.2787
   18MOL   C57917953   1.168   7.368   2.282 -0.0571  0.0861  0.2220
   18MOL   C58017954   1.131   7.501   2.323 -0.1516  0.1629  0.1267
   18MOL   C58117955   1.228   7.583   2.393  0.2991  0.0380 -0.1020
   18MOL   C58217956   1.359   7.527   2.420  0.4203 -0.4995  0.4023
   18MOL   C58317957   1.463   7.612   2.501 -0.7537 -0.1474  0.8333
   18MOL   C58417958   1.397   7.395   2.382 -0.3741 -0.2909 -0.0358
   18MOL   C58517959   1.301   7.317   2.312 -0.3418 -0.3162 -0.3258
   18MOL   C58617960   1.137   7.051   2.267  0.5432  1.1478 -0.0793
   18MOL   C58717961   1.126   6.911   2.234  0.5783 -0.1051  1.3110
   18MOL   C58817962   0.952   6.614   1.904  0.5533 -0.1675 -0.3208
   18MOL   C58917963   0.937   6.559   1.777  0.0404  0.4327 -0.0270
   18MOL   C59017964   0.784   6.523   1.515 -0.3311  0.2983 -0.5766
   18MOL   C59117965   0.678   6.475   1.441  0.5509 -0.1022  0.1291
   18MOL   H59217966   0.615   6.280   1.174 -0.3177  0.0604  0.7031
   18MOL   H59317967   0.852   6.304   1.211  1.1086  1.2832  0.3827
   18MOL   H59417968   1.037   6.394   1.336 -0.1614 -0.5183  0.1760
   18MOL   H59517969   1.111   6.517   1.493  0.0657 -1.5271  0.9539
   18MOL   H59617970   1.200   6.728   1.634  0.2151 -1.4447 -0.9525
   18MOL   H59717971   1.223   6.804   1.863 -1.9803  1.3347 -1.4971
   18MOL   H59817972   1.065   6.688   2.145  0.1335  0.6236 -0.0982
   18MOL   H59917973   0.986   6.967   1.927  0.9555  0.6622 -1.2512
   18MOL   H60017974   0.982   7.190   1.994 -1.8838 -0.4879  0.7657
   18MOL   H60117975   0.996   7.331   2.167  1.0868 -0.9255 -1.5099
   18MOL   H60217976   1.036   7.544   2.294  0.7158  1.6285 -0.6164
   18MOL   H60317977   1.207   7.685   2.423 -0.2424 -0.8134  2.5210
   18MOL   H60417978   1.464   7.715   2.465  0.6837 -0.0945  0.9638
   18MOL   H60517979   1.561   7.571   2.477 -1.4434 -1.1757 -0.2329
   18MOL   H60617980   1.494   7.357   2.411 -0.2556 -0.4248 -0.6085
   18MOL   H60717981   1.330   7.221   2.274  0.8986 -0.4711  0.9746
   18MOL   H60817982   1.185   7.083   2.359  0.2843 -1.8183  1.1368
   18MOL   H60917983   1.167   6.831   2.294 -0.2083  2.5077  5.5207
   18MOL   H61017984   0.894   6.581   1.989  1.9864  0.1391  0.7861
   18MOL   H61117985   0.865   6.480   1.765  0.5261 -0.2086  1.2597
   18MOL   H61217986   0.763   6.593   1.594  2.5549 -0.7184  1.2053
   18MOL   H61317987   0.585   6.507   1.484  0.5207  0.6428 -0.4825
   18MOL   N61417988   1.430   7.620   2.643  0.5154  0.6815 -0.2536
   18MOL   C61517989   1.482   7.719   2.726 -0.1746  0.7752  0.7521
   18MOL   C61617990   1.432   7.738   2.855 -0.4687 -0.5805  0.0657
   18MOL   C61717991   1.476   7.849   2.934  0.7403  0.2924  0.5025
   18MOL   C61817992   1.579   7.931   2.891 -0.6991 -0.1152  0.4609
   18MOL   N61917993   1.623   0.052   2.971 -0.1290  0.2537 -0.0795
   18MOL   C62017994   1.757   0.082   2.993  0.8291 -0.0195 -0.0372
   18MOL   C62117995   1.841   7.954   3.001  0.3706  0.2779  0.0552
   18MOL   C62217996   1.970   7.979   3.034  0.5954 -0.1477  0.3072
   18MOL   C62317997   2.023   0.126   3.055 -0.2453 -0.2349  0.3181
   18MOL   N62417998   2.157   0.145   3.093 -0.4964  0.3297 -0.1796
   18MOL   C62517999   2.224   0.262   3.112  0.0043  0.3372  0.6117
   18MOL   C62618000   2.295   0.278   3.230 -0.4139 -0.4582 -0.3262
   18MOL   C62718001   2.369   0.395   3.258 -0.5404 -0.2223  0.2260
   18MOL   C62818002   2.380   0.490   3.161  0.5358 -0.9620  0.3793
   18MOL   N62918003   2.450   0.608   3.194  0.5090  0.2078 -0.1465
   18MOL   C63018004   2.412   0.742   3.178 -0.7606  0.3989 -1.0270
   18MOL   C63118005   2.504   0.843   3.219  0.1859 -0.4502 -0.8460
   18MOL   C63218006   2.468   0.973   3.212  0.0504 -0.4024  0.1031
   18MOL   C63318007   2.338   1.005   3.172  0.1730 -0.1456 -0.0004
   18MOL   C63418008   2.287   1.152   3.195 -0.7620  0.3645 -0.6325
   18MOL   C63518009   2.249   0.909   3.121 -0.2932 -0.3077  0.6656
   18MOL   C63618010   2.283   0.775   3.128  0.3340  0.5402  0.4030
   18MOL   C63718011   2.325   0.473   3.034  0.2407  0.5362  0.3219
   18MOL   C63818012   2.242   0.360   3.009 -0.4120 -0.1065 -0.3012
   18MOL   C63918013   1.937   0.234   3.059 -0.5856 -0.8686  0.1032
   18MOL   C64018014   1.798   0.214   3.030  0.6223 -0.0764 -0.0979
   18MOL   C64118015   1.630   7.912   2.757 -0.1408 -0.4791  0.0095
   18MOL   C64218016   1.575   7.811   2.676 -0.2442  0.3727 -0.4736
   18MOL   H64318017   1.362   7.548   2.665  1.3814  0.2169  0.9825
   18MOL   H64418018   1.359   7.670   2.897  0.6235 -2.3108 -0.7793
   18MOL   H64518019   1.432   7.854   3.033  1.1251 -0.7048  0.7406
   18MOL   H64618020   1.556   0.125   2.988  1.2796  1.3969  0.6997
   18MOL   H64718021   1.811   7.853   2.980 -0.0369  0.8535 -2.2308
   18MOL   H64818022   2.046   7.902   3.030  0.6818 -0.0141 -0.6727
   18MOL   H64918023   2.195   0.064   3.140  0.9474  1.7125  1.0696
   18MOL   H65018024   2.302   0.192   3.296 -2.0064 -0.0675  0.3755
   18MOL   H65118025   2.422   0.403   3.351 -0.5696 -1.6217  0.3773
   18MOL   H65218026   2.524   0.592   3.261  0.4565 -2.1060 -0.5708
   18MOL   H65318027   2.603   0.826   3.257 -0.7000  0.7711  2.2168
   18MOL   H65418028   2.527   1.050   3.261  0.4637 -0.9732  0.5116
   18MOL   H65518029   2.361   1.231   3.176 -2.4936  1.7680 -1.6346
   18MOL   H65618030   2.277   1.166   3.303 -2.8568  0.2934 -0.8035
   18MOL   H65718031   2.151   0.938   3.086  0.2072  2.5539  1.5291
   18MOL   H65818032   2.200   0.708   3.111  0.5084  0.4685 -0.1898
   18MOL   H65918033   2.346   0.559   2.973 -1.1996 -0.4232 -1.5741
   18MOL   H66018034   2.200   0.350   2.910 -0.6507 -1.0954 -0.1048
   18MOL   H66118035   1.963   0.334   3.092  4.4761 -2.1270  0.4136
   18MOL   H66218036   1.729   0.297   3.041 -1.6904 -1.6966 -2.0252
   18MOL   H66318037   1.703   7.975   2.709  1.4191 -3.4355 -1.6392
   18MOL   H66418038   1.618   7.797   2.578  2.7678  0.1345  0.8425
   18MOL   N66518039   2.168   1.197   3.126 -0.0419  0.3417 -0.3304
   18MOL   C66618040   2.173   1.200   2.985  0.3061  0.0535 -1.1046
   18MOL   C66718041   2.287   1.235   2.914 -0.0252 -0.3593 -0.5497
   18MOL   C66818042   2.287   1.232   2.772 -0.0922  0.4174  0.5730
   18MOL   C66918043   2.173   1.186   2.709 -0.0547  0.1892  0.0271
   18MOL   N67018044   2.167   1.192   2.571 -0.5081  0.2342 -0.4803
   18MOL   C67118045   2.104   1.105   2.483 -0.3268 -0.1685  0.0292
   18MOL   C67218046   2.067   1.157   2.352  0.5388 -0.0898 -0.9001
   18MOL   C67318047   2.015   1.073   2.259 -0.0062  0.0991  0.1979
   18MOL   C67418048   1.997   0.937   2.282  0.7394 -0.4492 -0.3469
   18MOL   N67518049   1.953   0.853   2.184  0.5665 -0.4820  0.2189
   18MOL   C67618050   1.942   0.712   2.193 -0.9820 -0.1492  0.7081
   18MOL   C67718051   2.035   0.639   2.125 -0.1614 -0.3545  0.0494
   18MOL   C67818052   2.021   0.499   2.107  0.1201  0.4806 -0.6403
   18MOL   C67918053   1.910   0.430   2.160  0.0685 -0.8904  0.4201
   18MOL   N68018054   1.898   0.290   2.142 -0.5348 -0.0008 -0.1831
   18MOL   C68118055   1.790   0.205   2.173 -0.7441 -0.8304  0.5704
   18MOL   C68218056   1.709   0.205   2.293 -0.0426 -0.1776  0.2900
   18MOL   C68318057   1.603   0.124   2.307  0.2583  0.4942 -0.0841
   18MOL   C68418058   1.554   0.050   2.197 -1.0597  0.2538  0.6530
   18MOL   C68518059   1.424   7.956   2.202  0.1490 -0.2357  0.5972
   18MOL   C68618060   1.640   0.042   2.083  0.4367  0.4025  0.1987
   18MOL   C68718061   1.755   0.117   2.071  0.1780  0.4739 -0.3307
   18MOL   C68818062   1.812   0.501   2.227  0.2203  0.2249  0.4309
   18MOL   C68918063   1.831   0.641   2.248 -0.1157  0.4348 -0.4061
   18MOL   C69018064   2.037   0.884   2.409  0.1239  0.1472  0.3954
   18MOL   C69118065   2.080   0.969   2.505  0.3872  1.0264 -0.0431
   18MOL   C69218066   2.058   1.156   2.779 -0.5303 -0.2137  0.0724
   18MOL   C69318067   2.062   1.158   2.914 -0.2313 -0.1713 -0.2822
   18MOL   H69418068   2.083   1.187   3.179  1.0163 -0.2589  1.3190
   18MOL   H69518069   2.372   1.266   2.973 -0.5717 -1.1322  0.6618
   18MOL   H69618070   2.370   1.263   2.710 -1.3172  2.4775 -0.0801
   18MOL   H69718071   2.213   1.274   2.534  1.9015  0.2598  2.4163
   18MOL   H69818072   2.064   1.263   2.330 -0.3656  0.0652 -0.0604
   18MOL   H69918073   1.981   1.118   2.168 -0.0876 -3.1675 -1.4864
   18MOL   H70018074   1.942   0.895   2.093 -4.1684  0.1701  0.9969
   18MOL   H70118075   2.120   0.695   2.088 -1.4066  0.8538 -1.0252
   18MOL   H70218076   2.095   0.444   2.051  2.4368  1.9747  0.8445
   18MOL   H70318077   1.962   0.247   2.077 -1.4783 -1.0191 -0.4553
   18MOL   H70418078   1.740   0.260   2.381  1.0915 -0.4867  0.0915
   18MOL   H70518079   1.539   0.135   2.393  0.4944  0.3696  0.1044
   18MOL   H70618080   1.418   7.901   2.296  1.0475 -0.6860  0.3988
   18MOL   H70718081   1.425   7.885   2.120  0.6010  0.2502  0.1768
   18MOL   H70818082   1.609   7.964   1.999 -1.9844  1.3414  0.3682
   18MOL   H70918083   1.816   0.107   1.982  0.0719  2.3277 -0.6295
   18MOL   H71018084   1.732   0.448   2.275  0.4709 -0.8931 -0.3660
   18MOL   H71118085   1.761   0.705   2.300 -0.2568  0.1049 -0.1873
   18MOL   H71218086   2.033   0.777   2.427 -2.7811  0.0573 -0.5316
   18MOL   H71318087   2.106   0.925   2.600 -2.7736 -1.0042 -0.0494
   18MOL   H71418088   1.965   1.128   2.733 -1.5344  1.0585  1.2573
   18MOL   H71518089   1.972   1.130   2.969 -1.1107  0.1676 -1.5385
   18MOL   N71618090   1.331   0.077   2.169  0.0304  0.2109  0.3417
   18MOL   C71718091   1.193   0.064   2.186 -0.0904  0.6499 -0.3060
   18MOL   C71818092   1.117   0.152   2.108 -0.6692  0.0096  0.5077
   18MOL   C71918093   0.978   0.170   2.131  0.5571  0.1098  0.0013
   18MOL   C72018094   0.912   0.075   2.212  0.7383 -0.7532  0.2532
   18MOL   N72118095   0.773   0.093   2.217 -0.0303 -1.0915  0.1431
   18MOL   C72218096   0.685   0.069   2.322 -0.1501  0.1620 -0.2415
   18MOL   C72318097   0.731   0.051   2.451  0.1594 -1.2135 -0.6119
   18MOL   C72418098   0.642   0.030   2.555  0.9914 -0.2917 -0.1778
   18MOL   C72518099   0.503   0.023   2.527  0.2910  0.3096  0.0462
   18MOL   N72618100   0.414   7.978   2.637  0.5004  0.2718 -0.2693
   18MOL   C72718101   0.418   0.065   2.760 -0.1227  0.6329 -0.3969
   18MOL   C72818102   0.447   0.204   2.762  0.1006 -1.1271 -0.0551
   18MOL   C72918103   0.449   0.279   2.880 -0.1796 -0.1128  0.2972
   18MOL   C73018104   0.424   0.213   3.003 -0.1615 -0.0297 -0.5914
   18MOL   N73118105   0.432   0.290   3.118  0.7675 -0.0668  0.1152
   18MOL   C73218106   0.339   0.295   3.225 -0.9723 -0.3794  0.4841
   18MOL   C73318107   0.214   0.234   3.216  0.5164 -0.8437 -0.1497
   18MOL   C73418108   0.124   0.242   3.322 -0.4692  0.5984 -0.1162
   18MOL   C73518109   0.154   0.316   3.436 -0.3353 -0.1130  0.3245
   18MOL   C73618110   0.049   0.318   3.551 -0.0848  0.3599 -0.7759
   18MOL   C73718111   0.279   0.382   3.452 -0.8649  0.1875 -0.7866
   18MOL   C73818112   0.374   0.365   3.346  0.0476 -0.7553  0.1203
   18MOL   C73918113   0.393   0.078   3.003  0.0222  0.7726 -0.3522
   18MOL   C74018114   0.392   0.001   2.882  0.4078  0.0590  0.0969
   18MOL   C74118115   0.453   0.053   2.400 -0.3007 -0.0018 -0.3923
   18MOL   C74218116   0.551   0.076   2.299 -0.0573 -0.1684  0.0712
   18MOL   C74318117   0.986   7.964   2.281 -0.1827  0.7387  0.2482
   18MOL   C74418118   1.127   7.955   2.272  0.7656  0.2022  0.0725
   18MOL   H74518119   1.375   0.168   2.163 -0.0241  0.1039 -2.2411
   18MOL   H74618120   1.167   0.202   2.026  0.5836 -0.9065  0.6937
   18MOL   H74718121   0.917   0.228   2.064  2.0001  0.5326 -0.9792
   18MOL   H74818122   0.731   0.137   2.137  1.7678 -2.0094 -1.3215
   18MOL   H74918123   0.837   0.051   2.469  0.0670 -0.2127 -0.0231
   18MOL   H75018124   0.683   0.013   2.654 -1.1394 -3.3056  0.2665
   18MOL   H75118125   0.363   7.892   2.653  1.4746 -0.2714 -0.0862
   18MOL   H75218126   0.473   0.246   2.666  0.7118  1.3518  1.1729
   18MOL   H75318127   0.460   0.386   2.877 -0.8356 -0.0209  0.9951
   18MOL   H75418128   0.510   0.354   3.116  0.3723  0.4179 -0.0666
   18MOL   H75518129   0.182   0.183   3.127  1.6156 -1.5802 -0.1349
   18MOL   H75618130   0.023   0.206   3.307 -0.9050  1.6798  0.1710
   18MOL   H75718131   0.063   0.398   3.623 -0.4596 -0.0172 -0.2829
   18MOL   H75818132   0.068   0.228   3.610  0.9623  1.1655  0.1356
   18MOL   H75918133   0.307   0.453   3.529 -1.0711  0.5622 -1.0568
   18MOL   H76018134   0.475   0.403   3.344 -0.2947  0.1649 -0.7657
   18MOL   H76118135   0.376   0.035   3.101 -0.6681 -0.3858 -0.9735
   18MOL   H76218136   0.371   7.878   2.869 -1.4697  0.3584  0.6091
   18MOL   H76318137   0.347   0.046   2.384 -0.4945 -3.3835  1.8090
   18MOL   H76418138   0.523   0.098   2.197  0.0444 -1.8483 -0.3319
   18MOL   H76518139   0.939   7.886   2.340 -0.2863  0.1000 -0.6495
   18MOL   H76618140   1.180   7.874   2.321  1.5238 -0.2485 -1.4801
   18MOL   N76718141   7.893   0.316   3.508  0.2379 -0.0686 -0.5573
   18MOL   C76818142   7.852   0.404   3.406 -0.6977 -0.4209 -0.1776
   18MOL   C76918143   7.920   0.524   3.380 -0.0974 -0.1173  0.6434
   18MOL   C77018144   7.872   0.616   3.285  0.0237  0.3805  0.2099
   18MOL   C77118145   7.760   0.596   3.214 -0.4825 -0.0833  0.5603
   18MOL   N77218146   7.697   0.695   3.141  0.3091 -0.3910  0.5164
   18MOL   C77318147   7.745   0.824   3.102 -0.4863 -0.1623 -0.5614
   18MOL   C77418148   7.817   0.910   3.192 -0.3320  0.0078  0.4868
   18MOL   C77518149   7.869   1.035   3.151 -0.1548  0.1036 -0.1512
   18MOL   C77618150   7.831   1.085   3.022 -0.6992  0.4052 -0.0940
   18MOL   N77718151   7.860   1.214   2.976  0.0172  0.1468  0.0926
   18MOL   C77818152   7.980   1.289   2.973 -0.0596 -0.0479 -0.1965
   18MOL   C77918153   7.979   1.426   2.935 -0.2092  0.2339 -0.2177
   18MOL   C78018154   0.116   1.504   2.942  0.7385 -0.0407 -0.9080
   18MOL   C78118155   0.238   1.448   2.977 -1.0444  0.5331 -0.1669
   18MOL   N78218156   0.354   1.521   3.008  0.4177 -0.2549 -0.2995
   18MOL   C78318157   0.380   1.658   2.995  0.3436 -0.4082  0.3536
   18MOL   C78418158   0.352   1.727   2.875  0.1707 -0.4800 -0.3321
   18MOL   C78518159   0.366   1.870   2.861  0.0680  0.1882  0.3071
   18MOL   C78618160   0.428   1.943   2.964 -0.3293  0.2104 -0.4946
   18MOL   C78718161   0.455   2.088   2.950  0.3520 -0.9653  0.1034
   18MOL   C78818162   0.470   1.875   3.082  0.2064 -0.0361 -0.3372
   18MOL   C78918163   0.440   1.737   3.100 -0.1605  0.2140  0.7796
   18MOL   C79018164   0.239   1.310   2.999  0.1940 -0.5559 -0.1564
   18MOL   C79118165   0.122   1.231   2.992  0.4215  0.3759  0.3818
   18MOL   C79218166   7.766   1.001   2.932 -0.6341 -0.6348 -0.0652
   18MOL   C79318167   7.718   0.875   2.973  0.1932  0.2986 -0.2680
   18MOL   C79418168   7.695   0.474   3.226  0.1122 -0.3832  0.1706
   18MOL   C79518169   7.737   0.381   3.327 -0.3980  0.2446  0.4407
   18MOL   H79618170   7.827   0.271   3.570 -0.8180  2.2213  0.0289
   18MOL   H79718171   0.028   0.546   3.435 -0.7879 -0.3167  1.8636
   18MOL   H79818172   7.931   0.706   3.277 -0.7512  0.7045 -2.5309
   18MOL   H79918173   7.621   0.662   3.084 -2.5114 -0.0004  3.8918
   18MOL   H80018174   7.828   0.875   3.294  1.1443 -0.0338  0.3157
   18MOL   H80118175   7.917   1.092   3.229  1.0328  0.2674 -0.9979
   18MOL   H80218176   7.783   1.266   2.936  0.9956 -0.0489 -2.1196
   18MOL   H80318177   7.889   1.473   2.900  0.2673  1.0066 -0.4169
   18MOL   H80418178   0.092   1.607   2.921 -1.4117 -0.4651 -0.6763
   18MOL   H80518179   0.420   1.478   3.071 -0.3686 -1.3407 -0.1988
   18MOL   H80618180   0.316   1.674   2.788  2.7366 -2.3430 -0.2950
   18MOL   H80718181   0.330   1.915   2.770  0.2901 -0.6787 -0.2077
   18MOL   H80818182   0.424   2.130   2.853  0.5135 -0.2985  0.3378
   18MOL   H80918183   0.563   2.102   2.939 -0.1824  2.0996 -2.3743
   18MOL   H81018184   0.504   1.926   3.171 -1.1239  0.1782  0.0572
   18MOL   H81118185   0.457   1.692   3.197 -0.5100 -0.1938  0.6511
   18MOL   H81218186   0.331   1.259   3.026  0.4816  0.0009 -0.0665
   18MOL   H81318187   0.125   1.127   3.019 -1.1108 -0.5048 -2.6773
   18MOL   H81418188   7.736   1.030   2.833 -0.2802 -1.2249 -0.3481
   18MOL   H81518189   7.658   0.820   2.903 -0.1441  0.6160 -0.2318
   18MOL   H81618190   7.603   0.458   3.170  0.8693  1.8120 -1.7656
   18MOL   H81718191   7.675   0.295   3.349  1.1776 -0.1375  3.6006
   18MOL   N81818192   0.390   2.164   3.055 -0.2103  0.0740  0.1646
   18MOL   C81918193   0.469   2.246   3.131 -0.0258  0.1257 -0.1453
   18MOL   C82018194   0.586   2.306   3.090 -0.3625  0.3095 -0.4123
   18MOL   C82118195   0.665   2.388   3.176 -0.0600  0.2468  0.1527
   18MOL   C82218196   0.628   2.409   3.307  0.1400 -0.3219 -0.3556
   18MOL   N82318197   0.692   2.480   3.409  0.6153 -0.2212 -0.4577
   18MOL   C82418198   0.804   2.563   3.395 -0.1727 -0.8468 -0.0618
   18MOL   C82518199   0.793   2.661   3.295  0.8596 -0.0741 -0.2597
   18MOL   C82618200   0.877   2.774   3.301  0.5693 -0.1005  0.5484
   18MOL   C82718201   0.990   2.778   3.395  0.2723  0.3758  0.4480
   18MOL   N82818202   1.077   2.887   3.404  0.8527 -0.3603  0.1024
   18MOL   C82918203   1.042   3.022   3.391 -0.2646  0.1377  0.5095
   18MOL   C83018204   1.003   3.066   3.265 -0.1474  0.0921 -0.2980
   18MOL   C83118205   0.946   3.192   3.251  0.0056 -0.4007 -0.0507
   18MOL   C83218206   0.919   3.273   3.368  0.0138  0.4352 -0.4175
   18MOL   N83318207   0.837   3.386   3.365  0.2126  0.2380 -0.4667
   18MOL   C83418208   0.717   3.406   3.295  0.3845  0.2895 -0.3358
   18MOL   C83518209   0.686   3.539   3.269  0.5315  0.3651  0.4919
   18MOL   C83618210   0.571   3.572   3.196 -0.0401  0.7894  1.2489
   18MOL   C83718211   0.481   3.468   3.156  0.1795  0.4303 -0.9074
   18MOL   C83818212   0.357   3.500   3.087  0.3163 -0.3036  0.5595
   18MOL   C83918213   0.503   3.336   3.200  0.1741  0.0274 -0.4399
   18MOL   C84018214   0.625   3.302   3.259 -0.6419 -0.3471 -0.4823
   18MOL   C84118215   0.967   3.228   3.492 -0.6129  0.9205  0.4867
   18MOL   C84218216   1.036   3.104   3.502  0.0410 -0.0123 -0.0847
   18MOL   C84318217   1.004   2.675   3.493  0.8778  0.0892 -0.7000
   18MOL   C84418218   0.906   2.567   3.499  0.4411  0.5361  0.3837
   18MOL   C84518219   0.510   2.339   3.347  0.6056 -0.6265 -0.0895
   18MOL   C84618220   0.428   2.273   3.263 -0.0969 -0.6412 -0.2790
   18MOL   H84718221   0.302   2.138   3.097  0.2195 -0.8064  0.5341
   18MOL   H84818222   0.622   2.291   2.989  0.6536 -4.6151  0.5364
   18MOL   H84918223   0.755   2.432   3.136 -0.0083 -1.8296 -2.1290
   18MOL   H85018224   0.672   2.467   3.507  1.6088 -3.4004 -0.6183
   18MOL   H85118225   0.714   2.657   3.222  0.2585  0.3447  0.3582
   18MOL   H85218226   0.847   2.855   3.236 -0.0190 -2.0511 -1.6876
   18MOL   H85318227   1.141   2.881   3.481  0.4552 -1.1290  0.3831
   18MOL   H85418228   1.007   3.006   3.176  1.3102  0.2405 -0.3465
   18MOL   H85518229   0.935   3.247   3.159  2.7151 -2.7558 -1.8462
   18MOL   H85618230   0.850   3.429   3.455 -1.7291 -2.6391  1.2734
   18MOL   H85718231   0.736   3.624   3.312 -1.6021  0.8330  2.1565
   18MOL   H85818232   0.558   3.679   3.182  1.8144  0.5257 -3.0810
   18MOL   H85918233   0.307   3.565   3.158 -0.0504  2.2980 -1.9743
   18MOL   H86018234   0.313   3.402   3.068  2.7188 -1.5856  1.2733
   18MOL   H86118235   0.428   3.262   3.176  1.4649 -1.4725  0.0383
   18MOL   H86218236   0.654   3.202   3.290 -0.8781 -0.8670 -1.9315
   18MOL   H86318237   0.934   3.284   3.578  0.4438  0.0359  1.4811
   18MOL   H86418238   1.072   3.079   3.600 -0.2090  2.7916  0.7674
   18MOL   H86518239   1.078   2.691   3.569  0.4218 -1.1616  0.0230
   18MOL   H86618240   0.912   2.494   3.579  0.2247 -1.2707 -1.2269
   18MOL   H86718241   0.472   2.350   3.447  0.3904 -2.2060  0.0218
   18MOL   H86818242   0.335   2.231   3.297  0.5090 -0.0729  2.1565
   18MOL   N86918243   0.361   3.583   2.967 -0.0651 -0.7759  0.0947
   18MOL   C87018244   0.362   3.515   2.846 -0.1509  0.0780  0.3959
   18MOL   C87118245   0.447   3.410   2.823  0.5064 -0.0897  0.0639
   18MOL   C87218246   0.428   3.334   2.707 -0.3400  0.2454  0.2212
   18MOL   C87318247   0.343   3.377   2.599 -0.3786  0.1289  0.2290
   18MOL   N87418248   0.327   3.308   2.479  0.1183  0.0287 -0.0467
   18MOL   C87518249   0.315   3.168   2.457 -0.6869  0.0047 -0.1408
   18MOL   C87618250   0.344   3.112   2.329  0.3346  0.3745  0.0925
   18MOL   C87718251   0.344   2.975   2.310 -1.3444  0.0973  0.2809
   18MOL   C87818252   0.318   2.888   2.424 -0.6165 -0.2611  0.0720
   18MOL   N87918253   0.316   2.748   2.407 -1.1138 -0.5359 -0.2227
   18MOL   C88018254   0.381   2.683   2.308 -0.1561  0.0608  0.1564
   18MOL   C88118255   0.333   2.685   2.174 -0.3765  0.3610 -0.1071
   18MOL   C88218256   0.410   2.626   2.074  0.1280  0.7133 -0.6367
   18MOL   C88318257   0.526   2.548   2.109 -0.0852 -0.4177  0.6536
   18MOL   N88418258   0.602   2.501   1.998  0.6352 -0.4299  0.0400
   18MOL   C88518259   0.695   2.396   2.011 -0.2715 -0.8120 -0.0272
   18MOL   C88618260   0.812   2.413   2.091  0.0319 -0.1821 -0.2472
   18MOL   C88718261   0.885   2.296   2.122 -0.1803 -0.2487 -0.1458
   18MOL   C88818262   0.851   2.177   2.059 -0.2946  0.6203  0.4275
   18MOL   C88918263   0.943   2.056   2.097 -0.0994  0.1279 -0.2030
   18MOL   C89018264   0.752   2.166   1.964  0.0332 -0.4901 -0.0113
   18MOL   C89118265   0.668   2.277   1.942  0.8634 -0.0191 -0.5199
   18MOL   C89218266   0.567   2.530   2.243 -0.6483 -0.5386 -0.3390
   18MOL   C89318267   0.489   2.600   2.339 -0.1705  0.4195 -0.3740
   18MOL   C89418268   0.282   2.937   2.546  0.2097 -0.5206 -1.0055
   18MOL   C89518269   0.282   3.078   2.563 -0.6554 -0.3185  0.2238
   18MOL   C89618270   0.271   3.500   2.615 -0.4798 -0.1081  0.0586
   18MOL   C89718271   0.280   3.567   2.741 -0.1112  0.5637  0.4836
   18MOL   H89818272   0.283   3.646   2.961 -0.5261 -1.3100  0.4013
   18MOL   H89918273   0.522   3.392   2.899 -1.9437 -1.1573  2.3037
   18MOL   H90018274   0.498   3.253   2.692 -0.9877 -0.5864  1.5730
   18MOL   H90118275   0.335   3.365   2.395 -0.2410  1.6528  0.9999
   18MOL   H90218276   0.341   3.176   2.242  0.4519 -0.8028 -0.7973
   18MOL   H90318277   0.355   2.936   2.210  1.7863  1.1824  0.1646
   18MOL   H90418278   0.328   2.699   2.495 -3.1055 -2.5849 -1.0290
   18MOL   H90518279   0.241   2.735   2.146 -0.2883  0.2913 -0.5230
   18MOL   H90618280   0.388   2.653   1.972  0.5964  0.2597 -0.8632
   18MOL   H90718281   0.553   2.500   1.910  0.4162  2.1665  0.1073
   18MOL   H90818282   0.831   2.513   2.127  2.8329 -0.0493 -1.9068
   18MOL   H90918283   0.974   2.309   2.183 -0.7645  3.8858  0.0017
   18MOL   H91018284   1.046   2.091   2.091  0.5567 -1.6897  0.1889
   18MOL   H91118285   0.940   1.978   2.020  0.5609  0.8704 -0.9847
   18MOL   H91218286   0.732   2.070   1.917  2.0442 -0.8663 -0.1735
   18MOL   H91318287   0.583   2.272   1.877  0.9528 -1.6169 -0.5346
   18MOL   H91418288   0.648   2.473   2.285 -0.2170  0.1407 -0.2314
   18MOL   H91518289   0.522   2.592   2.442 -1.9264  0.4976  0.2060
   18MOL   H91618290   0.254   2.863   2.619 -3.9993  1.1411 -0.8067
   18MOL   H91718291   0.251   3.111   2.661  1.1207  1.8198  0.1080
   18MOL   H91818292   0.206   3.531   2.534 -0.4387  0.1728  0.1330
   18MOL   H91918293   0.226   3.659   2.755 -0.2525  0.8228 -1.5834
   18MOL   N92018294   0.916   2.004   2.226  0.4357 -0.1396 -0.4765
   18MOL   C92118295   0.986   1.894   2.272 -0.4445  0.1531  1.0605
   18MOL   C92218296   0.974   1.870   2.408 -0.2879 -0.4293  0.2037
   18MOL   C92318297   1.047   1.767   2.469  0.6927 -0.7251 -0.1374
   18MOL   C92418298   1.138   1.689   2.390  0.4364 -0.4195  0.4105
   18MOL   N92518299   1.209   1.577   2.439  0.1766 -0.7030 -0.2456
   18MOL   C92618300   1.191   1.520   2.567  0.7247 -0.2774 -0.2022
   18MOL   C92718301   1.071   1.462   2.597  0.2083  0.6241 -0.2723
   18MOL   C92818302   1.038   1.418   2.728  0.5303 -0.1132  0.6622
   18MOL   C92918303   1.132   1.432   2.830  0.5245 -0.3141 -0.0371
   18MOL   N93018304   1.086   1.388   2.958 -0.5014  0.9703 -0.2305
   18MOL   C93118305   1.173   1.356   3.065  0.7274 -0.1844 -0.2015
   18MOL   C93218306   1.310   1.314   3.058  0.3098 -0.7306 -0.2989
   18MOL   C93318307   1.378   1.276   3.177 -0.2899  0.4511  0.4375
   18MOL   C93418308   1.323   1.281   3.303  0.3418  1.1427  0.7855
   18MOL   N93518309   1.394   1.248   3.419  0.5448  0.4210 -0.2168
   18MOL   C93618310   1.454   1.130   3.461  0.7054 -0.2270  0.3551
   18MOL   C93718311   1.564   1.144   3.547  0.0343  0.0926  0.1927
   18MOL   C93818312   1.639   1.036   3.586 -0.1179  0.1469 -0.0828
   18MOL   C93918313   1.601   0.908   3.556  0.1135  0.3849 -0.1048
   18MOL   C94018314   1.664   0.788   3.624 -0.3865 -0.1725  0.6795
   18MOL   C94118315   1.492   0.889   3.467 -0.2591 -0.0195 -0.0952
   18MOL   C94218316   1.426   1.001   3.412 -0.6692 -0.2455 -0.3917
   18MOL   C94318317   1.191   1.333   3.315 -0.1041  0.3905  0.2752
   18MOL   C94418318   1.118   1.358   3.198 -0.0111 -0.2340 -0.3950
   18MOL   C94518319   1.256   1.493   2.804  0.0090  0.3111  0.3322
   18MOL   C94618320   1.281   1.542   2.673  0.0202  0.0449  0.4192
   18MOL   C94718321   1.158   1.725   2.253 -0.3153  0.0498  0.2641
   18MOL   C94818322   1.075   1.820   2.190 -0.0893 -0.3376 -0.1232
   18MOL   H94918323   0.853   2.051   2.288 -0.0243 -1.3726  0.0077
   18MOL   H95018324   0.908   1.930   2.470  0.3093 -0.4397  0.8468
   18MOL   H95118325   1.034   1.736   2.572 -0.2702 -2.3805 -0.7395
   18MOL   H95218326   1.302   1.565   2.401 -0.0600  2.7030 -2.0378
   18MOL   H95318327   0.995   1.454   2.521 -0.3356  0.2428  0.3059
   18MOL   H95418328   0.942   1.370   2.737  0.0619  0.3572 -1.6599
   18MOL   H95518329   0.990   1.413   2.976 -0.6523 -0.3354  0.8734
   18MOL   H95618330   1.364   1.311   2.964  2.3893  1.4422  0.7907
   18MOL   H95718331   1.475   1.232   3.157 -1.0735 -0.0573 -2.5276
   18MOL   H95818332   1.381   1.310   3.497 -0.5885  0.3007 -0.2915
   18MOL   H95918333   1.609   1.237   3.578  0.3798  0.6410 -1.8371
   18MOL   H96018334   1.719   1.045   3.658  0.0790  2.5095 -0.5695
   18MOL   H96118335   1.700   0.722   3.545  0.9605  1.0861  0.2199
   18MOL   H96218336   1.581   0.743   3.678 -0.9850  0.7637  0.5336
   18MOL   H96318337   1.473   0.793   3.422 -0.9277  1.0787 -2.2143
   18MOL   H96418338   1.347   0.994   3.339 -0.3372  3.9816 -1.2870
   18MOL   H96518339   1.141   1.333   3.411  0.7445 -3.9553  0.7949
   18MOL   H96618340   1.015   1.392   3.197  0.5843  1.6193 -0.6798
   18MOL   H96718341   1.327   1.506   2.885  0.0767  0.2248  0.2865
   18MOL   H96818342   1.371   1.598   2.654  0.5235 -1.6397 -2.4438
   18MOL   H96918343   1.224   1.666   2.190  0.8282  2.5459 -0.9176
   18MOL   H97018344   1.077   1.850   2.087  0.0684  1.3676  0.3525
   18MOL   N97118345   1.779   0.807   3.712 -0.0186  0.7571  0.1631
   18MOL   C97218346   1.901   0.856   3.669  0.9639  0.0529  0.1981
   18MOL   C97318347   1.938   0.868   3.535  0.2858 -0.6718 -0.0160
   18MOL   C97418348   2.073   0.896   3.497  1.2945  0.2045  0.1964
   18MOL   C97518349   2.160   0.943   3.588 -0.1132  0.3219 -0.1058
   18MOL   N97618350   2.286   0.992   3.543 -0.1923  0.3391  0.1157
   18MOL   C97718351   2.409   0.982   3.609 -0.3885  0.3325  0.1616
   18MOL   C97818352   2.509   1.071   3.571  0.3129 -0.1094 -0.1264
   18MOL   C97918353   2.628   1.070   3.646 -0.6239 -0.0923 -0.5268
   18MOL   C98018354   2.650   0.986   3.760 -0.2013  0.2900  0.0201
   18MOL   N98118355   2.761   1.002   3.839  0.0389  0.7559 -0.0379
   18MOL   C98218356   2.867   0.915   3.856 -1.2364 -0.1040 -0.5589
   18MOL   C98318357   2.870   0.791   3.783  0.0319 -0.1508 -0.2212
   18MOL   C98418358   2.984   0.699   3.809 -0.3711 -0.3770  0.4607
   18MOL   C98518359   3.079   0.741   3.903  1.0519  0.9354  0.4535
   18MOL   N98618360   3.192   0.661   3.928  0.3240  0.1364  0.0161
   18MOL   C98718361   3.276   0.608   3.836 -0.3223  0.5554 -0.3171
   18MOL   C98818362   3.278   0.652   3.706  0.2083  0.4348 -0.7033
   18MOL   C98918363   3.356   0.591   3.604  0.1168 -0.2754 -0.0920
   18MOL   C99018364   3.444   0.488   3.638 -0.4633  0.0718  0.0371
   18MOL   C99118365   3.532   0.425   3.534 -0.4129 -0.0455  0.3746
   18MOL   C99218366   3.451   0.445   3.772  0.3499  0.1824 -0.0308
   18MOL   C99318367   3.366   0.501   3.874  0.8888  0.0630 -0.0697
   18MOL   C99418368   3.076   0.860   3.975 -0.8125  0.1641  0.0050
   18MOL   C99518369   2.967   0.942   3.954 -0.2581 -0.4344 -0.4619
   18MOL   C99618370   2.557   0.885   3.782 -0.1010  0.2431  0.1961
   18MOL   C99718371   2.434   0.882   3.707 -1.2166 -0.3152  0.0396
   18MOL   C99818372   2.119   0.957   3.726  0.5612 -0.9592 -0.0922
   18MOL   C99918373   1.992   0.912   3.763  0.3588 -0.2457 -0.2585
   18MOL     H118374   1.757   0.810   3.810  0.4818 -0.9228  0.3423
   18MOL     H218375   1.871   0.836   3.457  2.0506 -0.3987 -1.6961
   18MOL     H318376   2.097   0.883   3.392 -0.4551 -0.0476 -0.1947
   18MOL     H418377   2.293   1.024   3.447  0.7870  0.7959  0.3284
   18MOL     H518378   2.490   1.140   3.491 -1.7605  1.4138  1.6169
   18MOL     H618379   2.711   1.132   3.618 -0.6393  0.5750  0.8481
   18MOL     H718380   2.794   1.096   3.852 -0.0043  0.5336  1.9103
   18MOL     H818381   2.800   0.775   3.702 -1.1758  0.8745  0.6243
   18MOL     H918382   3.001   0.605   3.760  2.2158 -0.5534  1.5982
   18MOL    H1018383   3.220   0.657   4.025 -1.4940  0.9746  0.6189
   18MOL    H1118384   3.205   0.726   3.676 -0.2804  0.5666  0.7953
   18MOL    H1218385   3.351   0.630   3.503  1.4244  1.0314  0.3246
   18MOL    H1318386   3.560   0.496   3.457 -0.8657 -2.1479 -1.7884
   18MOL    H1418387   3.480   0.337   3.496  0.7287 -0.0697 -1.1792
   18MOL    H1518388   3.520   0.365   3.795  1.6677  1.4659  0.6051
   18MOL    H1618389   3.378   0.463   3.974  0.7699 -0.6523 -0.3211
   18MOL    H1718390   3.152   0.880   4.049 -0.2848 -1.8225  0.0304
   18MOL    H1818391   2.955   1.036   4.006  0.1547  0.7304 -2.4055
   18MOL    H1918392   2.567   0.805   3.853 -1.4820  0.5327  0.7398
   18MOL    H2018393   2.367   0.800   3.730 -2.1519  0.4492  0.0888
   18MOL    H2118394   2.184   1.004   3.798  0.3271  0.0044 -0.4972
   18MOL    H2218395   1.957   0.916   3.865  0.7628 -0.4414 -0.1132
   18MOL    H2318396   3.631   0.407   3.575  1.1068  1.9797 -2.2556
   19MOL     N118397   6.265   2.994   0.210 -0.6585  0.1178  0.4072
   19MOL     C218398   6.294   3.091   0.114 -0.2423 -0.0605  0.2315
   19MOL     C318399   6.207   3.195   0.095 -0.4034  0.0702 -0.3532
   19MOL     C418400   6.246   3.298   0.005 -0.3289  0.2736  0.4353
   19MOL     C518401   6.361   3.284   7.908 -0.7166 -0.1437  0.3858
   19MOL     N618402   6.395   3.382   7.810  0.1381  0.4217 -0.8825
   19MOL     C718403   6.435   3.504   7.835 -0.0989 -0.5264 -0.0121
   19MOL     C818404   6.447   3.586   7.724  0.8979 -0.0201  0.0705
   19MOL     C918405   6.473   3.726   7.739 -0.2939  0.2516 -0.3411
   19MOL    C1018406   6.504   3.780   7.862  1.1504 -0.8666  0.3023
   19MOL    N1118407   6.537   3.916   7.880 -0.7450  0.0953  0.0604
   19MOL    C1218408   6.600   4.003   7.788  1.0405  0.0162 -0.7667
   19MOL    C1318409   6.667   3.958   7.679  0.4337  0.3715  0.0604
   19MOL    C1418410   6.744   4.051   7.599 -0.6089  0.4816 -0.1845
   19MOL    C1518411   6.732   4.191   7.622  0.6291  0.3830  0.2127
   19MOL    N1618412   6.801   4.282   7.539  0.3899 -0.4634  0.2377
   19MOL    C1718413   6.927   4.330   7.565  0.2620  0.4888  0.3562
   19MOL    C1818414   6.989   4.402   7.459  0.0325 -0.4074  0.1729
   19MOL    C1918415   7.119   4.451   7.476 -0.3385 -0.0553 -0.0753
   19MOL    C2018416   7.188   4.429   7.596 -0.2585 -0.1181  0.8191
   19MOL    C2118417   7.324   4.491   7.615 -0.4318 -0.5570  0.4799
   19MOL    C2218418   7.131   4.355   7.698  0.5325  0.1552 -0.1076
   19MOL    C2318419   6.997   4.311   7.686 -0.0248  0.1740 -0.4822
   19MOL    C2418420   6.666   4.236   7.740  0.0389 -0.2494 -0.1856
   19MOL    C2518421   6.601   4.140   7.821  0.1416 -0.2460 -0.0644
   19MOL    C2618422   6.493   3.698   7.973  0.2975  0.2100  0.3318
   19MOL    C2718423   6.463   3.561   7.963  0.4778  0.4822  0.2129
   19MOL    C2818424   6.444   3.174   7.927 -0.4910 -0.2375  0.5509
   19MOL    C2918425   6.416   3.081   0.044 -0.0350 -0.7603  0.0435
   19MOL    H3018426   6.334   2.931   0.248  0.1133 -0.0569 -1.2006
   19MOL    H3118427   6.113   3.189   0.147 -1.4311  2.4882 -1.8173
   19MOL    H3218428   6.186   3.387   7.980  1.4121  1.4610  0.2442
   19MOL    H3318429   6.424   3.344   7.721  1.4798 -0.6263 -0.0217
   19MOL    H3418430   6.436   3.539   7.627  0.9041  0.2215 -0.0466
   19MOL    H3518431   6.477   3.783   7.647 -2.4874  1.2364  0.1458
   19MOL    H3618432   6.516   3.953   7.972  0.9227  1.0744  0.0646
   19MOL    H3718433   6.686   3.852   7.671  0.5083  0.4002 -0.1390
   19MOL    H3818434   6.815   4.022   7.523  0.0144  2.3156 -0.3266
   19MOL    H3918435   6.786   4.281   7.439  1.1813  0.0306  0.1135
   19MOL    H4018436   6.940   4.423   7.365 -0.8882 -2.0119  0.2729
   19MOL    H4118437   7.156   4.504   7.390  0.6955  1.2363  1.1338
   19MOL    H4218438   7.386   4.474   7.527 -1.5575  0.8236 -0.5916
   19MOL    H4318439   7.374   4.439   7.697 -0.7703 -2.8540 -0.7378
   19MOL    H4418440   7.172   4.338   7.797  1.4375 -0.7026 -0.6218
   19MOL    H4518441   6.946   4.262   7.768  1.9772  0.3930  0.9196
   19MOL    H4618442   6.687   4.338   7.770  1.1713 -0.7094  0.6314
   19MOL    H4718443   6.551   4.165   7.912  2.9541  1.1211  1.1569
   19MOL    H4818444   6.503   3.730   0.094 -1.3739 -2.1765  1.2660
   19MOL    H4918445   6.452   3.494   0.065  2.0721 -2.5730 -1.9106
   19MOL    H5018446   6.529   3.161   7.862 -1.6786 -0.7798 -0.9257
   19MOL    H5118447   6.473   2.989   0.051 -1.3277 -1.5075  1.1432
   19MOL    H5218448   6.176   2.979   0.255 -0.9371  0.8717  0.1142
   19MOL    N5318449   7.311   4.636   7.653  0.0645 -1.0785  0.7106
   19MOL    C5418450   7.414   4.722   7.642  0.1354  0.3974 -0.9134
   19MOL    C5518451   7.391   4.853   7.681  0.1926  0.0968  0.1904
   19MOL    C5618452   7.488   4.955   7.678 -0.1130 -0.3593 -0.1281
   19MOL    C5718453   7.621   4.913   7.648  0.6836  0.0694 -0.4813
   19MOL    N5818454   7.721   5.013   7.644  0.7439 -0.3763 -0.2147
   19MOL    C5918455   7.847   5.014   7.582  0.3008 -0.6738  0.4707
   19MOL    C6018456   7.947   5.094   7.641 -0.0904  0.0570 -0.3015
   19MOL    C6118457   0.100   5.091   7.592  0.4057 -0.6177  0.4810
   19MOL    C6218458   0.134   5.017   7.479 -0.0997 -0.1743  0.9901
   19MOL    N6318459   0.266   5.018   7.429  0.5026 -0.1572 -0.3010
   19MOL    C6418460   0.385   5.046   7.494  0.1323 -0.5578  0.2507
   19MOL    C6518461   0.488   5.096   7.414 -0.2295  0.3279 -0.1383
   19MOL    C6618462   0.605   5.136   7.478 -1.0132 -0.5187  0.8624
   19MOL    C6718463   0.626   5.130   7.617  0.0677  0.5476 -0.2887
   19MOL    N6818464   0.745   5.175   7.684  0.1459  1.1157 -0.1698
   19MOL    C6918465   0.837   5.263   7.637  0.3281 -0.8845 -0.2189
   19MOL    C7018466   0.787   5.381   7.576 -0.1535  0.0718  0.7619
   19MOL    C7118467   0.876   5.477   7.527  1.1829  0.3212 -0.1592
   19MOL    C7218468   1.011   5.453   7.535 -0.4944  0.5454 -0.0987
   19MOL    C7318469   1.106   5.560   7.487 -0.0255  0.4674  0.3864
   19MOL    C7418470   1.061   5.335   7.589 -0.0195 -0.0879  0.0440
   19MOL    C7518471   0.976   5.244   7.650 -0.3328  0.5184  1.0702
   19MOL    C7618472   0.525   5.065   7.690  0.4158  0.6626  0.4926
   19MOL    C7718473   0.400   5.034   7.631 -0.0936 -0.1004 -0.5477
   19MOL    C7818474   0.032   4.939   7.419  0.4047 -0.6208  0.6317
   19MOL    C7918475   7.882   4.937   7.466  0.8235 -0.3189 -0.8539
   19MOL    C8018476   7.647   4.779   7.612  0.0136 -0.0160 -0.5743
   19MOL    C8118477   7.544   4.683   7.596  0.4861 -0.7603 -0.0651
   19MOL    H8218478   7.227   4.666   7.701 -0.0146  1.2267 -0.8153
   19MOL    H8318479   7.291   4.889   7.700  0.2128 -0.8719  2.2484
   19MOL    H8418480   7.467   5.061   7.680  2.3556  0.1484  0.6114
   19MOL    H8518481   7.696   5.103   7.681  0.6344 -1.0118  1.2692
   19MOL    H8618482   7.922   5.146   7.732  1.4584  1.1988 -0.5103
   19MOL    H8718483   0.172   5.145   7.652  1.3100 -2.7423  1.3617
   19MOL    H8818484   0.270   5.019   7.328  0.8000  0.5475 -0.2837
   19MOL    H8918485   0.478   5.106   7.307 -0.5609  1.1484 -0.0363
   19MOL    H9018486   0.687   5.164   7.414 -0.5725 -3.1124  0.2170
   19MOL    H9118487   0.782   5.096   7.735  1.4259  1.4113 -0.6421
   19MOL    H9218488   0.680   5.394   7.577 -0.5490 -2.7851  1.0013
   19MOL    H9318489   0.831   5.571   7.498  1.5592  1.5706  3.1305
   19MOL    H9418490   1.048   5.651   7.471 -1.9060 -0.8335 -0.4380
   19MOL    H9518491   1.132   5.528   7.386 -0.3799 -0.3464  0.5450
   19MOL    H9618492   1.168   5.322   7.590  0.4487  3.0546 -1.4699
   19MOL    H9718493   1.003   5.142   7.674 -2.6618 -0.1369  1.0979
   19MOL    H9818494   0.535   5.048   7.796  0.9823 -0.2502  0.2989
   19MOL    H9918495   0.324   4.988   7.692  0.1772  1.3251  0.8894
   19MOL   H10018496   0.057   4.877   7.334  0.4625  2.0406 -1.3659
   19MOL   H10118497   7.814   4.872   7.413  2.4379 -2.4624 -0.3592
   19MOL   H10218498   7.751   4.750   7.601 -0.2713 -0.8406 -1.1767
   19MOL   H10318499   7.570   4.587   7.554  2.0025 -0.0938 -0.6808
   19MOL   N10418500   1.218   5.579   7.581 -0.0645 -0.3214  0.3129
   19MOL   C10518501   1.323   5.653   7.532 -0.1387 -0.0480  0.1929
   19MOL   C10618502   1.316   5.793   7.530 -0.7603  0.0381 -0.4615
   19MOL   C10718503   1.414   5.863   7.459 -0.5005 -0.0312  0.0409
   19MOL   C10818504   1.524   5.791   7.400  0.4162  0.7841 -1.4387
   19MOL   N10918505   1.625   5.849   7.322 -0.5316  0.2718 -0.0522
   19MOL   C11018506   1.609   5.967   7.257  0.5592 -0.1894 -0.2144
   19MOL   C11118507   1.713   6.061   7.286  0.4883 -0.8816 -0.0655
   19MOL   C11218508   1.712   6.179   7.211  0.1620 -0.5686 -0.0320
   19MOL   C11318509   1.603   6.213   7.131  0.1345  0.1409  0.1852
   19MOL   N11418510   1.593   6.350   7.092  0.3361  0.5283  0.3546
   19MOL   C11518511   1.519   6.393   6.983 -0.3014  0.8364 -0.1200
   19MOL   C11618512   1.574   6.389   6.858  0.0294 -0.1385 -0.1470
   19MOL   C11718513   1.505   6.433   6.752 -0.3211  0.0951  0.7683
   19MOL   C11818514   1.380   6.492   6.763  0.2302 -0.5054 -0.4659
   19MOL   N11918515   1.315   6.543   6.654  0.2774 -0.1483  0.2762
   19MOL   C12018516   1.332   6.518   6.520  0.7181 -0.0210  0.1936
   19MOL   C12118517   1.372   6.398   6.475 -0.6000  0.0490  0.2524
   19MOL   C12218518   1.380   6.375   6.331  0.1102  0.1120  0.4013
   19MOL   C12318519   1.333   6.475   6.241  0.6774 -0.1593 -0.2728
   19MOL   C12418520   1.331   6.445   6.091 -0.3334 -0.2118 -0.2770
   19MOL   C12518521   1.289   6.594   6.292  0.3199  0.3647  0.4161
   19MOL   C12618522   1.286   6.621   6.432 -0.1464 -0.1671  0.2417
   19MOL   C12718523   1.324   6.502   6.892  0.1908 -0.2602 -0.5404
   19MOL   C12818524   1.386   6.447   7.002 -0.2311 -0.3100 -0.2386
   19MOL   C12918525   1.498   6.118   7.113  0.7031 -0.1896  0.0800
   19MOL   C13018526   1.500   5.993   7.175 -0.0811 -0.8859 -0.6584
   19MOL   C13118527   1.533   5.650   7.411 -0.3674 -0.0083  0.3309
   19MOL   C13218528   1.436   5.580   7.489  0.2167  0.8015 -0.3944
   19MOL   H13318529   1.248   5.494   7.627 -0.5369  0.4825  2.1676
   19MOL   H13418530   1.241   5.850   7.581  2.1542  2.7508  0.9511
   19MOL   H13518531   1.407   5.970   7.450 -1.5241  0.0932  1.9982
   19MOL   H13618532   1.665   5.779   7.260 -0.6642  0.4766 -0.3736
   19MOL   H13718533   1.799   6.035   7.345  2.2719  3.1142 -0.7207
   19MOL   H13818534   1.789   6.252   7.231 -0.6252 -0.1066  1.3831
   19MOL   H13918535   1.663   6.417   7.118  0.1177  1.1367 -0.5846
   19MOL   H14018536   1.668   6.340   6.837  0.9646  1.6154 -0.2196
   19MOL   H14118537   1.566   6.424   6.664  0.6491  0.0834  1.4338
   19MOL   H14218538   1.243   6.610   6.676  0.6427 -0.0936  1.3571
   19MOL   H14318539   1.391   6.317   6.543  0.7593  0.1010 -0.0547
   19MOL   H14418540   1.427   6.281   6.304 -0.3600 -0.9054  2.9601
   19MOL   H14518541   1.247   6.507   6.063  0.0550  0.2580 -0.4049
   19MOL   H14618542   1.320   6.339   6.065 -0.7874 -0.0867 -0.6045
   19MOL   H14718543   1.244   6.661   6.220  0.2401 -2.6546 -2.4889
   19MOL   H14818544   1.245   6.717   6.460  0.5186 -0.6083  2.9202
   19MOL   H14918545   1.228   6.551   6.900  0.3088  0.0003 -0.7060
   19MOL   H15018546   1.345   6.465   7.101 -0.5667  0.2773 -0.4837
   19MOL   H15118547   1.421   6.150   7.044  1.8885 -0.1277 -1.2563
   19MOL   H15218548   1.421   5.924   7.149 -2.2101  0.8568  1.0622
   19MOL   H15318549   1.606   5.585   7.365 -0.8896  0.7177 -1.5721
   19MOL   H15418550   1.443   5.472   7.486 -1.6477  0.6729 -1.0540
   19MOL   N15518551   1.461   6.489   6.047 -0.4812  0.0327 -0.2269
   19MOL   C15618552   1.476   6.537   5.914 -0.2288 -0.4287 -0.4438
   19MOL   C15718553   1.596   6.596   5.878  0.3933 -0.6161 -0.0208
   19MOL   C15818554   1.617   6.631   5.748  0.1824 -0.1710  0.1753
   19MOL   C15918555   1.515   6.622   5.653 -0.2149  0.0429 -0.0846
   19MOL   N16018556   1.538   6.670   5.520 -0.7478 -0.0078  0.0669
   19MOL   C16118557   1.579   6.801   5.495 -0.0198 -0.3343 -0.5138
   19MOL   C16218558   1.579   6.904   5.594 -0.0713 -0.5504  0.3897
   19MOL   C16318559   1.601   7.036   5.561  0.5283 -0.2364  0.7329
   19MOL   C16418560   1.632   7.073   5.430 -0.2398  0.4433  0.3589
   19MOL   N16518561   1.679   7.203   5.416  0.1312  0.3062  0.2086
   19MOL   C16618562   1.780   7.253   5.331  0.8356  0.2107  0.8275
   19MOL   C16718563   1.895   7.305   5.384 -0.4488  0.4495 -0.1897
   19MOL   C16818564   1.991   7.375   5.303  0.3585  0.1395 -0.2766
   19MOL   C16918565   1.981   7.365   5.165 -0.5590  0.3216  0.6359
   19MOL   N17018566   2.077   7.420   5.070  0.3864 -0.4082 -0.6883
   19MOL   C17118567   2.157   7.351   4.983  0.8489 -0.0036  0.2035
   19MOL   C17218568   2.133   7.213   4.958  0.5470  0.1823 -0.0343
   19MOL   C17318569   2.211   7.138   4.865  0.0691  0.9211 -0.4072
   19MOL   C17418570   2.313   7.202   4.788 -0.2351 -0.0100  0.1951
   19MOL   C17518571   2.389   7.123   4.683  0.4588  0.1972 -0.5542
   19MOL   C17618572   2.331   7.340   4.813  0.0880 -0.1673  0.0551
   19MOL   C17718573   2.255   7.415   4.907 -0.5330  0.1583  0.2287
   19MOL   C17818574   1.863   7.311   5.110  0.0166 -0.5050  0.1082
   19MOL   C17918575   1.760   7.261   5.190 -0.2371  0.3478  0.2178
   19MOL   C18018576   1.638   6.974   5.331 -0.8073  0.3269  0.4099
   19MOL   C18118577   1.604   6.842   5.364  0.1743 -0.5796  0.2597
   19MOL   C18218578   1.393   6.558   5.684 -0.2842  0.1700 -0.5786
   19MOL   C18318579   1.376   6.510   5.813 -1.0999 -0.1843 -0.1502
   19MOL   H18418580   1.513   6.537   6.119 -2.6138  0.9632  0.7146
   19MOL   H18518581   1.671   6.625   5.950 -0.0949 -1.1791  0.7193
   19MOL   H18618582   1.713   6.671   5.718 -0.9198  1.8973 -0.7393
   19MOL   H18718583   1.497   6.607   5.453  0.1965  0.6239 -1.1283
   19MOL   H18818584   1.553   6.877   5.695  2.0628 -0.1785  1.0617
   19MOL   H18918585   1.596   7.113   5.636  0.5845  0.2773  0.2156
   19MOL   H19018586   1.659   7.250   5.503  0.3715  0.2609  0.2871
   19MOL   H19118587   1.898   7.306   5.492  1.8866 -0.7662 -0.2064
   19MOL   H19218588   2.081   7.419   5.344 -0.9965  2.5670  0.1730
   19MOL   H19318589   2.115   7.512   5.085  0.5502  0.1269 -4.1735
   19MOL   H19418590   2.062   7.158   5.017  1.9493 -1.3440  0.2491
   19MOL   H19518591   2.192   7.032   4.855  0.7364  0.8524 -1.0275
   19MOL   H19618592   2.393   7.166   4.583 -2.0868 -0.5217 -0.9773
   19MOL   H19718593   2.319   7.044   4.659 -1.6791  1.4915  1.2079
   19MOL   H19818594   2.411   7.383   4.755 -1.7728  1.4222 -1.4066
   19MOL   H19918595   2.273   7.520   4.919  1.0647 -0.1753  0.9565
   19MOL   H20018596   1.856   7.289   5.004  2.4912 -1.0240  0.0173
   19MOL   H20118597   1.674   7.219   5.140  0.6043 -2.2244  0.8344
   19MOL   H20218598   1.661   6.987   5.226  3.1294 -2.6270  0.7883
   19MOL   H20318599   1.611   6.779   5.277  3.1364  0.2188 -0.1576
   19MOL   H20418600   1.316   6.551   5.609  0.2203 -0.1993 -1.0614
   19MOL   H20518601   1.277   6.470   5.831 -1.8279  1.0839 -1.3160
   19MOL   N20618602   2.518   7.066   4.741  0.2761  0.3655  0.2158
   19MOL   C20718603   2.615   7.028   4.651  0.6038 -0.2332  0.5200
   19MOL   C20818604   2.581   6.988   4.519 -0.0650  0.1510  0.1383
   19MOL   C20918605   2.683   6.945   4.433  0.3292  0.1096 -0.2777
   19MOL   C21018606   2.823   6.954   4.474  0.8357  0.1686 -0.1013
   19MOL   N21118607   2.941   6.927   4.401 -0.9209  0.2539  0.3339
   19MOL   C21218608   2.962   6.905   4.262  0.5456 -0.0048  0.3011
   19MOL   C21318609   3.071   6.819   4.230 -0.5586  0.3065 -0.4013
   19MOL   C21418610   3.100   6.807   4.093  0.3396  0.1653 -0.7599
   19MOL   C21518611   3.041   6.891   3.994  0.3726 -0.2656 -0.2842
   19MOL   N21618612   3.092   6.875   3.867 -0.2675 -0.6962  0.2045
   19MOL   C21718613   3.034   6.926   3.755 -0.2117 -0.3915 -0.2292
   19MOL   C21818614   3.047   7.063   3.725  0.4332  0.1078  0.2185
   19MOL   C21918615   2.976   7.108   3.609  0.2038 -0.0078 -0.6301
   19MOL   C22018616   2.901   7.019   3.528  0.6855  0.3433  0.8130
   19MOL   N22118617   2.833   7.065   3.415 -0.2699 -1.0778  0.0650
   19MOL   C22218618   2.856   7.176   3.328  0.1432 -0.2959  0.0565
   19MOL   C22318619   2.748   7.238   3.266 -0.0275 -0.5341 -0.3152
   19MOL   C22418620   2.774   7.345   3.180 -0.5200 -0.9556 -0.2718
   19MOL   C22518621   2.906   7.397   3.169  0.1344  0.2268  0.6827
   19MOL   C22618622   2.923   7.516   3.076 -0.2452 -0.4901  0.1775
   19MOL   C22718623   3.014   7.335   3.234 -0.1663  0.4053  0.5912
   19MOL   C22818624   2.988   7.220   3.307 -0.3907 -0.3120 -0.1317
   19MOL   C22918625   2.897   6.880   3.561  0.4493  0.1979 -0.2943
   19MOL   C23018626   2.966   6.834   3.674  1.2582  0.0907  0.2982
   19MOL   C23118627   2.938   6.988   4.035 -0.5339  0.0905  0.4703
   19MOL   C23218628   2.897   6.984   4.167  0.0964  0.4731 -0.1155
   19MOL   C23318629   2.851   6.995   4.606 -0.3557 -0.6768  0.5684
   19MOL   C23418630   2.750   7.033   4.692 -0.7653  0.9447 -1.0136
   19MOL   H23518631   2.549   7.093   4.834 -2.0743 -2.5350  1.9019
   19MOL   H23618632   2.476   6.980   4.498  0.0813 -1.0843 -0.1807
   19MOL   H23718633   2.651   6.907   4.338  1.1105 -0.4097 -0.3470
   19MOL   H23818634   3.019   6.891   4.453 -0.0498 -0.6614 -1.5348
   19MOL   H23918635   3.132   6.762   4.298  0.0458  1.6077  0.1588
   19MOL   H24018636   3.182   6.744   4.061  0.8907  1.7485 -2.6173
   19MOL   H24118637   3.160   6.801   3.854  0.5616  0.2991 -1.3932
   19MOL   H24218638   3.115   7.129   3.777 -1.0546  0.8473  1.2849
   19MOL   H24318639   2.989   7.210   3.579 -2.2451  0.5787  0.1644
   19MOL   H24418640   2.773   6.999   3.367  0.2569 -0.2812 -1.7238
   19MOL   H24518641   2.651   7.195   3.283  0.0107 -1.1870 -1.6244
   19MOL   H24618642   2.699   7.388   3.114  1.6178  0.7871 -1.6525
   19MOL   H24718643   3.019   7.567   3.083  0.5423 -1.8835 -0.2608
   19MOL   H24818644   2.867   7.601   3.115 -1.3853 -0.8589 -0.6101
   19MOL   H24918645   3.112   7.377   3.219 -0.4723 -0.1037 -3.1554
   19MOL   H25018646   3.066   7.173   3.365  0.8316  0.2788 -1.2470
   19MOL   H25118647   2.841   6.818   3.491  2.5054 -0.5253 -1.3421
   19MOL   H25218648   2.958   6.732   3.711  1.6202 -0.9641 -2.4214
   19MOL   H25318649   2.899   7.056   3.960  0.0469 -0.9578 -0.8152
   19MOL   H25418650   2.808   7.042   4.187 -0.7337 -1.7144  2.8010
   19MOL   H25518651   2.953   7.004   4.641 -0.5344 -0.7625  1.1207
   19MOL   H25618652   2.777   7.045   4.796  0.6795 -0.4195 -1.2183
   19MOL   N25718653   2.876   7.507   2.936 -0.4170 -0.2494  0.1693
   19MOL   C25818654   2.900   7.388   2.863  0.1213 -0.0323  0.5041
   19MOL   C25918655   2.802   7.368   2.760 -0.5640  0.5268  0.1965
   19MOL   C26018656   2.831   7.267   2.665 -1.1052 -0.4378  1.0336
   19MOL   C26118657   2.948   7.188   2.671 -0.1927  0.1081  0.0346
   19MOL   N26218658   2.971   7.098   2.564  0.6536  0.6416 -0.0144
   19MOL   C26318659   3.054   6.980   2.573  0.1102  0.5400 -0.7462
   19MOL   C26418660   3.065   6.911   2.693  0.1458  0.1780 -0.6690
   19MOL   C26518661   3.151   6.796   2.707  0.0634 -0.8160  0.6966
   19MOL   C26618662   3.234   6.763   2.601 -0.2135  0.3379  0.3722
   19MOL   N26718663   3.329   6.660   2.612  0.5568 -0.0021  0.2378
   19MOL   C26818664   3.441   6.659   2.692 -0.4222 -0.0173 -0.4106
   19MOL   C26918665   3.480   6.773   2.756 -0.1617 -0.1952  0.0010
   19MOL   C27018666   3.584   6.766   2.849  0.6227 -0.2430 -0.1361
   19MOL   C27118667   3.637   6.639   2.877 -0.1585 -0.2733  0.5785
   19MOL   N27218668   3.742   6.636   2.971 -0.1461  0.7873  0.6074
   19MOL   C27318669   3.811   6.528   3.028  0.4086  0.1978 -0.2213
   19MOL   C27418670   3.740   6.403   3.058 -0.6095 -0.0661  0.0393
   19MOL   C27518671   3.815   6.289   3.102  0.3435 -0.6094 -0.0575
   19MOL   C27618672   3.955   6.297   3.117 -0.8002  0.4237 -0.2438
   19MOL   C27718673   4.042   6.180   3.155  0.9067 -1.3079  0.5982
   19MOL   C27818674   4.022   6.420   3.079 -0.4168  0.5047  0.1294
   19MOL   C27918675   3.949   6.534   3.038 -0.2579 -0.0788 -0.3267
   19MOL   C28018676   3.593   6.526   2.815 -0.1214  0.1232  0.2054
   19MOL   C28118677   3.495   6.534   2.713  0.3667 -0.4341 -0.0609
   19MOL   C28218678   3.226   6.834   2.475  0.1150  0.2053 -0.4091
   19MOL   C28318679   3.138   6.941   2.466 -0.2331  0.0311 -0.6801
   19MOL   C28418680   3.049   7.222   2.766 -0.7052  0.1812 -0.1615
   19MOL   C28518681   3.015   7.312   2.871 -0.1096  0.2396  0.1193
   19MOL   H28618682   2.788   7.554   2.918 -1.4706 -1.3151  2.2786
   19MOL   H28718683   2.714   7.429   2.750  0.0217  1.1238 -1.5903
   19MOL   H28818684   2.754   7.251   2.591 -0.8468  0.2781  0.6044
   19MOL   H28918685   2.933   7.118   2.473 -0.2048 -0.7100  0.0219
   19MOL   H29018686   3.010   6.939   2.782  1.2701 -1.0744  0.4436
   19MOL   H29118687   3.161   6.762   2.809  0.2394 -2.1299  0.2527
   19MOL   H29218688   3.311   6.571   2.568 -2.1534  0.8571 -0.4716
   19MOL   H29318689   3.440   6.868   2.721  0.7905  0.2796  0.1754
   19MOL   H29418690   3.612   6.855   2.904 -1.0855  0.4487 -0.3435
   19MOL   H29518691   3.800   6.718   2.972 -0.9583  1.3982 -1.4216
   19MOL   H29618692   3.633   6.395   3.048 -0.9709  2.8041  1.1549
   19MOL   H29718693   3.770   6.192   3.115  1.3193 -0.8297  1.9459
   19MOL   H29818694   4.098   6.202   3.245  0.6023  0.3965  0.3791
   19MOL   H29918695   4.117   6.168   3.076 -0.1883 -1.1696 -0.4759
   19MOL   H30018696   4.129   6.425   3.092 -0.7587  1.7687  2.9250
   19MOL   H30118697   4.002   6.628   3.031 -2.2574  0.9874 -1.5902
   19MOL   H30218698   3.640   6.434   2.845  0.6756  0.6721  0.6760
   19MOL   H30318699   3.455   6.444   2.670  1.5298 -0.1063 -1.8647
   19MOL   H30418700   3.293   6.815   2.393  2.7869 -0.1373  1.7754
   19MOL   H30518701   3.131   6.990   2.369 -1.8409 -0.6705 -0.9411
   19MOL   H30618702   3.148   7.180   2.755 -0.3449  1.5403 -2.3917
   19MOL   H30718703   3.098   7.333   2.937 -0.7040  0.0710  0.9246
   19MOL   N30818704   3.971   6.055   3.158  0.3244  0.4887 -0.2898
   19MOL   C30918705   4.056   5.941   3.139 -0.2941 -0.6715 -0.3502
   19MOL   C31018706   4.173   5.926   3.220  0.0982 -0.0961 -0.0641
   19MOL   C31118707   4.261   5.818   3.200 -0.0257  0.5040  0.1030
   19MOL   C31218708   4.232   5.725   3.098  0.6494  0.5682  0.9656
   19MOL   N31318709   4.316   5.614   3.076  0.4966  0.1179 -0.2551
   19MOL   C31418710   4.271   5.478   3.069 -0.1993  0.2209  0.1216
   19MOL   C31518711   4.166   5.436   3.145 -1.0895  0.2872 -0.5541
   19MOL   C31618712   4.139   5.297   3.152 -0.0715 -0.6408 -0.2544
   19MOL   C31718713   4.215   5.202   3.079 -0.0838  0.1509  0.4631
   19MOL   N31818714   4.177   5.065   3.081 -0.3696  0.0233 -0.5477
   19MOL   C31918715   4.217   4.970   3.175  0.2554 -0.2112  0.1541
   19MOL   C32018716   4.321   4.990   3.266  0.4700 -0.4764  0.1775
   19MOL   C32118717   4.353   4.892   3.353  0.0506 -0.7040  0.4572
   19MOL   C32218718   4.287   4.771   3.358  0.1489  0.2790  0.7474
   19MOL   N32318719   4.314   4.673   3.454 -0.0925  0.5431  0.4528
   19MOL   C32418720   4.295   4.534   3.433  0.0582 -0.0248  0.1962
   19MOL   C32518721   4.405   4.458   3.400  0.7865  0.3975 -0.5291
   19MOL   C32618722   4.406   4.319   3.380  0.0773 -0.2481  0.6976
   19MOL   C32718723   4.284   4.253   3.400 -0.3295 -0.2883  0.5745
   19MOL   C32818724   4.274   4.108   3.361  0.0121 -0.4741  0.1324
   19MOL   C32918725   4.165   4.323   3.437  0.1851 -0.5407 -0.3367
   19MOL   C33018726   4.174   4.464   3.452 -0.5684  0.5003  0.0570
   19MOL   C33118727   4.184   4.743   3.266 -0.3774  0.0322  0.2697
   19MOL   C33218728   4.149   4.846   3.179 -0.9238 -0.7290 -0.6675
   19MOL   C33318729   4.306   5.250   2.992  0.4573 -0.7202  0.0173
   19MOL   C33418730   4.342   5.383   2.992 -0.4564  0.0125 -0.6390
   19MOL   C33518731   4.112   5.740   3.023  0.0632  0.0024  0.2087
   19MOL   C33618732   4.025   5.849   3.039  0.1416 -0.1175  0.2483
   19MOL   H33718733   3.878   6.052   3.119  0.0824  0.2328  0.3078
   19MOL   H33818734   4.181   6.001   3.296 -0.8486  2.0159 -1.9767
   19MOL   H33918735   4.349   5.813   3.262  1.0150 -0.7241 -1.4273
   19MOL   H34018736   4.414   5.627   3.093  0.7684  0.5197 -2.0815
   19MOL   H34118737   4.117   5.505   3.211 -0.7884  0.2022 -0.2404
   19MOL   H34218738   4.052   5.255   3.198 -0.0530  0.0700  0.4440
   19MOL   H34318739   4.160   5.031   2.988 -0.3735 -1.3651 -0.0623
   19MOL   H34418740   4.375   5.083   3.272 -1.6554  0.7985 -0.2123
   19MOL   H34518741   4.425   4.911   3.432 -0.5292 -0.8394  1.0241
   19MOL   H34618742   4.399   4.708   3.497 -0.1442  0.8407  0.3110
   19MOL   H34718743   4.499   4.512   3.398  1.0668 -0.1271 -1.6884
   19MOL   H34818744   4.496   4.260   3.368  0.7444  0.8127  0.3734
   19MOL   H34918745   4.175   4.081   3.398  0.2234  0.6293  1.5666
   19MOL   H35018746   4.360   4.064   3.411  0.0021 -1.1662 -0.4520
   19MOL   H35118747   4.066   4.280   3.447  0.1252  0.3286  3.4957
   19MOL   H35218748   4.094   4.528   3.486 -0.4599  1.4907 -1.5256
   19MOL   H35318749   4.141   4.644   3.272 -0.0287 -0.1164  0.2593
   19MOL   H35418750   4.067   4.824   3.111 -1.3720  0.8768 -0.6737
   19MOL   H35518751   4.349   5.179   2.922  0.7351 -0.3448 -0.1934
   19MOL   H35618752   4.424   5.414   2.928 -0.9968 -2.6426 -2.6958
   19MOL   H35718753   4.105   5.676   2.936  1.1136  0.4969 -0.2415
   19MOL   H35818754   3.934   5.859   2.982  0.8514 -3.6777 -1.5985
   19MOL   N35918755   4.294   4.108   3.213  0.4273  0.7756 -0.4327
   19MOL   C36018756   4.284   3.993   3.138  0.3642 -0.1525 -0.1471
   19MOL   C36118757   4.351   3.991   3.014 -0.4131  0.0589 -0.7171
   19MOL   C36218758   4.327   3.886   2.923  0.1347  0.1201 -0.0722
   19MOL   C36318759   4.254   3.772   2.958  0.1497 -0.1509 -0.5480
   19MOL   N36418760   4.239   3.669   2.864  0.1118  0.1595  0.2028
   19MOL   C36518761   4.145   3.571   2.860  0.5407 -0.3274  0.7138
   19MOL   C36618762   4.007   3.599   2.843 -0.0317  0.0201  0.0418
   19MOL   C36718763   3.922   3.492   2.814 -0.0765 -0.1887 -0.5703
   19MOL   C36818764   3.961   3.356   2.830 -0.6106  0.5867 -0.2618
   19MOL   N36918765   3.868   3.257   2.812  0.0868 -0.1173  0.1513
   19MOL   C37018766   3.869   3.115   2.825  0.3207  0.2718  0.5843
   19MOL   C37118767   3.964   3.045   2.897  0.2696 -0.6137 -0.1851
   19MOL   C37218768   3.968   2.905   2.901 -0.1709 -0.4035  0.0004
   19MOL   C37318769   3.860   2.838   2.838 -0.4301  0.1008  0.0380
   19MOL   N37418770   3.851   2.699   2.864 -0.1454 -0.2944 -0.5244
   19MOL   C37518771   3.870   2.627   2.990 -0.3429  0.9986 -0.7566
   19MOL   C37618772   3.896   2.486   2.990 -0.0424 -0.5657  0.3831
   19MOL   C37718773   3.911   2.411   3.107  0.5919  0.1619  0.3222
   19MOL   C37818774   3.895   2.482   3.236  0.2283 -0.1978  0.4077
   19MOL   C37918775   3.913   2.399   3.363 -0.2686 -0.2576 -0.1528
   19MOL   C38018776   3.882   2.625   3.243  0.0223 -0.4347  0.4281
   19MOL   C38118777   3.868   2.695   3.117 -0.2285 -0.4282 -0.5050
   19MOL   C38218778   3.753   2.904   2.771 -0.3491  0.1057 -0.0230
   19MOL   C38318779   3.765   3.045   2.755 -0.3649 -0.0083  0.3840
   19MOL   C38418780   4.098   3.332   2.850  0.3212 -0.8145  0.0206
   19MOL   C38518781   4.184   3.437   2.863 -0.2962  0.5037 -0.2840
   19MOL   C38618782   4.193   3.765   3.091 -0.5253 -0.2191 -0.0372
   19MOL   C38718783   4.210   3.878   3.180  0.2802 -0.5225  0.2322
   19MOL   H38818784   4.341   4.185   3.167  0.7561 -0.7985 -2.8315
   19MOL   H38918785   4.401   4.078   2.975  0.2239  1.4397  2.9717
   19MOL   H39018786   4.365   3.892   2.823 -0.1520 -1.2439 -0.2762
   19MOL   H39118787   4.322   3.663   2.807  0.5315  0.7577  0.7376
   19MOL   H39218788   3.963   3.698   2.848  1.0704  0.4946  0.5486
   19MOL   H39318789   3.822   3.517   2.783 -0.0886  0.5891  0.0951
   19MOL   H39418790   3.809   3.289   2.737  0.2583 -3.1846 -1.3779
   19MOL   H39518791   4.045   3.088   2.954  1.2998 -1.8364 -0.6878
   19MOL   H39618792   4.050   2.863   2.958  0.3414 -1.3494 -1.4090
   19MOL   H39718793   3.785   2.651   2.803 -2.4629 -0.9680  2.4095
   19MOL   H39818794   3.901   2.441   2.892 -0.0864 -0.7746  0.4767
   19MOL   H39918795   3.940   2.308   3.091 -4.0008 -1.0957 -0.6776
   19MOL   H40018796   3.980   2.317   3.339  0.9961  0.8276 -0.3482
   19MOL   H40118797   3.822   2.339   3.373 -0.4426  0.3963  2.6369
   19MOL   H40218798   3.884   2.681   3.336  0.4201  1.1123 -0.4887
   19MOL   H40318799   3.854   2.802   3.112 -0.5252 -0.4941 -1.1603
   19MOL   H40418800   3.671   2.846   2.731 -1.0365  0.2931  1.0787
   19MOL   H40518801   3.686   3.091   2.698 -1.7725 -0.2073  2.1287
   19MOL   H40618802   4.138   3.232   2.864  0.8569 -0.7537 -1.1015
   19MOL   H40718803   4.287   3.410   2.878 -0.3051  1.7880  2.4286
   19MOL   H40818804   4.134   3.679   3.117 -2.6195  1.5026  1.0669
   19MOL   H40918805   4.169   3.872   3.279 -1.1263  1.1159 -0.2345
   19MOL   N41018806   3.929   2.463   3.488  0.4647  0.2215  0.0277
   19MOL   C41118807   4.057   2.508   3.537 -0.0098 -0.0740 -0.0977
   19MOL   C41218808   4.056   2.583   3.659 -0.7823  0.1092 -0.0164
   19MOL   C41318809   4.173   2.638   3.707  0.1705 -0.2341  0.4425
   19MOL   C41418810   4.298   2.621   3.641  0.1536  0.3383  0.0502
   19MOL   N41518811   4.417   2.681   3.690  0.8479  1.1638  0.0664
   19MOL   C41618812   4.515   2.614   3.760  0.1000 -0.0395  0.1377
   19MOL   C41718813   4.571   2.491   3.722 -0.0790  1.2784  0.4008
   19MOL   C41818814   4.664   2.427   3.806 -0.7167  0.4929 -0.1138
   19MOL   C41918815   4.698   2.485   3.929 -0.0300  0.6079  0.1982
   19MOL   N42018816   4.784   2.426   4.023 -0.4806  0.3630 -0.4446
   19MOL   C42118817   4.768   2.422   4.159  0.0047 -0.3678 -0.7225
   19MOL   C42218818   4.647   2.407   4.229  0.2047  0.1226 -0.3348
   19MOL   C42318819   4.636   2.435   4.372 -0.6005 -0.6564 -0.2908
   19MOL   C42418820   4.751   2.449   4.448 -0.6902 -0.3119 -0.0164
   19MOL   N42518821   4.742   2.496   4.578 -0.0470  0.2538 -0.1499
   19MOL   C42618822   4.640   2.474   4.676 -0.3114  0.0906  1.1793
   19MOL   C42718823   4.591   2.340   4.691 -0.2974  0.2614  0.3446
   19MOL   C42818824   4.486   2.322   4.782  0.2872  0.6581  0.0803
   19MOL   C42918825   4.418   2.426   4.847 -0.8048 -0.3170  0.5279
   19MOL   C43018826   4.296   2.400   4.925 -0.0409 -0.8084  0.9084
   19MOL   C43118827   4.469   2.560   4.824  0.1076 -0.5968 -0.3739
   19MOL   C43218828   4.578   2.581   4.738  0.0921 -0.7951  0.8550
   19MOL   C43318829   4.875   2.453   4.375 -0.4337  0.2638 -0.4592
   19MOL   C43418830   4.887   2.446   4.232  0.0245 -0.3670  0.0162
   19MOL   C43518831   4.643   2.612   3.964 -0.3372 -0.0060 -0.2317
   19MOL   C43618832   4.559   2.676   3.878 -0.3284  0.5247  0.6636
   19MOL   C43718833   4.295   2.545   3.524  0.1839  0.1758 -0.9297
   19MOL   C43818834   4.176   2.484   3.475  0.0104 -0.2990  0.1522
   19MOL   H43918835   3.856   2.466   3.557  0.9896 -0.3449  0.6134
   19MOL   H44018836   3.961   2.601   3.707 -1.3183 -2.7355  0.0851
   19MOL   H44118837   4.171   2.694   3.799 -2.0868 -2.8575  2.0646
   19MOL   H44218838   4.395   2.772   3.728  0.1292  1.7215 -1.6061
   19MOL   H44318839   4.545   2.439   3.631  2.5265  0.5789  0.0114
   19MOL   H44418840   4.713   2.335   3.779 -0.2494  0.7955 -0.2888
   19MOL   H44518841   4.875   2.387   4.001 -0.0881  0.9640  0.0760
   19MOL   H44618842   4.558   2.390   4.170  0.6657 -0.8617 -0.7519
   19MOL   H44718843   4.542   2.446   4.423 -1.0475  2.3481 -1.6661
   19MOL   H44818844   4.820   2.551   4.613  0.1899  0.1881 -0.5783
   19MOL   H44918845   4.639   2.262   4.634 -0.0650  0.7618 -0.1409
   19MOL   H45018846   4.448   2.222   4.791 -0.9883  1.2767  1.9138
   19MOL   H45118847   4.240   2.494   4.928 -0.0394 -0.6114 -2.6811
   19MOL   H45218848   4.327   2.379   5.027  0.4987 -0.1813  0.8729
   19MOL   H45318849   4.427   2.641   4.881 -0.6234 -1.4276  0.2903
   19MOL   H45418850   4.610   2.683   4.723  1.4687 -1.6382 -2.3917
   19MOL   H45518851   4.969   2.464   4.427  1.6288 -2.0149 -3.4727
   19MOL   H45618852   4.983   2.458   4.185 -0.7074  1.2255 -1.1135
   19MOL   H45718853   4.678   2.666   4.051 -0.8900 -1.7313  1.0905
   19MOL   H45818854   4.527   2.777   3.898 -0.5086  1.1267 -2.3584
   19MOL   H45918855   4.387   2.529   3.469 -0.4812  1.0103 -2.3182
   19MOL   H46018856   4.187   2.423   3.386  1.0524  1.5805 -1.0384
   19MOL   N46118857   4.211   2.287   4.882 -0.3897  0.1065  0.3930
   19MOL   C46218858   4.077   2.279   4.916  0.5540 -0.0597  0.5095
   19MOL   C46318859   4.030   2.334   5.037  0.5901  0.1753  0.2128
   19MOL   C46418860   3.893   2.332   5.073  1.0294 -0.3954  0.2666
   19MOL   C46518861   3.802   2.262   4.986 -0.1656  0.0742  0.2619
   19MOL   N46618862   3.666   2.258   5.009  0.2029 -0.5661  0.5853
   19MOL   C46718863   3.594   2.337   5.101 -0.0711  0.6464  0.5127
   19MOL   C46818864   3.488   2.274   5.170 -0.9774 -0.3341  0.1413
   19MOL   C46918865   3.403   2.346   5.255  0.4944 -0.0252 -0.0173
   19MOL   C47018866   3.427   2.486   5.269 -0.4539 -0.1946 -0.4466
   19MOL   N47118867   3.335   2.562   5.349 -0.0601  0.1410 -0.1083
   19MOL   C47218868   3.370   2.678   5.420  0.3526  0.3450  0.0826
   19MOL   C47318869   3.283   2.791   5.409 -0.8521  0.0439 -0.0516
   19MOL   C47418870   3.307   2.905   5.484  0.1252 -0.5916  0.2960
   19MOL   C47518871   3.422   2.914   5.565 -0.3865 -0.0042 -0.6125
   19MOL   N47618872   3.449   3.034   5.631  0.0406  0.2743 -0.1563
   19MOL   C47718873   3.490   3.042   5.766  0.6090  1.4733 -0.0274
   19MOL   C47818874   3.451   2.944   5.860 -0.1777 -0.5687  0.0633
   19MOL   C47918875   3.492   2.963   5.999 -0.0701  0.1525  0.8280
   19MOL   C48018876   3.558   3.075   6.043  0.7432 -0.1706 -0.1125
   19MOL   C48118877   3.588   3.094   6.195  0.2465  0.3061  0.2204
   19MOL   C48218878   3.586   3.178   5.942 -0.0387 -0.1136 -0.5794
   19MOL   C48318879   3.550   3.161   5.808 -0.8391  0.4501 -0.4987
   19MOL   C48418880   3.501   2.797   5.582 -0.5185 -0.8752 -0.1401
   19MOL   C48518881   3.467   2.675   5.518  0.8577 -0.1163  0.2587
   19MOL   C48618882   3.534   2.552   5.196  0.2200  0.0629  0.0600
   19MOL   C48718883   3.616   2.475   5.118  0.3386  0.3704 -0.3209
   19MOL   C48818884   3.852   2.214   4.862 -0.8259  0.2425  0.0383
   19MOL   C48918885   3.989   2.222   4.826  0.2357  0.3733  0.0287
   19MOL   H49018886   4.255   2.218   4.822 -2.4969 -0.4905 -0.4934
   19MOL   H49118887   4.104   2.371   5.106 -0.0996  1.1725  0.4299
   19MOL   H49218888   3.862   2.364   5.172 -2.6661  1.9854 -1.5450
   19MOL   H49318889   3.610   2.207   4.942  0.4622  0.3257 -0.3391
   19MOL   H49418890   3.474   2.173   5.135  1.1601 -0.5949 -0.0847
   19MOL   H49518891   3.320   2.297   5.303  0.2081  0.4877  0.0159
   19MOL   H49618892   3.242   2.568   5.311 -0.7650  0.0820  1.5597
   19MOL   H49718893   3.196   2.772   5.347  0.4634 -0.4758 -1.7778
   19MOL   H49818894   3.238   2.988   5.483 -0.0542 -0.7268  0.8604
   19MOL   H49918895   3.424   3.121   5.585  1.0071  0.2622 -0.7215
   19MOL   H50018896   3.391   2.858   5.835  1.0899 -1.5609  0.3619
   19MOL   H50118897   3.459   2.889   6.071 -2.4592 -0.6526 -1.0179
   19MOL   H50218898   3.585   2.994   6.236  2.0252 -1.1757 -3.0589
   19MOL   H50318899   3.505   3.147   6.242  0.1883 -0.0357  0.4985
   19MOL   H50418900   3.648   3.261   5.973 -0.7453  0.4445 -0.6338
   19MOL   H50518901   3.562   3.249   5.746  2.0265  1.0608  0.8622
   19MOL   H50618902   3.580   2.798   5.655  1.8335  1.4874 -2.6065
   19MOL   H50718903   3.528   2.586   5.529  0.4778 -0.2054  1.8143
   19MOL   H50818904   3.552   2.657   5.212 -2.1501  0.1957  2.1262
   19MOL   H50918905   3.683   2.534   5.058  1.9427 -2.4783 -1.4079
   19MOL   H51018906   3.789   2.164   4.790 -2.7148  1.1795  1.0300
   19MOL   H51118907   4.029   2.189   4.732  0.2367 -2.1430  0.8713
   19MOL   N51218908   3.715   3.165   6.217 -0.3306  1.0402 -0.2513
   19MOL   C51318909   3.757   3.168   6.352  0.6016 -0.0350  0.0380
   19MOL   C51418910   3.672   3.153   6.462  0.8389  0.0838 -1.2153
   19MOL   C51518911   3.719   3.140   6.596  1.2227  0.0113 -0.6160
   19MOL   C51618912   3.853   3.160   6.625  0.0007 -0.0397 -0.3285
   19MOL   N51718913   3.906   3.152   6.758  0.6115 -0.5033 -0.3592
   19MOL   C51818914   4.036   3.187   6.804 -0.7601 -0.0028 -0.5220
   19MOL   C51918915   4.102   3.303   6.753 -0.5256  0.1760  0.3778
   19MOL   C52018916   4.232   3.333   6.798 -0.6116  0.0807 -0.3572
   19MOL   C52118917   4.303   3.253   6.893  0.4784  0.0770  0.3976
   19MOL   N52218918   4.420   3.290   6.951 -0.7752 -0.3272 -0.7902
   19MOL   C52318919   4.541   3.256   6.894  0.2119 -0.0983 -0.4550
   19MOL   C52418920   4.652   3.348   6.899  0.2377 -0.9201  0.3774
   19MOL   C52518921   4.781   3.302   6.870  0.1139  0.6793  0.5475
   19MOL   C52618922   4.804   3.173   6.825 -0.8561  0.7557  0.3929
   19MOL   N52718923   4.945   3.134   6.810  0.5472  0.1389  0.3479
   19MOL   C52818924   4.987   3.026   6.735 -0.5081  0.1560 -0.2505
   19MOL   C52918925   5.105   2.949   6.769 -0.1413  0.0055  0.6051
   19MOL   C53018926   5.147   2.842   6.686 -0.4511 -0.5211 -0.3667
   19MOL   C53118927   5.066   2.805   6.581  0.4280  0.8020 -0.1526
   19MOL   C53218928   5.109   2.680   6.502 -0.4921 -0.1014  0.2146
   19MOL   C53318929   4.954   2.875   6.544  0.3727 -0.1131 -0.0744
   19MOL   C53418930   4.917   2.992   6.617 -0.2008 -0.6840  0.5894
   19MOL   C53518931   4.696   3.079   6.826 -0.1140  0.1377  0.3658
   19MOL   C53618932   4.568   3.122   6.854  0.9000 -0.7906  0.2608
   19MOL   C53718933   4.229   3.143   6.944 -0.1201  0.1271  0.4652
   19MOL   C53818934   4.103   3.103   6.901 -0.1070 -0.8480 -0.3789
   19MOL   C53918935   3.942   3.170   6.514 -0.8310  0.8674  0.1727
   19MOL   C54018936   3.894   3.173   6.378 -0.4931  0.1340  0.2413
   19MOL   H54118937   3.785   3.161   6.144  0.5088  0.2469  0.5838
   19MOL   H54218938   3.565   3.147   6.446  0.1487  4.4183  1.1387
   19MOL   H54318939   3.657   3.121   6.682  0.1285  1.2484 -1.1171
   19MOL   H54418940   3.847   3.115   6.831  0.9792  0.8100  0.6156
   19MOL   H54518941   4.042   3.364   6.688  1.0726  1.0715 -0.2933
   19MOL   H54618942   4.276   3.424   6.760  0.7313 -0.9487 -1.3272
   19MOL   H54718943   4.425   3.385   6.985  0.3756 -1.2534  1.7667
   19MOL   H54818944   4.644   3.447   6.942  1.3179  0.0183 -1.5346
   19MOL   H54918945   4.868   3.366   6.870  0.0756  0.7313  0.3837
   19MOL   H55018946   5.008   3.187   6.869 -1.8865  1.7598  1.5743
   19MOL   H55118947   5.162   2.978   6.856 -0.6896 -3.4381  2.1992
   19MOL   H55218948   5.237   2.785   6.703 -0.2045 -0.0034  0.0683
   19MOL   H55318949   5.213   2.676   6.470 -0.8671 -1.1776 -0.9002
   19MOL   H55418950   5.042   2.679   6.416  0.1503  0.2571 -0.3033
   19MOL   H55518951   4.893   2.849   6.459  1.0229  0.3610 -0.6982
   19MOL   H55618952   4.835   3.055   6.586 -0.9109 -1.2988  1.1866
   19MOL   H55718953   4.706   2.977   6.794 -0.2768  0.6910 -1.5267
   19MOL   H55818954   4.488   3.050   6.841  0.5262 -0.4127  0.4648
   19MOL   H55918955   4.277   3.095   7.028  1.7026 -1.8224 -1.6218
   19MOL   H56018956   4.067   3.013   6.948  1.6536 -1.0081  0.7085
   19MOL   H56118957   4.047   3.185   6.532 -0.5388  0.2688 -0.9851
   19MOL   H56218958   3.960   3.193   6.294 -0.0198 -0.6915  0.4156
   19MOL   N56318959   5.067   2.568   6.576  0.2564  0.0574  0.4498
   19MOL   C56418960   5.052   2.446   6.517 -0.0073  0.1673 -0.1216
   19MOL   C56518961   4.926   2.385   6.507 -0.4370  0.3267  0.4516
   19MOL   C56618962   4.923   2.249   6.482 -0.1737  0.7810  0.0070
   19MOL   C56718963   5.045   2.172   6.467 -0.2322  0.2893 -0.8278
   19MOL   N56818964   5.042   2.035   6.432 -0.1055 -0.4519 -0.4968
   19MOL   C56918965   4.950   1.938   6.464 -0.5149 -0.6988  0.1831
   19MOL   C57018966   4.863   1.946   6.572 -0.0203 -0.0534 -0.2610
   19MOL   C57118967   4.760   1.847   6.590 -0.5285 -0.0640 -0.0161
   19MOL   C57218968   4.747   1.736   6.507 -0.1249  0.6079  0.3559
   19MOL   N57318969   4.631   1.660   6.528 -0.2396  0.0556 -0.5361
   19MOL   C57418970   4.567   1.638   6.651 -0.0775  1.1122  0.0068
   19MOL   C57518971   4.641   1.622   6.764  0.4706 -0.2164 -0.5994
   19MOL   C57618972   4.579   1.583   6.885  0.1653  0.2328  0.5577
   19MOL   C57718973   4.443   1.541   6.886 -0.1061  0.2687 -0.5226
   19MOL   N57818974   4.385   1.498   7.007  0.5507 -0.1132  0.7907
   19MOL   C57918975   4.435   1.451   7.123  0.3663 -0.0035  0.6801
   19MOL   C58018976   4.359   1.449   7.245 -0.4779 -0.3672 -0.0146
   19MOL   C58118977   4.408   1.395   7.366 -0.6406  0.6492 -0.1760
   19MOL   C58218978   4.537   1.332   7.370 -0.0189  0.2146  0.2679
   19MOL   C58318979   4.593   1.283   7.497 -0.4154 -0.0307  0.3919
   19MOL   C58418980   4.608   1.323   7.246 -0.0152 -0.4465 -0.1671
   19MOL   C58518981   4.559   1.386   7.127  0.0246 -0.0532  0.1216
   19MOL   C58618982   4.363   1.568   6.773  1.0667 -0.0444 -0.7875
   19MOL   C58718983   4.428   1.604   6.651 -0.4770 -0.2589 -0.1057
   19MOL   C58818984   4.845   1.721   6.405  0.6306  0.0025 -0.4980
   19MOL   C58918985   4.943   1.819   6.385  0.6697  0.1267  0.2509
   19MOL   C59018986   5.166   2.240   6.475 -0.2762 -1.0404  0.0953
   19MOL   C59118987   5.174   2.380   6.492 -1.0231 -0.7843  0.6467
   19MOL   H59218988   4.979   2.604   6.611 -0.5841 -0.1061 -1.4252
   19MOL   H59318989   4.830   2.431   6.528 -1.3284 -0.3682 -1.8657
   19MOL   H59418990   4.824   2.205   6.480 -0.2161  0.7944  1.5191
   19MOL   H59518991   5.117   2.007   6.371 -0.5412 -0.0143 -1.2396
   19MOL   H59618992   4.868   2.038   6.630  0.8454 -0.5323  0.4425
   19MOL   H59718993   4.695   1.854   6.676  0.8768  0.3733  1.0267
   19MOL   H59818994   4.623   1.592   6.453  1.1869  0.3046 -0.9391
   19MOL   H59918995   4.747   1.642   6.758  0.1156  0.7869 -4.9932
   19MOL   H60018996   4.634   1.581   6.978  0.3230 -3.0593  0.4606
   19MOL   H60118997   4.288   1.526   7.012  0.7435  0.5543  0.7807
   19MOL   H60218998   4.263   1.500   7.239  0.3134  1.0060 -1.4377
   19MOL   H60318999   4.348   1.390   7.456 -0.1790 -1.2796  0.0486
   19MOL   H60419000   4.534   1.316   7.583 -0.9078  0.7531 -0.2316
   19MOL   H60519001   4.688   1.332   7.516 -0.3127 -0.4760  1.0339
   19MOL   H60619002   4.708   1.283   7.237  0.3830  0.9226 -2.1467
   19MOL   H60719003   4.620   1.371   7.040  1.0059  1.4828  0.5385
   19MOL   H60819004   4.256   1.556   6.767  1.0708 -0.6412  0.1481
   19MOL   H60919005   4.371   1.611   6.560  0.7079 -0.7520 -0.8918
   19MOL   H61019006   4.848   1.640   6.333 -0.8660  0.6201 -1.2799
   19MOL   H61119007   5.011   1.807   6.301 -2.4579  0.3515 -2.4086
   19MOL   H61219008   5.262   2.194   6.455  0.0241 -0.2089 -0.4087
   19MOL   H61319009   5.270   2.430   6.500 -0.6629 -0.9373 -2.1138
   19MOL   N61419010   4.613   1.140   7.493 -0.4319  0.0584  0.2645
   19MOL   C61519011   4.672   1.054   7.588  0.3395  0.0557 -0.2411
   19MOL   C61619012   4.683   0.915   7.560 -0.2317 -0.4002 -0.0909
   19MOL   C61719013   4.739   0.831   7.661  0.6719  0.1296 -0.0916
   19MOL   C61819014   4.787   0.885   7.779  0.3032 -0.2976 -0.2875
   19MOL   N61919015   4.847   0.808   7.878  0.5627 -0.1990 -0.1276
   19MOL   C62019016   4.789   0.707   7.958  0.5714  0.3453 -0.0138
   19MOL   C62119017   4.659   0.668   7.940  0.2689  0.6546 -0.1169
   19MOL   C62219018   4.608   0.565   0.045  0.1714 -0.3628 -0.1306
   19MOL   C62319019   4.680   0.519   0.156  0.0667 -0.6621  0.2365
   19MOL   N62419020   4.634   0.430   0.250 -0.1420  0.5903 -0.1673
   19MOL   C62519021   4.509   0.375   0.250  0.6842 -0.2437 -0.0327
   19MOL   C62619022   4.390   0.454   0.252  0.6555  0.0168 -0.4143
   19MOL   C62719023   4.270   0.386   0.256  0.3404  0.4482 -0.0963
   19MOL   C62819024   4.263   0.245   0.269 -0.8662 -0.3102 -0.0433
   19MOL   N62919025   4.140   0.183   0.284 -0.1621  0.0483  0.3254
   19MOL   C63019026   4.014   0.240   0.282  0.5399  0.8111 -0.1621
   19MOL   C63119027   3.932   0.241   0.400 -0.5822 -0.5413 -0.4940
   19MOL   C63219028   3.804   0.304   0.407  0.1368 -0.4777 -0.6748
   19MOL   C63319029   3.760   0.373   0.293  0.1964 -0.1027 -0.4726
   19MOL   C63419030   3.625   0.451   0.291 -0.0718 -0.7261 -0.3858
   19MOL   C63519031   3.839   0.367   0.177 -1.0783  0.1705 -0.2417
   19MOL   C63619032   3.963   0.305   0.166  0.1641  0.7999  0.1129
   19MOL   C63719033   4.382   0.164   0.258 -0.9904  0.1596  0.2985
   19MOL   C63819034   4.502   0.234   0.241  0.4086 -0.0716  0.9422
   19MOL   C63919035   4.811   0.574   0.171 -0.1035  0.1636 -0.3637
   19MOL   C64019036   4.866   0.664   0.083  0.0911  0.4136  0.1062
   19MOL   C64119037   4.767   1.019   7.810  0.4291 -0.3536  0.3032
   19MOL   C64219038   4.712   1.105   7.717  0.2554  0.2208 -0.6086
   19MOL   H64319039   4.620   1.096   7.402 -1.7525 -0.7067  0.5158
   19MOL   H64419040   4.641   0.876   7.469 -0.9684  0.7416 -0.2477
   19MOL   H64519041   4.749   0.724   7.649  2.5235 -0.0555  2.7359
   19MOL   H64619042   4.933   0.853   7.907  0.6950  0.7845 -1.9587
   19MOL   H64719043   4.611   0.705   7.851  0.8223 -0.6222 -0.9533
   19MOL   H64819044   4.509   0.531   0.020 -0.3221  0.2100  1.0390
   19MOL   H64919045   4.690   0.405   0.330 -1.5613  2.2795  1.3976
   19MOL   H65019046   4.409   0.560   0.253 -2.2938  0.5930 -1.0439
   19MOL   H65119047   4.178   0.443   0.256  0.5572  0.8057  1.0930
   19MOL   H65219048   4.143   0.095   0.332  0.2475 -0.1890 -0.1286
   19MOL   H65319049   3.976   0.200   0.490 -2.0137 -3.7351 -1.2134
   19MOL   H65419050   3.756   0.315   0.504 -0.9209 -1.8644 -1.0270
   19MOL   H65519051   3.538   0.384   0.286 -1.6842  1.4267 -2.2448
   19MOL   H65619052   3.624   0.496   0.192  0.0954  1.1365  0.4484
   19MOL   H65719053   3.804   0.421   0.090  1.1936 -0.1996 -1.4161
   19MOL   H65819054   4.011   0.290   0.070  1.9996  0.7257  1.0401
   19MOL   H65919055   4.377   0.056   0.260 -1.6871  0.2011  1.4184
   19MOL   H66019056   4.591   0.173   0.228  0.6259  0.5112 -0.4022
   19MOL   H66119057   4.873   0.543   0.253  0.5732  1.3312 -0.4162
   19MOL   H66219058   4.967   0.702   0.093  1.1373 -1.5525 -2.2994
   19MOL   H66319059   4.806   1.053   7.905 -0.7263 -0.4945  0.8265
   19MOL   H66419060   4.703   1.209   7.744  0.1034 -0.2990  1.4816
   19MOL   N66519061   3.606   0.544   0.400 -0.2865  0.0171 -0.2195
   19MOL   C66619062   3.479   0.597   0.420  0.0447 -0.0698  0.5848
   19MOL   C66719063   3.440   0.626   0.550  0.3199  0.1499  0.2481
   19MOL   C66819064   3.310   0.674   0.576  0.0008  0.4981 -0.6944
   19MOL   C66919065   3.223   0.702   0.471 -0.0116  0.8045 -0.1043
   19MOL   N67019066   3.097   0.757   0.499 -0.4340 -0.8665  0.2341
   19MOL   C67119067   3.036   0.875   0.447  0.7756  0.7882 -0.0092
   19MOL   C67219068   3.094   0.965   0.358  0.4148  0.2283  0.3930
   19MOL   C67319069   3.017   1.070   0.304  0.0166 -0.1296  0.3585
   19MOL   C67419070   2.887   1.086   0.352  0.3546 -0.3601 -0.0410
   19MOL   N67519071   2.811   1.194   0.310  0.0914 -0.4907  0.4015
   19MOL   C67619072   2.820   1.284   0.207 -0.5194  0.4076 -0.3944
   19MOL   C67719073   2.881   1.252   0.083 -0.6290 -0.1505  0.6468
   19MOL   C67819074   2.893   1.346   7.970  0.2168 -0.2792  0.9055
   19MOL   C67919075   2.850   1.480   0.008 -0.0976 -0.8500  0.8019
   19MOL   N68019076   2.868   1.578   7.893  0.4402  0.6236 -0.3614
   19MOL   C68119077   2.865   1.715   7.911 -0.1986  0.5749 -0.2970
   19MOL   C68219078   2.895   1.774   0.059 -0.2687 -0.0470  0.6582
   19MOL   C68319079   2.887   1.912   0.073 -0.2971  0.6055  0.0196
   19MOL   C68419080   2.834   1.993   7.959 -0.2560 -0.3806  0.4578
   19MOL   C68519081   2.824   2.141   7.981  0.2619  0.7057  0.3523
   19MOL   C68619082   2.792   1.939   7.837 -0.7760 -0.0303  0.1730
   19MOL   C68719083   2.810   1.795   7.814 -0.0673  0.3732  0.4770
   19MOL   C68819084   2.785   1.508   0.132  0.0087 -0.6850  0.4886
   19MOL   C68919085   2.769   1.408   0.229 -0.4556  0.4229 -0.2747
   19MOL   C69019086   2.834   1.004   0.451  0.5706 -0.1814  0.0189
   19MOL   C69119087   2.908   0.903   0.505  0.1426 -0.8770  0.2868
   19MOL   C69219088   3.258   0.682   0.337 -0.2508 -0.3497  0.5370
   19MOL   C69319089   3.389   0.625   0.316  0.2674  0.0256  0.5419
   19MOL   H69419090   3.671   0.538   0.476  1.0417 -3.1747 -1.5347
   19MOL   H69519091   3.501   0.616   0.639  1.2306  0.6540 -0.3022
   19MOL   H69619092   3.277   0.710   0.672 -0.5486  1.1202 -1.1078
   19MOL   H69719093   3.050   0.720   0.581 -1.5679 -1.8144 -0.8153
   19MOL   H69819094   3.190   0.939   0.315 -0.8458 -0.4401 -2.0902
   19MOL   H69919095   3.069   1.138   0.238 -0.6210 -1.0661 -1.1426
   19MOL   H70019096   2.738   1.223   0.374  0.1860  2.4895 -0.7631
   19MOL   H70119097   2.895   1.146   0.064 -0.3751  0.3106 -1.9117
   19MOL   H70219098   2.940   1.322   7.876 -2.3713  0.5324 -0.6636
   19MOL   H70319099   2.870   1.536   7.801  0.8188 -2.3755  0.9709
   19MOL   H70419100   2.937   1.711   0.135  0.6350 -0.6439 -0.3148
   19MOL   H70519101   2.938   1.954   0.159 -0.3122 -0.1302  0.3960
   19MOL   H70619102   2.763   2.167   0.085 -0.3192 -2.1843  0.8624
   19MOL   H70719103   2.776   2.176   7.890 -0.9464 -0.9591  0.3253
   19MOL   H70819104   2.763   2.007   7.759 -0.7408 -0.6086 -0.3501
   19MOL   H70919105   2.778   1.749   7.722 -0.1771  2.2984 -0.4666
   19MOL   H71019106   2.727   1.598   0.145 -1.9718 -1.6148 -1.5089
   19MOL   H71119107   2.713   1.436   0.317  0.6306  2.9974 -0.3561
   19MOL   H71219108   2.730   0.997   0.482 -0.2872  2.0028 -2.1667
   19MOL   H71319109   2.858   0.844   0.580  1.2001  0.5687  2.1653
   19MOL   H71419110   3.192   0.696   0.253 -1.1653 -0.3557  1.2542
   19MOL   H71519111   3.424   0.609   0.215  0.5444 -1.7049  0.8803
   19MOL   N71619112   2.953   2.206   0.005  0.1898  0.4276 -0.4925
   19MOL   C71719113   2.985   2.314   0.088  0.3117  0.6066  0.2442
   19MOL   C71819114   2.884   2.386   0.152  0.6703  0.1645 -0.2313
   19MOL   C71919115   2.912   2.508   0.220  0.1862 -0.8609 -0.6728
   19MOL   C72019116   3.044   2.549   0.231  0.1744 -0.6819  0.0313
   19MOL   N72119117   3.074   2.660   0.318  0.1421 -0.2440  0.2224
   19MOL   C72219118   3.027   2.680   0.449 -0.5361 -0.0495  0.1529
   19MOL   C72319119   3.000   2.576   0.538 -0.3669  0.3665 -0.9701
   19MOL   C72419120   2.954   2.606   0.671 -0.6866 -0.0850  0.5430
   19MOL   C72519121   2.942   2.739   0.718 -0.3952 -0.7964 -0.0742
   19MOL   N72619122   2.885   2.759   0.841  0.1311  0.0662 -0.6967
   19MOL   C72719123   2.952   2.733   0.960  0.3976  0.3247 -0.5076
   19MOL   C72819124   2.878   2.717   1.082  0.2585  0.1955 -0.0485
   19MOL   C72919125   2.938   2.706   1.205  0.0056  0.3080 -0.4704
   19MOL   C73019126   3.081   2.710   1.204  0.7527 -0.5364  0.0891
   19MOL   N73119127   3.158   2.694   1.322  0.2444  0.3323  0.1816
   19MOL   C73219128   3.113   2.679   1.455 -0.2991  0.5442  0.0541
   19MOL   C73319129   3.164   2.568   1.524  0.6466  0.6620  0.6574
   19MOL   C73419130   3.125   2.542   1.655  0.0501  0.2154 -0.1119
   19MOL   C73519131   3.018   2.614   1.709 -0.3064 -0.2485 -0.0499
   19MOL   C73619132   2.953   2.575   1.842  0.2877 -0.5768  0.4345
   19MOL   C73719133   2.970   2.730   1.654 -0.6543 -0.5669  0.6789
   19MOL   C73819134   3.010   2.756   1.520 -0.3133  0.4211 -0.1759
   19MOL   C73919135   3.155   2.732   1.087  0.1671  0.4995 -0.5648
   19MOL   C74019136   3.089   2.740   0.963 -0.0936 -0.5383  0.8309
   19MOL   C74119137   2.971   2.846   0.627  0.3023  0.0630  0.3330
   19MOL   C74219138   3.008   2.814   0.492  0.1550  0.0071 -0.0318
   19MOL   C74319139   3.153   2.468   0.184 -0.6801  0.3679  0.0744
   19MOL   C74419140   3.121   2.350   0.110 -0.0462 -0.6621  0.4146
   19MOL   H74519141   3.024   2.140   7.955 -0.3726 -0.4063 -0.0424
   19MOL   H74619142   2.781   2.368   0.127 -0.1889  2.3004  1.6985
   19MOL   H74719143   2.837   2.568   0.269  1.2216  0.3092 -0.4807
   19MOL   H74819144   3.168   2.695   0.307  0.0923  1.2942  4.0674
   19MOL   H74919145   3.027   2.475   0.508  2.7737  1.2197 -1.2718
   19MOL   H75019146   2.931   2.528   0.742 -0.4561 -1.1975 -0.5798
   19MOL   H75119147   2.847   2.853   0.846  0.2206  0.2531 -3.0369
   19MOL   H75219148   2.771   2.706   1.091  0.4311 -1.0727  0.5856
   19MOL   H75319149   2.874   2.678   1.287 -0.4951 -0.1667 -1.0180
   19MOL   H75419150   3.255   2.671   1.312  0.1611  0.7156 -1.6005
   19MOL   H75519151   3.232   2.502   1.471 -1.6501 -1.6371  0.4778
   19MOL   H75619152   3.156   2.448   1.700  2.4589  1.2777  0.5501
   19MOL   H75719153   2.928   2.470   1.825 -0.8145  0.1439 -2.9520
   19MOL   H75819154   2.861   2.625   1.872  0.6518 -0.4179  1.2843
   19MOL   H75919155   2.892   2.786   1.703 -0.6283 -0.3735  0.4958
   19MOL   H76019156   2.960   2.829   1.458 -0.9059 -0.0233 -0.2267
   19MOL   H76119157   3.262   2.745   1.093  0.0036  1.0825  1.1762
   19MOL   H76219158   3.151   2.732   0.875  0.3275 -1.8772  1.2457
   19MOL   H76319159   2.968   2.947   0.664  1.3987  0.3106 -0.2270
   19MOL   H76419160   3.028   2.900   0.430 -0.4194 -0.3071 -0.6587
   19MOL   H76519161   3.256   2.501   0.190 -0.9865  1.3654  0.0005
   19MOL   H76619162   3.195   2.289   0.062  1.0218 -0.2780  1.5504
   19MOL   N76719163   3.049   2.591   1.951  0.5432 -0.1840 -0.8049
   19MOL   C76819164   3.049   2.488   2.044 -0.1141  0.0665 -0.2341
   19MOL   C76919165   2.934   2.419   2.086 -0.9099 -0.4177 -0.2289
   19MOL   C77019166   2.947   2.302   2.169  0.7416 -0.2851 -0.3293
   19MOL   C77119167   3.075   2.259   2.214  0.5097  0.5614  0.2048
   19MOL   N77219168   3.093   2.151   2.305  0.3836 -0.6897 -0.2154
   19MOL   C77319169   2.993   2.068   2.352  0.2314  0.1070 -0.0685
   19MOL   C77419170   2.968   2.048   2.485 -0.8100  0.0537  0.0705
   19MOL   C77519171   2.889   1.932   2.529 -0.2341 -0.6556 -0.1730
   19MOL   C77619172   2.816   1.863   2.430  0.5513  0.3371 -0.0273
   19MOL   N77719173   2.739   1.749   2.466 -0.8011 -0.2756  0.2230
   19MOL   C77819174   2.724   1.693   2.591  0.0886  0.4100 -0.8427
   19MOL   C77919175   2.728   1.547   2.604  0.4106  0.4081 -0.3031
   19MOL   C78019176   2.731   1.485   2.735 -0.2369  0.2038  0.1756
   19MOL   C78119177   2.712   1.564   2.847 -0.3189  0.0775 -0.3128
   19MOL   N78219178   2.736   1.513   2.972 -0.2381  0.2829 -0.3417
   19MOL   C78319179   2.757   1.380   3.009  0.1544  0.7913  0.2430
   19MOL   C78419180   2.687   1.264   2.955  0.3326  0.5569  0.1153
   19MOL   C78519181   2.725   1.130   2.991  0.3246  0.4039  0.3313
   19MOL   C78619182   2.831   1.115   3.085  0.2836  0.7095 -0.6520
   19MOL   C78719183   2.887   0.977   3.122  0.3578  0.2303  0.1927
   19MOL   C78819184   2.882   1.230   3.149 -0.1016 -0.3818  0.0757
   19MOL   C78919185   2.846   1.359   3.112 -0.3414 -0.3639 -0.4820
   19MOL   C79019186   2.697   1.700   2.834 -0.2357  0.0892  0.5337
   19MOL   C79119187   2.707   1.765   2.708 -0.1385 -0.1988  0.5578
   19MOL   C79219188   2.815   1.909   2.295 -0.1444 -0.3493  0.4301
   19MOL   C79319189   2.918   1.999   2.258 -0.3835  0.0751  0.5286
   19MOL   C79419190   3.185   2.339   2.179 -0.3950  0.2094 -0.0573
   19MOL   C79519191   3.178   2.443   2.088  0.2199  0.4261  0.0943
   19MOL   H79619192   3.141   2.620   1.922 -0.2313  1.6847 -1.4450
   19MOL   H79719193   2.838   2.454   2.052 -1.0422 -0.7381 -0.1840
   19MOL   H79819194   2.856   2.249   2.194  0.2457  1.0864  0.8044
   19MOL   H79919195   3.182   2.159   2.352  0.2296  1.4037 -0.2593
   19MOL   H80019196   3.030   2.100   2.556  1.5277 -2.4776 -0.0082
   19MOL   H80119197   2.904   1.901   2.631 -1.4010  1.9817  0.8275
   19MOL   H80219198   2.677   1.716   2.393  1.7543 -1.9255 -1.2691
   19MOL   H80319199   2.750   1.492   2.514  1.0536 -0.9852  0.6959
   19MOL   H80419200   2.756   1.380   2.743  0.9056  0.4021 -0.6951
   19MOL   H80519201   2.751   1.586   3.041  0.1562  1.0204 -1.2039
   19MOL   H80619202   2.611   1.281   2.880  1.9141 -2.1606 -2.2038
   19MOL   H80719203   2.671   1.046   2.951  2.9687 -1.5891  0.7726
   19MOL   H80819204   2.863   0.909   3.041 -2.0698 -0.3998  1.3706
   19MOL   H80919205   2.815   0.937   3.194 -0.4099 -1.1701 -1.3297
   19MOL   H81019206   2.964   1.225   3.220  0.1425  1.9091 -0.0248
   19MOL   H81119207   2.893   1.441   3.164 -3.2429  1.4303 -0.5494
   19MOL   H81219208   2.683   1.763   2.921  0.6462 -0.2049  0.8950
   19MOL   H81319209   2.684   1.869   2.693  0.6200 -0.2737 -1.1700
   19MOL   H81419210   2.761   1.861   2.215 -0.6615 -1.8956  1.6638
   19MOL   H81519211   2.929   2.022   2.153 -1.2820 -0.8814  0.2214
   19MOL   H81619212   3.279   2.318   2.227  0.3312 -0.1477 -1.5875
   19MOL   H81719213   3.267   2.501   2.068 -0.6651  1.8490  0.1834
   19MOL   N81819214   3.026   0.965   3.165 -0.1927  0.2110 -0.4679
   19MOL   C81919215   3.062   0.989   3.301 -0.4150 -0.6857  0.0967
   19MOL   C82019216   3.192   0.962   3.345 -0.3801 -0.1403 -0.5201
   19MOL   C82119217   3.233   0.987   3.482 -0.1938 -0.3344 -0.2998
   19MOL   C82219218   3.134   1.022   3.572  0.1408  0.2375  0.6458
   19MOL   N82319219   3.171   1.051   3.701 -0.6437  0.3745 -0.2323
   19MOL   C82419220   3.278   1.128   3.749  0.6936 -0.5114  0.0934
   19MOL   C82519221   3.293   1.130   3.892  0.2834 -0.0546  0.8318
   19MOL   C82619222   3.399   1.206   3.955 -0.0458 -0.5331 -0.0670
   19MOL   C82719223   3.479   1.285   3.872  0.3416 -0.0978  0.2915
   19MOL   N82819224   3.571   1.368   3.934  0.1163 -0.1302  0.0900
   19MOL   C82919225   3.656   1.339   4.039  0.0913 -0.0782  0.5442
   19MOL   C83019226   3.699   1.211   4.077  0.1421  0.0921  0.1856
   19MOL   C83119227   3.794   1.196   4.183 -0.4275 -0.4194 -0.1575
   19MOL   C83219228   3.849   1.305   4.254 -0.0619 -0.4586  0.4973
   19MOL   N83319229   3.933   1.287   4.357 -0.8154  0.1027  0.2568
   19MOL   C83419230   3.942   1.174   4.439 -0.4476  0.4944 -0.1728
   19MOL   C83519231   3.860   1.154   4.553  0.1470 -0.1245 -0.3673
   19MOL   C83619232   3.854   1.025   4.614 -0.7411 -0.3606  0.3063
   19MOL   C83719233   3.934   0.923   4.571  0.4921 -0.0727  0.4559
   19MOL   C83819234   3.918   0.783   4.640  0.2001 -0.3463 -0.7546
   19MOL   C83919235   4.028   0.944   4.472 -0.6626 -0.0396  0.3320
   19MOL   C84019236   4.024   1.062   4.396 -0.2680 -0.8707 -0.0745
   19MOL   C84119237   3.813   1.433   4.210  0.5461  0.1193  0.3265
   19MOL   C84219238   3.716   1.450   4.106 -0.1992  0.2751 -0.4654
   19MOL   C84319239   3.465   1.286   3.728 -0.5723 -0.0372 -0.3715
   19MOL   C84419240   3.366   1.205   3.668 -0.0970  0.1613  1.1988
   19MOL   C84519241   3.004   1.033   3.538 -0.1667  0.2391  0.2148
   19MOL   C84619242   2.968   1.024   3.403 -0.3082  0.5918  0.4779
   19MOL   H84719243   3.088   0.931   3.094 -1.3494  0.9147 -1.8360
   19MOL   H84819244   3.267   0.941   3.270  0.5935 -0.7272  0.6061
   19MOL   H84919245   3.340   0.991   3.494 -0.2869  3.2355 -0.4062
   19MOL   H85019246   3.137   0.981   3.766 -0.1315  0.2981 -0.0441
   19MOL   H85119247   3.215   1.085   3.951  0.1490 -0.0454  0.6585
   19MOL   H85219248   3.408   1.217   4.062 -2.0296  0.2333  0.0459
   19MOL   H85319249   3.561   1.463   3.900 -0.7609 -0.6765 -1.2205
   19MOL   H85419250   3.653   1.125   4.031 -1.4047  0.7210  0.5378
   19MOL   H85519251   3.809   1.093   4.214 -0.0661 -0.7213 -1.2734
   19MOL   H85619252   3.954   1.379   4.393  2.8087 -0.8324  0.8060
   19MOL   H85719253   3.788   1.231   4.577  1.8783  1.2223  0.6085
   19MOL   H85819254   3.784   1.007   4.695 -1.4471  0.6308 -0.0770
   19MOL   H85919255   3.946   0.799   4.744 -0.1436 -1.5982 -0.4596
   19MOL   H86019256   4.004   0.720   4.617  0.0429 -0.6546 -0.4952
   19MOL   H86119257   4.087   0.857   4.449 -0.6865  0.0150  0.0510
   19MOL   H86219258   4.084   1.074   4.307 -3.5986  0.4734 -2.2572
   19MOL   H86319259   3.862   1.514   4.261 -1.5365  2.7295 -1.7006
   19MOL   H86419260   3.700   1.549   4.067 -1.2415 -0.0143 -0.7806
   19MOL   H86519261   3.524   1.356   3.672  0.9356 -0.5521  0.5446
   19MOL   H86619262   3.363   1.206   3.560  0.0235  1.8318  1.2048
   19MOL   H86719263   2.926   1.056   3.609  0.7274  2.3509  0.5460
   19MOL   H86819264   2.864   1.042   3.380 -0.6839 -0.9354  0.9724
   19MOL   N86919265   3.790   0.725   4.618 -0.0802 -0.7209 -0.5920
   19MOL   C87019266   3.758   0.608   4.690  0.1741  0.4448 -0.4099
   19MOL   C87119267   3.748   0.607   4.829  0.5097 -0.5336 -0.5789
   19MOL   C87219268   3.721   0.486   4.893 -0.9033 -1.3237 -0.8573
   19MOL   C87319269   3.708   0.365   4.827  0.2838 -0.0719  1.0292
   19MOL   N87419270   3.702   0.247   4.914 -0.1044 -0.0662  0.2197
   19MOL   C87519271   3.715   0.114   4.879  1.0563 -0.1568  0.1626
   19MOL   C87619272   3.615   0.059   4.800 -0.8973 -0.0421 -0.5614
   19MOL   C87719273   3.622   7.910   4.757 -0.1239  0.1363  0.0797
   19MOL   C87819274   3.725   7.830   4.804 -0.1915  0.5472 -0.7961
   19MOL   N87919275   3.731   7.692   4.782 -0.3832  0.1815  0.2546
   19MOL   C88019276   3.732   7.599   4.892 -0.3433 -0.0469  0.5715
   19MOL   C88119277   3.767   7.463   4.870  0.2415  0.1181 -0.2549
   19MOL   C88219278   3.778   7.375   4.975 -0.0214 -0.9058 -0.2060
   19MOL   C88319279   3.745   7.422   5.102 -0.1155 -0.0199 -0.7320
   19MOL   N88419280   3.755   7.343   5.218 -0.2910  0.4962 -0.1341
   19MOL   C88519281   3.732   7.203   5.222 -0.0010  0.5565  0.7287
   19MOL   C88619282   3.662   7.122   5.122  0.2246  0.1717 -0.6801
   19MOL   C88719283   3.662   6.979   5.138 -0.0355 -0.0101 -0.1115
   19MOL   C88819284   3.734   6.920   5.246 -0.1910 -0.7246  0.2438
   19MOL   C88919285   3.732   6.770   5.253 -0.1070  0.4351 -0.0372
   19MOL   C89019286   3.800   7.004   5.337 -0.7452  0.9328 -0.4907
   19MOL   C89119287   3.792   7.140   5.330  0.7879  1.0024  0.3968
   19MOL   C89219288   3.704   7.555   5.127  0.5191  0.2887 -0.1509
   19MOL   C89319289   3.696   7.639   5.019  0.3701  0.5893 -0.5551
   19MOL   C89419290   3.832   7.883   4.874  0.7291 -0.2480 -0.3534
   19MOL   C89519291   3.827   0.037   4.911 -0.2400 -0.4179  0.9239
   19MOL   C89619292   3.720   0.355   4.686  0.1526  0.5133 -0.2219
   19MOL   C89719293   3.748   0.481   4.622  0.3123  0.0611  0.1973
   19MOL   H89819294   3.766   0.726   4.520 -0.9391 -2.3635 -0.4021
   19MOL   H89919295   3.762   0.705   4.874  0.0952 -1.0906  0.7975
   19MOL   H90019296   3.721   0.488   5.001  1.7316 -0.2785 -0.8237
   19MOL   H90119297   3.738   0.257   5.008  1.6999  1.5050 -0.6108
   19MOL   H90219298   3.529   0.119   4.776 -0.4082  2.1958  2.8474
   19MOL   H90319299   3.540   7.870   4.699  0.1353 -2.5518  1.4759
   19MOL   H90419300   3.672   7.661   4.706 -1.7644  1.5381  0.7652
   19MOL   H90519301   3.811   7.434   4.776  2.0857  1.0469  0.3193
   19MOL   H90619302   3.819   7.275   4.966  3.3271  0.3328  0.4753
   19MOL   H90719303   3.776   7.378   5.310  1.9495 -0.4926 -0.2167
   19MOL   H90819304   3.605   7.169   5.043 -1.0486 -0.7350 -0.3174
   19MOL   H90919305   3.612   6.912   5.070 -1.2687  0.9154 -0.1210
   19MOL   H91019306   3.632   6.732   5.273  0.2716 -0.8096 -0.4786
   19MOL   H91119307   3.788   6.737   5.340 -1.0778 -0.4596  0.2502
   19MOL   H91219308   3.859   6.959   5.416 -0.0680  1.5902 -0.6184
   19MOL   H91319309   3.838   7.189   5.415  1.4207  1.5352 -0.2466
   19MOL   H91419310   3.689   7.599   5.224  1.2239  0.0248  0.0859
   19MOL   H91519311   3.664   7.740   5.041  1.5229  1.2530 -1.8571
   19MOL   H91619312   3.926   7.836   4.899  1.1114  1.1015  0.8501
   19MOL   H91719313   3.910   0.086   4.960 -0.4339 -0.3328  1.1673
   19MOL   H91819314   3.714   0.266   4.626  0.1498  1.6795 -1.9972
   19MOL   H91919315   3.756   0.480   4.514  1.0542 -2.3164  0.2359
   19MOL   N92019316   3.795   6.702   5.140  0.0705  0.2312 -0.0291
   19MOL   C92119317   3.806   6.561   5.149 -0.4290  0.5374 -0.1262
   19MOL   C92219318   3.845   6.495   5.267  0.2518  0.0214  0.2936
   19MOL   C92319319   3.854   6.356   5.275  0.0556  0.6768  0.2359
   19MOL   C92419320   3.846   6.281   5.154 -0.4613  0.1902 -0.6426
   19MOL   N92519321   3.876   6.142   5.158 -0.3673 -0.9471  0.1705
   19MOL   C92619322   3.850   6.039   5.063 -0.0554 -0.2903 -0.6482
   19MOL   C92719323   3.945   5.939   5.036  0.3977 -0.2039 -0.3298
   19MOL   C92819324   3.931   5.840   4.940 -0.7457 -0.1985  0.6529
   19MOL   C92919325   3.817   5.840   4.860  0.1182  0.5075 -0.2216
   19MOL   N93019326   3.802   5.750   4.761  0.3413 -0.6274  0.2420
   19MOL   C93119327   3.904   5.690   4.682  0.3299  0.3937 -0.3117
   19MOL   C93219328   3.864   5.565   4.623  0.6985 -0.3167  0.0771
   19MOL   C93319329   3.946   5.498   4.537 -0.3202 -0.3276 -0.5215
   19MOL   C93419330   4.075   5.546   4.518  0.5876  0.0340 -0.0786
   19MOL   N93519331   4.157   5.465   4.439  0.2950 -0.2556  0.1414
   19MOL   C93619332   4.172   5.470   4.300  0.4327 -0.2319  0.1688
   19MOL   C93719333   4.149   5.583   4.221  0.3319 -0.4099 -0.6250
   19MOL   C93819334   4.163   5.577   4.083  0.5089 -0.1245 -0.4944
   19MOL   C93919335   4.209   5.461   4.017 -0.8428 -0.5361  0.4457
   19MOL   C94019336   4.227   5.459   3.871  0.0346  0.3689  0.5282
   19MOL   C94119337   4.244   5.346   4.088  0.0989 -0.9169 -0.7564
   19MOL   C94219338   4.221   5.353   4.229  0.3434 -0.8948 -0.0064
   19MOL   C94319339   4.124   5.669   4.576  0.1293  0.5874 -0.7489
   19MOL   C94419340   4.033   5.740   4.658  0.0312  0.4543  0.1733
   19MOL   C94519341   3.715   5.939   4.886 -0.0265  0.1747  0.3104
   19MOL   C94619342   3.731   6.036   4.989  0.2307 -0.3731 -0.0587
   19MOL   C94719343   3.818   6.345   5.031 -0.1568  0.0664  0.3437
   19MOL   C94819344   3.805   6.486   5.031 -0.8230  0.0301 -0.2237
   19MOL   H94919345   3.767   6.740   5.051  0.1973 -0.3426 -0.3185
   19MOL   H95019346   3.877   6.541   5.359 -1.8914 -0.0345  1.1044
   19MOL   H95119347   3.892   6.296   5.356 -1.1397  0.7237  0.8296
   19MOL   H95219348   3.935   6.114   5.235  0.0446  2.6011  1.2191
   19MOL   H95319349   4.039   5.933   5.089 -0.2389 -0.1664  0.8335
   19MOL   H95419350   4.008   5.767   4.919 -1.4895 -0.2757 -2.0063
   19MOL   H95519351   3.707   5.735   4.730  0.2655  1.5616 -0.6418
   19MOL   H95619352   3.770   5.518   4.648 -0.2570  1.8802  0.7246
   19MOL   H95719353   3.917   5.404   4.492  1.9674 -0.3396 -2.0533
   19MOL   H95819354   4.163   5.373   4.481  1.1898 -0.6605 -0.8488
   19MOL   H95919355   4.116   5.676   4.265 -0.2485 -1.4745  1.2533
   19MOL   H96019356   4.141   5.661   4.018  2.5163  0.2168 -0.7806
   19MOL   H96119357   4.162   5.533   3.825  0.4114 -0.4171 -1.3143
   19MOL   H96219358   4.195   5.361   3.837  1.3733  0.1861 -0.2622
   19MOL   H96319359   4.279   5.258   4.036  3.1325 -1.2939  1.7503
   19MOL   H96419360   4.242   5.268   4.292 -0.5176 -0.9880  0.1573
   19MOL   H96519361   4.223   5.710   4.562  1.9209 -2.2110  2.8806
   19MOL   H96619362   4.070   5.834   4.697  2.0199  0.4271 -1.5169
   19MOL   H96719363   3.631   5.959   4.821 -0.8837  1.9215  1.9121
   19MOL   H96819364   3.648   6.105   4.997 -0.7672 -1.4643 -0.6837
   19MOL   H96919365   3.816   6.280   4.946  0.3629 -0.9871  1.1260
   19MOL   H97019366   3.788   6.537   4.937 -1.2905 -1.3035 -0.8951
   19MOL   N97119367   4.362   5.502   3.829 -0.2144  0.7577 -0.1057
   19MOL   C97219368   4.404   5.457   3.704 -0.5711 -0.0672 -1.2349
   19MOL   C97319369   4.543   5.466   3.677  0.3862  0.3330  0.0602
   19MOL   C97419370   4.588   5.434   3.548  0.1266  0.2154  0.6382
   19MOL   C97519371   4.494   5.404   3.446  0.1939  0.1597 -0.0809
   19MOL   N97619372   4.536   5.379   3.316  0.0574 -0.6110 -0.2055
   19MOL   C97719373   4.623   5.467   3.238 -0.5540  0.1821 -0.6135
   19MOL   C97819374   4.665   5.409   3.119 -0.4543  0.5377  0.3267
   19MOL   C97919375   4.731   5.492   3.027 -0.1027  0.8329  0.0080
   19MOL   C98019376   4.768   5.624   3.057 -0.0787 -0.1208  0.5147
   19MOL   N98119377   4.833   5.701   2.957  0.5608 -0.4911  0.1829
   19MOL   C98219378   4.803   5.830   2.912  0.0919  0.3808 -0.1923
   19MOL   C98319379   4.689   5.900   2.943  0.7724 -0.4931 -0.6177
   19MOL   C98419380   4.661   6.027   2.899  0.2882 -0.2048  0.8050
   19MOL   C98519381   4.755   6.095   2.824 -0.3862 -0.4962 -0.3548
   19MOL   N98619382   4.739   6.234   2.802  0.5515  0.3353 -0.5971
   19MOL   C98719383   4.832   6.333   2.757  1.1942 -0.5095 -0.2391
   19MOL   C98819384   4.772   6.448   2.695 -0.4458 -0.0307 -0.4354
   19MOL   C98919385   4.852   6.548   2.635  0.6810  0.2479  0.0915
   19MOL   C99019386   4.994   6.544   2.650 -0.6453 -0.2373 -0.1765
   19MOL   C99119387   5.078   6.669   2.615  0.3442  0.5324 -0.1510
   19MOL   C99219388   5.046   6.436   2.723  0.3572 -0.4873  0.4440
   19MOL   C99319389   4.965   6.331   2.777  0.2102 -0.2433  0.2008
   19MOL   C99419390   4.866   6.023   2.779 -1.1826 -0.3001  0.1107
   19MOL   C99519391   4.885   5.894   2.816  0.6385  0.5168  0.0078
   19MOL   C99619392   4.725   5.681   3.176  0.4739  0.0201  0.7029
   19MOL   C99719393   4.657   5.603   3.269  0.3226 -0.4047 -0.1640
   19MOL   C99819394   4.357   5.396   3.475 -0.3561  0.7619 -0.2411
   19MOL   C99919395   4.313   5.414   3.608 -0.2025  0.3448 -0.0196
   19MOL     H119396   4.432   5.518   3.900 -0.7865  0.2658  0.5800
   19MOL     H219397   4.612   5.511   3.747  0.6160 -0.4704  0.3545
   19MOL     H319398   4.692   5.450   3.525  0.4084  0.1849  1.8409
   19MOL     H419399   4.456   5.348   3.263  0.2816 -0.6056 -0.5460
   19MOL     H519400   4.641   5.309   3.087 -0.8344 -0.3373  3.1530
   19MOL     H619401   4.763   5.452   2.932 -0.3965  2.9878 -1.0405
   19MOL     H719402   4.883   5.640   2.894  0.6995 -0.2343  0.0420
   19MOL     H819403   4.612   5.855   3.005  1.1383 -1.1467 -0.6350
   19MOL     H919404   4.571   6.082   2.920  0.8429  0.4854  1.3932
   19MOL    H1019405   4.642   6.264   2.805 -0.3273 -2.4873  0.6470
   19MOL    H1119406   4.664   6.451   2.695 -0.5383 -1.0625  2.9336
   19MOL    H1219407   4.805   6.631   2.585 -3.0644 -1.9256 -0.2225
   19MOL    H1319408   5.176   6.659   2.661  0.3600 -0.0808 -0.3150
   19MOL    H1419409   5.030   6.764   2.638 -0.4323  0.2135 -0.4435
   19MOL    H1519410   5.154   6.431   2.734  0.3480  0.4145  1.0452
   19MOL    H1619411   5.017   6.250   2.827 -2.2954 -2.3891 -0.5509
   19MOL    H1719412   4.942   6.069   2.717 -1.3877  0.4419  0.4097
   19MOL    H1819413   4.967   5.836   2.775 -0.3267 -0.4445 -0.6008
   19MOL    H1919414   4.750   5.784   3.201  0.2743 -0.1115  1.4552
   19MOL    H2019415   4.624   5.648   3.361  1.3088 -0.2778  0.1324
   19MOL    H2119416   4.287   5.379   3.395  0.7567 -0.6054 -0.9539
   19MOL    H2219417   4.205   5.418   3.617 -0.2869 -2.1751  0.4416
   19MOL    H2319418   5.086   6.663   2.506  0.5442 -2.9712  0.0171
   20MOL     N119419   7.026   0.852   5.010  0.2440  0.3724 -0.2926
   20MOL     C219420   6.984   0.883   5.136 -0.3951 -0.0121  0.0797
   20MOL     C319421   7.065   0.962   5.220 -0.1670  0.3329 -1.1236
   20MOL     C419422   7.021   1.003   5.349 -0.5408  0.0736  0.4789
   20MOL     C519423   6.902   0.951   5.405 -0.0253  0.1105  0.0498
   20MOL     N619424   6.877   1.001   5.534 -0.0109 -0.3380  0.6160
   20MOL     C719425   6.784   0.959   5.631 -0.0223  0.0844 -0.3599
   20MOL     C819426   6.716   0.840   5.637  0.3992 -0.4835  0.3170
   20MOL     C919427   6.621   0.823   5.741  0.8911 -0.6101  0.1559
   20MOL    C1019428   6.594   0.921   5.836  0.2493 -0.2916  0.1078
   20MOL    N1119429   6.498   0.901   5.934  0.0075 -0.2417  0.0074
   20MOL    C1219430   6.432   0.993   6.016 -0.4388  1.0095 -0.7165
   20MOL    C1319431   6.366   0.947   6.135  0.1291 -0.0810 -0.2224
   20MOL    C1419432   6.289   1.040   6.212  0.6937  0.0324 -0.0102
   20MOL    C1519433   6.283   1.171   6.171 -0.1402 -0.0198  0.0653
   20MOL    N1619434   6.200   1.262   6.248 -0.2036  0.0052 -0.1590
   20MOL    C1719435   6.179   1.401   6.243 -0.0328  0.4374  0.6353
   20MOL    C1819436   6.277   1.499   6.214 -0.3620  0.3181  1.2666
   20MOL    C1919437   6.249   1.631   6.248 -0.2930 -0.2767  0.1623
   20MOL    C2019438   6.126   1.668   6.307 -0.2632 -0.9999 -0.0222
   20MOL    C2119439   6.090   1.814   6.333  0.0208 -0.0401  0.0067
   20MOL    C2219440   6.029   1.571   6.326  0.5034 -0.3362  0.5508
   20MOL    C2319441   6.051   1.439   6.288 -0.6229 -0.3294 -0.2326
   20MOL    C2419442   6.345   1.215   6.054  0.1505 -0.3486 -0.5471
   20MOL    C2519443   6.420   1.126   5.976 -0.4397  0.3270  0.3661
   20MOL    C2619444   6.673   1.033   5.833 -0.9402 -0.1984 -0.1281
   20MOL    C2719445   6.760   1.056   5.730  0.2549 -0.7128  0.3046
   20MOL    C2819446   6.832   0.849   5.334  0.3548 -0.4927  0.8378
   20MOL    C2919447   6.884   0.817   5.204 -0.3248  0.5245 -0.2588
   20MOL    H3019448   7.100   0.909   4.973  1.5564 -0.0735  1.5724
   20MOL    H3119449   7.155   1.003   5.177 -2.2745  3.5990 -2.5520
   20MOL    H3219450   7.093   1.062   5.404  0.3672  0.9876 -1.6534
   20MOL    H3319451   6.933   1.083   5.553 -1.2350  0.5162  0.5823
   20MOL    H3419452   6.731   0.758   5.568  2.2649 -0.2836  0.4630
   20MOL    H3519453   6.566   0.731   5.756 -1.1775  0.6971  0.7972
   20MOL    H3619454   6.484   0.801   5.948 -0.2235 -0.3465 -0.9600
   20MOL    H3719455   6.382   0.843   6.161  1.3853  0.3883  0.9638
   20MOL    H3819456   6.245   1.006   6.304 -0.6730 -0.3561 -0.8011
   20MOL    H3919457   6.139   1.212   6.312  1.7971 -2.1932  0.1325
   20MOL    H4019458   6.369   1.477   6.162 -0.9354 -1.0067  0.7843
   20MOL    H4119459   6.324   1.709   6.238  1.2601 -1.4920  2.0734
   20MOL    H4219460   6.157   1.870   6.268 -1.2485  0.9070 -0.5092
   20MOL    H4319461   6.127   1.831   6.434 -0.3763  0.2388  0.1082
   20MOL    H4419462   5.930   1.588   6.364  0.4062 -1.1504  0.6752
   20MOL    H4519463   5.970   1.368   6.301 -0.6407 -0.1242  0.7693
   20MOL    H4619464   6.342   1.316   6.018 -0.7273 -0.4378 -0.7305
   20MOL    H4719465   6.453   1.172   5.884  3.6504 -0.7765  1.2013
   20MOL    H4819466   6.674   1.104   5.914  1.5755  0.4032 -0.6642
   20MOL    H4919467   6.815   1.148   5.737  0.4569 -0.6382 -1.9050
   20MOL    H5019468   6.741   0.801   5.367  0.1700 -1.6187 -1.2343
   20MOL    H5119469   6.828   0.740   5.153 -0.5397  1.0515 -0.8198
   20MOL    H5219470   7.005   0.764   4.966 -2.2209  0.3113  0.8901
   20MOL    N5319471   5.949   1.865   6.328  0.1933 -0.4235 -0.2761
   20MOL    C5419472   5.926   1.986   6.388 -0.1079 -0.4073 -0.2937
   20MOL    C5519473   5.805   1.994   6.460 -0.3531 -0.2033 -0.3323
   20MOL    C5619474   5.768   2.111   6.528 -0.3316 -0.2043 -0.5804
   20MOL    C5719475   5.849   2.229   6.522 -0.6816  0.5741 -0.7933
   20MOL    N5819476   5.814   2.347   6.589 -0.3656  0.4968 -0.0298
   20MOL    C5919477   5.686   2.383   6.643 -0.1951  0.2441  0.0805
   20MOL    C6019478   5.629   2.310   6.748  0.1640 -0.0118 -0.6942
   20MOL    C6119479   5.510   2.355   6.806 -0.6088 -0.6090 -0.3337
   20MOL    C6219480   5.435   2.465   6.752  0.0018  0.2340 -0.6254
   20MOL    N6319481   5.315   2.510   6.809  0.1455  0.2104 -0.3474
   20MOL    C6419482   5.291   2.548   6.939 -0.5383  0.0390 -0.0722
   20MOL    C6519483   5.400   2.559   7.029 -0.4545  0.1222  0.2320
   20MOL    C6619484   5.367   2.612   7.156  0.3019  0.1507  0.5676
   20MOL    C6719485   5.232   2.665   7.187  0.3364 -0.0048  0.1656
   20MOL    N6819486   5.203   2.725   7.307 -0.8662  0.1850  0.2631
   20MOL    C6919487   5.199   2.646   7.428  0.9084 -0.0501  0.2738
   20MOL    C7019488   5.229   2.710   7.551 -0.4103  0.3688  0.5502
   20MOL    C7119489   5.219   2.635   7.670  1.0016  0.2252  0.3086
   20MOL    C7219490   5.181   2.502   7.668 -0.0973 -0.0537  0.7184
   20MOL    C7319491   5.158   2.433   7.796  0.4072 -0.6598  0.1121
   20MOL    C7419492   5.158   2.433   7.546 -0.1721 -0.0657 -0.5614
   20MOL    C7519493   5.163   2.511   7.426  0.5089  0.9203  0.1970
   20MOL    C7619494   5.124   2.645   7.096 -0.2118 -0.1736 -0.3042
   20MOL    C7719495   5.160   2.585   6.972 -0.0900 -0.3143 -0.2377
   20MOL    C7819496   5.492   2.531   6.640 -0.3673  0.0063  0.5178
   20MOL    C7919497   5.617   2.490   6.587  0.3654 -0.5191 -0.3168
   20MOL    C8019498   5.972   2.216   6.458 -0.3145  0.1241 -0.1128
   20MOL    C8119499   6.007   2.101   6.379 -0.4320  0.2805 -0.5823
   20MOL    H8219500   5.881   1.802   6.371 -0.8119 -0.4223 -1.8284
   20MOL    H8319501   5.747   1.906   6.480 -0.0015 -0.4949 -0.5877
   20MOL    H8419502   5.680   2.113   6.590  1.7369  0.7719  2.4496
   20MOL    H8519503   5.875   2.426   6.578 -0.1186  0.2504 -0.4247
   20MOL    H8619504   5.682   2.234   6.804 -0.0183  2.8118  3.5447
   20MOL    H8719505   5.487   2.298   6.895 -0.2231 -0.2303  0.0130
   20MOL    H8819506   5.249   2.545   6.741 -0.2026  4.1157  1.8913
   20MOL    H8919507   5.502   2.535   7.004 -1.3171  0.1482 -3.5710
   20MOL    H9019508   5.452   2.629   7.221  0.7698  1.4566 -0.3598
   20MOL    H9119509   5.256   2.809   7.324  1.2355 -0.7545 -1.4308
   20MOL    H9219510   5.241   2.817   7.555  0.9224  0.2672 -0.4366
   20MOL    H9319511   5.243   2.693   7.758 -1.3119  2.2283 -0.3487
   20MOL    H9419512   5.077   2.360   7.793 -0.7322  0.4776  1.8900
   20MOL    H9519513   5.127   2.512   7.864  2.0539 -0.5618  0.7785
   20MOL    H9619514   5.144   2.326   7.548 -0.9731  0.0513  0.4930
   20MOL    H9719515   5.139   2.466   7.331  0.9572  1.2516 -0.0750
   20MOL    H9819516   5.022   2.671   7.122  0.0220  0.2059  0.2484
   20MOL    H9919517   5.081   2.562   6.902 -0.0316 -1.1130 -0.0467
   20MOL   H10019518   5.449   2.615   6.588  2.8406  0.1221 -2.1502
   20MOL   H10119519   5.658   2.537   6.499 -1.0616 -1.6901 -1.6257
   20MOL   H10219520   6.042   2.298   6.456  0.7022 -0.7454 -0.4002
   20MOL   H10319521   6.100   2.095   6.325 -0.5278  0.4058 -0.7587
   20MOL   N10419522   5.281   2.375   7.852 -0.4233  0.6560  0.2331
   20MOL   C10519523   5.290   2.319   7.982 -0.0733 -0.9025  0.3841
   20MOL   C10619524   5.416   2.273   0.042  0.7517  0.2616  0.3959
   20MOL   C10719525   5.428   2.229   0.174  0.1424  0.6964 -0.4747
   20MOL   C10819526   5.312   2.207   0.260  0.7364 -0.1207  0.0399
   20MOL   N10919527   5.311   2.154   0.390 -0.8530  0.5485  0.7297
   20MOL   C11019528   5.406   2.188   0.489 -0.3732  0.1889  0.3421
   20MOL   C11119529   5.402   2.138   0.617 -0.0411  0.0216  0.0208
   20MOL   C11219530   5.509   2.162   0.704  0.2298 -0.2979  0.4784
   20MOL   C11319531   5.618   2.243   0.672 -0.0962 -0.3045  0.3224
   20MOL   N11419532   5.700   2.278   0.779 -0.4266 -0.4914  0.1310
   20MOL   C11519533   5.797   2.381   0.772 -0.2224  0.5557  0.2403
   20MOL   C11619534   5.765   2.515   0.747  0.5155 -0.4439 -0.0112
   20MOL   C11719535   5.866   2.616   0.754  0.0406  0.0233 -0.5730
   20MOL   C11819536   6.000   2.585   0.763 -0.1923  0.3675  0.3386
   20MOL   N11919537   6.106   2.671   0.748 -0.0900  0.2006  0.4393
   20MOL   C12019538   6.120   2.805   0.772 -0.1244 -0.7807 -0.3358
   20MOL   C12119539   6.025   2.877   0.847  0.5482  0.5618 -0.6251
   20MOL   C12219540   6.049   3.011   0.879 -0.2376 -0.1895  0.2079
   20MOL   C12319541   6.165   3.085   0.834  0.1048 -0.2418 -0.4312
   20MOL   C12419542   6.185   3.233   0.872 -0.1656  0.0355  0.1663
   20MOL   C12519543   6.248   3.015   0.749 -0.4205 -0.4675  0.6112
   20MOL   C12619544   6.231   2.879   0.720  0.2059  0.2063 -0.5662
   20MOL   C12719545   6.036   2.451   0.792 -0.2176  0.8891 -0.5483
   20MOL   C12819546   5.933   2.352   0.803 -0.5620  0.9861 -0.6325
   20MOL   C12919547   5.610   2.314   0.551  0.0546 -0.4346 -0.2245
   20MOL   C13019548   5.501   2.292   0.464 -0.3990  0.3966  0.2662
   20MOL   C13119549   5.191   2.251   0.209  0.5979 -0.4226 -0.7820
   20MOL   C13219550   5.182   2.306   0.084 -0.3908 -0.2090  0.1892
   20MOL   H13319551   5.347   2.344   7.782  0.3381 -0.6384  1.4959
   20MOL   H13419552   5.501   2.287   7.959  0.5133  1.1303  0.2557
   20MOL   H13519553   5.523   2.219   0.225 -1.3677 -1.0378  2.1495
   20MOL   H13619554   5.231   2.096   0.409 -2.2291  2.5655  1.1180
   20MOL   H13719555   5.317   2.076   0.642 -0.2377 -0.1112 -0.9580
   20MOL   H13819556   5.517   2.118   0.802  0.1787 -3.0721 -0.7094
   20MOL   H13919557   5.718   2.198   0.839  1.0953 -1.3356 -1.4055
   20MOL   H14019558   5.664   2.548   0.727  0.4419  1.3100  2.9732
   20MOL   H14119559   5.834   2.718   0.735 -0.8106 -0.0272  0.5566
   20MOL   H14219560   6.200   2.640   0.728  0.4287  1.6185  0.6356
   20MOL   H14319561   5.938   2.832   0.893  0.0122  2.3214  0.1308
   20MOL   H14419562   5.970   3.060   0.934  0.2556  0.0529  0.6980
   20MOL   H14519563   6.154   3.296   0.788 -0.4596  0.3629  0.5135
   20MOL   H14619564   6.292   3.248   0.880 -0.2690  0.7674  0.2412
   20MOL   H14719565   6.338   3.063   0.714 -0.6136 -1.7353 -1.7230
   20MOL   H14819566   6.300   2.833   0.651 -0.1765 -0.5044 -0.4819
   20MOL   H14919567   6.139   2.423   0.804 -1.4735 -3.1531  1.5915
   20MOL   H15019568   5.970   2.252   0.818 -0.5879  1.1653  0.6680
   20MOL   H15119569   5.683   2.390   0.527  1.2751 -1.7455 -0.7939
   20MOL   H15219570   5.487   2.365   0.385  0.2506  1.7996  1.4293
   20MOL   H15319571   5.103   2.244   0.271  0.6128 -1.0523 -0.8264
   20MOL   H15419572   5.083   2.335   0.050 -0.2147  1.0480  0.7534
   20MOL   N15519573   6.117   3.289   0.991 -0.4518 -0.2448 -0.0342
   20MOL   C15619574   6.131   3.230   1.117  0.1544  0.0770  0.8986
   20MOL   C15719575   6.254   3.170   1.153  0.4028 -0.6746 -0.2798
   20MOL   C15819576   6.293   3.136   1.285  0.3118  0.4806  0.3104
   20MOL   C15919577   6.192   3.129   1.377 -0.8869  0.4994 -0.1198
   20MOL   N16019578   6.214   3.074   1.504 -0.0712 -0.3673  0.0035
   20MOL   C16119579   6.153   3.124   1.617 -0.2313 -0.9733 -0.0180
   20MOL   C16219580   6.174   3.257   1.649  1.0927 -0.0275  0.3189
   20MOL   C16319581   6.101   3.317   1.746 -0.1006  0.1715  0.9771
   20MOL   C16419582   6.000   3.250   1.818 -0.5863  0.1942  0.4578
   20MOL   N16519583   5.927   3.321   1.913 -0.1017  0.1294  0.6107
   20MOL   C16619584   5.966   3.333   2.042  0.7364 -0.0355 -0.1129
   20MOL   C16719585   6.019   3.229   2.116 -0.3048  0.3736 -0.3472
   20MOL   C16819586   6.056   3.255   2.253 -0.2124 -0.7880 -0.1418
   20MOL   C16919587   6.027   3.375   2.315  0.1154 -0.1208 -0.8260
   20MOL   N17019588   6.064   3.383   2.450 -0.0247 -0.2276 -0.3754
   20MOL   C17119589   6.120   3.492   2.519 -0.1088 -0.2952  0.4496
   20MOL   C17219590   6.202   3.586   2.451  0.7350 -0.0819 -0.1535
   20MOL   C17319591   6.272   3.689   2.521 -0.6879  0.4346 -0.9706
   20MOL   C17419592   6.272   3.691   2.664 -0.2447 -0.4961 -0.7313
   20MOL   C17519593   6.370   3.783   2.741  0.0841 -0.1564  0.5096
   20MOL   C17619594   6.198   3.590   2.730  0.3785  0.3452 -0.0742
   20MOL   C17719595   6.120   3.499   2.662  0.0787 -0.6799  1.0161
   20MOL   C17819596   5.968   3.483   2.241  0.2055  0.4441 -0.0373
   20MOL   C17919597   5.947   3.463   2.102  0.9679 -0.4617  0.5601
   20MOL   C18019598   5.995   3.106   1.801  0.1191 -0.2218  0.7286
   20MOL   C18119599   6.071   3.044   1.700  0.2845  0.7782 -0.0312
   20MOL   C18219600   6.067   3.190   1.352 -0.3747 -0.2036 -0.5860
   20MOL   C18319601   6.034   3.238   1.217 -0.1307  0.5304  0.1392
   20MOL   H18419602   6.033   3.344   0.979  0.9490  1.7561 -1.0002
   20MOL   H18519603   6.341   3.169   1.088  0.4423 -2.0831 -0.2385
   20MOL   H18619604   6.397   3.115   1.305  0.3197  0.9008  0.6925
   20MOL   H18719605   6.228   2.975   1.494  1.9559  0.1712 -2.8429
   20MOL   H18819606   6.240   3.327   1.600 -0.2783  0.7936 -0.3669
   20MOL   H18919607   6.111   3.424   1.757  1.4512 -0.0732  2.2766
   20MOL   H19019608   5.875   3.403   1.887 -1.9857 -0.6732  1.6938
   20MOL   H19119609   6.039   3.133   2.071  1.0830  1.0347 -1.1572
   20MOL   H19219610   6.115   3.185   2.311 -0.8449 -1.1907  0.0300
   20MOL   H19319611   6.071   3.300   2.507 -0.0184 -1.2801 -1.8900
   20MOL   H19419612   6.207   3.583   2.343  1.3022  2.5414 -0.2310
   20MOL   H19519613   6.341   3.752   2.468  0.0604 -1.1542 -1.9011
   20MOL   H19619614   6.341   3.888   2.740  0.9915  0.1060  0.8495
   20MOL   H19719615   6.465   3.775   2.688 -1.4196 -3.0462 -1.8719
   20MOL   H19819616   6.199   3.582   2.838  0.3684 -1.6660 -0.2016
   20MOL   H19919617   6.079   3.420   2.723  1.7522 -1.1996  1.4702
   20MOL   H20019618   5.962   3.576   2.295 -0.8718  1.9806 -2.6784
   20MOL   H20119619   5.903   3.548   2.053 -2.1172 -1.1183  2.1085
   20MOL   H20219620   5.924   3.050   1.860 -0.7332 -0.3978 -0.4268
   20MOL   H20319621   6.054   2.938   1.685 -1.9731  0.4648  4.0345
   20MOL   H20419622   6.005   3.200   1.439  2.6767  0.6208  1.5708
   20MOL   H20519623   5.949   3.304   1.203  0.0050  0.7330  0.2652
   20MOL   N20619624   6.407   3.740   2.873 -0.5933  0.5833 -0.5222
   20MOL   C20719625   6.333   3.780   2.983 -0.5355 -0.8179 -0.5940
   20MOL   C20819626   6.381   3.755   3.114  0.0372  0.3929  0.4183
   20MOL   C20919627   6.302   3.789   3.227 -0.0256  0.1313  0.1598
   20MOL   C21019628   6.178   3.849   3.210  0.8279 -0.1522 -0.0112
   20MOL   N21119629   6.107   3.875   3.323  0.3436  0.1185 -0.2823
   20MOL   C21219630   5.984   3.937   3.341 -0.5337 -0.5597 -0.4030
   20MOL   C21319631   5.970   4.034   3.443 -0.0240  0.0935 -0.3830
   20MOL   C21419632   5.846   4.090   3.472  0.0722  0.1875 -0.2772
   20MOL   C21519633   5.734   4.045   3.400  0.4654  0.0391  0.0821
   20MOL   N21619634   5.609   4.089   3.441 -0.0309  0.0280  0.1244
   20MOL   C21719635   5.567   4.205   3.507  0.5975  0.4676  0.0132
   20MOL   C21819636   5.438   4.195   3.567  0.5074 -0.6780  0.2482
   20MOL   C21919637   5.377   4.316   3.600 -1.1569 -0.3618 -0.3005
   20MOL   C22019638   5.445   4.442   3.592  0.4387 -0.3557 -0.2108
   20MOL   N22119639   5.371   4.556   3.613 -0.7788  0.5194  0.1398
   20MOL   C22219640   5.257   4.568   3.691  0.5093 -0.0024 -0.7134
   20MOL   C22319641   5.245   4.513   3.819 -0.3185 -0.5600  0.2585
   20MOL   C22419642   5.128   4.524   3.896 -0.2767 -0.2418  0.0315
   20MOL   C22519643   5.018   4.600   3.847 -0.0112  0.7104 -0.1618
   20MOL   C22619644   4.900   4.621   3.937 -0.0268  0.2970  0.9768
   20MOL   C22719645   5.028   4.661   3.718 -0.6536 -0.2496  0.3106
   20MOL   C22819646   5.143   4.638   3.643  1.1019  0.1627  1.3198
   20MOL   C22919647   5.576   4.443   3.546 -0.2762 -0.4229 -0.6441
   20MOL   C23019648   5.642   4.328   3.501 -0.4618 -0.0779 -0.7667
   20MOL   C23119649   5.748   3.943   3.302 -0.3507 -0.6479  0.1025
   20MOL   C23219650   5.872   3.886   3.269 -0.1852  0.1747 -0.9469
   20MOL   C23319651   6.128   3.880   3.081 -0.2482 -0.7160  0.0277
   20MOL   C23419652   6.208   3.848   2.969 -0.3381  0.5687  0.6434
   20MOL   H23519653   6.507   3.751   2.886 -0.6609  1.0857 -0.4092
   20MOL   H23619654   6.479   3.714   3.131  0.5649  1.7366  0.6782
   20MOL   H23719655   6.337   3.752   3.322  2.3112 -0.9483 -1.0835
   20MOL   H23819656   6.151   3.841   3.408 -0.9630  2.0110  1.1862
   20MOL   H23919657   6.056   4.063   3.501 -2.9369  2.5191  2.9127
   20MOL   H24019658   5.843   4.165   3.550 -0.8871 -0.0786 -0.0468
   20MOL   H24119659   5.533   4.030   3.409  2.2232 -1.6622 -2.3861
   20MOL   H24219660   5.385   4.102   3.581  0.5272 -0.3666  2.6970
   20MOL   H24319661   5.278   4.311   3.643 -1.7805 -0.5523 -1.7275
   20MOL   H24419662   5.379   4.633   3.548  0.1713 -2.8778 -3.9468
   20MOL   H24519663   5.335   4.471   3.863 -0.8575 -0.6729  1.2777
   20MOL   H24619664   5.127   4.489   3.998  1.2439  0.0547  0.1642
   20MOL   H24719665   4.846   4.529   3.957  0.7307  0.1245  2.3057
   20MOL   H24819666   4.827   4.677   3.880 -0.5416 -0.7063  0.6430
   20MOL   H24919667   4.952   4.725   3.677  0.0464 -1.0484 -2.3257
   20MOL   H25019668   5.148   4.673   3.541  0.1135 -0.9718  0.8617
   20MOL   H25119669   5.632   4.533   3.522 -0.9076  0.3655  0.7645
   20MOL   H25219670   5.736   4.335   3.449  0.0591  0.2187  0.2050
   20MOL   H25319671   5.661   3.899   3.254 -0.6960  2.3161 -2.1465
   20MOL   H25419672   5.890   3.801   3.205 -0.2721  1.0017 -2.0885
   20MOL   H25519673   6.033   3.928   3.066  0.7103  0.9155 -1.0296
   20MOL   H25619674   6.165   3.872   2.873  1.9247 -1.1510 -0.8604
   20MOL   N25719675   4.937   4.677   4.065 -0.0049 -0.4590 -0.1911
   20MOL   C25819676   4.844   4.715   4.164 -0.8309 -0.4015 -0.4086
   20MOL   C25919677   4.891   4.730   4.293 -0.1168 -0.1733 -0.9042
   20MOL   C26019678   4.817   4.765   4.402 -0.1914 -0.3912  0.4083
   20MOL   C26119679   4.691   4.814   4.376  0.4598 -0.4464  0.5634
   20MOL   N26219680   4.604   4.858   4.485  0.2726  0.1196 -0.0333
   20MOL   C26319681   4.624   4.971   4.562 -0.1385 -0.6274  0.4562
   20MOL   C26419682   4.700   5.074   4.517  0.6406 -1.0873  0.5008
   20MOL   C26519683   4.709   5.193   4.594 -0.6909  0.1233 -0.1345
   20MOL   C26619684   4.656   5.197   4.730 -0.8987  0.0811  0.0494
   20MOL   N26719685   4.657   5.321   4.802  0.7747  0.2868  0.4137
   20MOL   C26819686   4.771   5.390   4.847  0.2917  0.0856  0.4496
   20MOL   C26919687   4.768   5.450   4.978 -0.3658  0.2652 -0.1075
   20MOL   C27019688   4.875   5.512   5.031 -0.5966 -0.3331  0.9469
   20MOL   C27119689   4.998   5.520   4.963 -0.4132  0.0552  0.0548
   20MOL   N27219690   5.112   5.570   5.029 -0.1564  0.0500 -0.7024
   20MOL   C27319691   5.206   5.659   4.982  0.4581 -0.1183 -0.3636
   20MOL   C27419692   5.224   5.698   4.849 -0.3632 -0.0911  0.1617
   20MOL   C27519693   5.318   5.789   4.812 -0.4886  1.0743  0.7607
   20MOL   C27619694   5.409   5.843   4.905 -1.1255 -0.4815 -0.2077
   20MOL   C27719695   5.512   5.950   4.871  0.3606 -0.4089  0.4593
   20MOL   C27819696   5.406   5.794   5.036  0.1037 -0.4215 -0.2609
   20MOL   C27919697   5.307   5.698   5.073 -0.4849 -0.7204 -0.5762
   20MOL   C28019698   5.006   5.457   4.832 -0.9591 -0.3980 -0.2262
   20MOL   C28119699   4.892   5.396   4.775  0.2054 -0.0080 -0.3581
   20MOL   C28219700   4.601   5.080   4.781 -1.3782 -0.1110 -0.2943
   20MOL   C28319701   4.585   4.972   4.693  0.0505  0.0628  0.3655
   20MOL   C28419702   4.636   4.806   4.242 -0.0211 -0.0106  0.5299
   20MOL   C28519703   4.706   4.745   4.136 -0.6325 -0.3392 -0.0424
   20MOL   H28619704   5.032   4.663   4.096  0.4818 -0.2996 -1.5791
   20MOL   H28719705   4.993   4.706   4.322 -0.8380  0.6436  2.5422
   20MOL   H28819706   4.854   4.769   4.503  0.7886  1.4552  0.0036
   20MOL   H28919707   4.518   4.807   4.495 -0.0074  0.3850 -1.0374
   20MOL   H29019708   4.733   5.067   4.415  1.0999 -1.3321  0.6617
   20MOL   H29119709   4.751   5.276   4.540 -2.1495 -0.3683 -2.0843
   20MOL   H29219710   4.579   5.332   4.865  1.3907 -2.3398  1.6955
   20MOL   H29319711   4.678   5.449   5.038 -0.2661  0.6272  0.0476
   20MOL   H29419712   4.867   5.550   5.132  1.7811 -3.3898  2.3605
   20MOL   H29519713   5.101   5.594   5.127  1.2593  0.6319 -0.6814
   20MOL   H29619714   5.158   5.661   4.772 -0.8564 -1.0384  1.0445
   20MOL   H29719715   5.313   5.821   4.709 -0.2922 -0.8962  0.1192
   20MOL   H29819716   5.494   6.043   4.926 -3.2488 -1.1027  0.6198
   20MOL   H29919717   5.493   5.980   4.767 -2.5624 -1.2187  0.7019
   20MOL   H30019718   5.479   5.825   5.109 -1.5558  0.6160  1.0154
   20MOL   H30119719   5.309   5.682   5.180 -0.4157  2.4423 -0.0588
   20MOL   H30219720   5.101   5.452   4.782 -0.6259 -1.0265  0.4554
   20MOL   H30319721   4.909   5.350   4.679 -3.2977  2.9160 -2.5070
   20MOL   H30419722   4.554   5.083   4.879 -1.6111 -1.8918 -0.3322
   20MOL   H30519723   4.530   4.886   4.728  1.1054 -0.9763 -0.4624
   20MOL   H30619724   4.534   4.839   4.233  0.8816  2.3314 -1.6119
   20MOL   H30719725   4.667   4.737   4.035  0.9358 -0.8368 -0.6195
   20MOL   N30819726   5.641   5.894   4.890  0.2365 -0.2746  0.6944
   20MOL   C30919727   5.763   5.963   4.856 -0.2232 -0.1304  0.7425
   20MOL   C31019728   5.885   5.897   4.836 -0.3745 -0.1910 -0.2280
   20MOL   C31119729   5.997   5.972   4.820 -0.4637  0.2324  0.9575
   20MOL   C31219730   5.994   6.115   4.819 -0.8385  0.9035  0.0898
   20MOL   N31319731   6.108   6.195   4.798 -0.4800  0.3647  0.2248
   20MOL   C31419732   6.227   6.183   4.863  0.0446  0.7782  0.3594
   20MOL   C31519733   6.334   6.268   4.830  0.3500  0.1208 -0.2868
   20MOL   C31619734   6.462   6.252   4.888  0.0582 -0.4024 -1.0895
   20MOL   C31719735   6.480   6.170   4.998  0.0984  0.0496  0.5772
   20MOL   N31819736   6.599   6.181   5.071  0.1367  0.3873 -0.3436
   20MOL   C31919737   6.644   6.101   5.167  0.5823 -0.0663  0.6861
   20MOL   C32019738   6.608   5.963   5.186 -0.1931 -0.0519  0.8229
   20MOL   C32119739   6.633   5.899   5.308 -0.9296  0.1914 -0.3144
   20MOL   C32219740   6.708   5.959   5.410 -0.3596  0.1248 -0.3810
   20MOL   N32319741   6.726   5.899   5.536 -0.0604 -0.2970  0.3889
   20MOL   C32419742   6.841   5.912   5.620 -0.3818  0.1458 -0.1875
   20MOL   C32519743   6.969   5.928   5.565 -0.0207 -0.4866 -0.4503
   20MOL   C32619744   7.082   5.939   5.652 -0.2509  0.3734  0.3498
   20MOL   C32719745   7.068   5.920   5.790  0.5218 -0.7152 -0.2172
   20MOL   C32819746   7.186   5.944   5.877  0.4887 -0.0151 -0.6447
   20MOL   C32919747   6.939   5.887   5.834 -0.6578  0.0036 -0.1164
   20MOL   C33019748   6.828   5.871   5.749  0.4632  0.3066 -0.1389
   20MOL   C33119749   6.753   6.090   5.392  0.2618  0.0782  0.0347
   20MOL   C33219750   6.711   6.159   5.272 -0.1426  0.3536 -0.8062
   20MOL   C33319751   6.371   6.083   5.034 -0.5296 -0.1619 -0.2394
   20MOL   C33419752   6.249   6.086   4.965  0.0685 -0.2911  0.2975
   20MOL   C33519753   5.873   6.180   4.811  0.7676  0.1508 -0.0019
   20MOL   C33619754   5.757   6.104   4.836  0.3643 -0.4092 -0.5168
   20MOL   H33719755   5.641   5.793   4.881  0.8864 -0.0794 -1.7061
   20MOL   H33819756   5.889   5.790   4.846  2.1684 -0.2977 -1.9743
   20MOL   H33919757   6.094   5.925   4.811 -0.1949  0.7060  1.4082
   20MOL   H34019758   6.092   6.286   4.757 -0.6438  1.0572  1.8041
   20MOL   H34119759   6.323   6.341   4.751 -1.1321 -1.3520 -1.4940
   20MOL   H34219760   6.543   6.315   4.852 -1.2094  0.4561 -2.5264
   20MOL   H34319761   6.656   6.262   5.054 -0.0603  1.1655  2.4970
   20MOL   H34419762   6.567   5.911   5.101  1.3502  1.4209 -0.8665
   20MOL   H34519763   6.597   5.802   5.338 -1.7539  1.1405  1.9578
   20MOL   H34619764   6.677   5.813   5.556 -0.8383  0.3653  1.4177
   20MOL   H34719765   6.976   5.949   5.459  1.9240 -0.1005 -0.2676
   20MOL   H34819766   7.181   5.952   5.612 -0.7095  0.6810 -0.7008
   20MOL   H34919767   7.275   5.965   5.818  0.4389  1.0533 -0.3427
   20MOL   H35019768   7.209   5.848   5.924 -1.9643  0.8130  2.3985
   20MOL   H35119769   6.928   5.868   5.940  2.0235  0.4721  0.2764
   20MOL   H35219770   6.736   5.833   5.790 -0.1141  0.3739 -1.3440
   20MOL   H35319771   6.809   6.136   5.472  0.0906 -3.2099  2.1464
   20MOL   H35419772   6.738   6.264   5.268 -0.0524  0.3163 -1.1752
   20MOL   H35519773   6.380   6.013   5.116 -2.2302 -1.1408 -0.8414
   20MOL   H35619774   6.173   6.015   4.993 -1.0629 -0.3927 -2.8968
   20MOL   H35719775   5.885   6.286   4.799  0.9740  0.1177 -0.0717
   20MOL   H35819776   5.660   6.151   4.852 -0.7261 -2.2695 -1.4915
   20MOL   N35919777   7.169   6.034   5.990 -0.1608  0.0619  0.1079
   20MOL   C36019778   7.284   6.059   6.070  0.0563  0.5468 -0.2775
   20MOL   C36119779   7.272   6.162   6.167 -0.5136 -0.1122  0.3481
   20MOL   C36219780   7.377   6.197   6.253 -0.3045 -0.2279  0.2481
   20MOL   C36319781   7.494   6.113   6.257  0.3873 -0.5340  0.0624
   20MOL   N36419782   7.593   6.140   6.356  0.1638  0.0850  0.4962
   20MOL   C36519783   7.683   6.045   6.410  0.0118 -0.0286  0.8631
   20MOL   C36619784   7.813   6.085   6.441 -0.3151 -0.0037  0.6514
   20MOL   C36719785   7.910   5.986   6.476  0.4826  0.4508 -0.2410
   20MOL   C36819786   7.882   5.848   6.474 -0.1085 -0.3867 -0.4055
   20MOL   N36919787   0.007   5.758   6.502 -0.4745  0.0865  0.3092
   20MOL   C37019788   0.013   5.626   6.467 -0.4132 -0.3550  0.0753
   20MOL   C37119789   0.082   5.537   6.543 -0.3911  0.2215  0.3966
   20MOL   C37219790   0.073   5.395   6.515 -0.4049  0.3200 -0.0442
   20MOL   C37319791   0.017   5.346   6.393  0.0374 -0.4534 -0.4464
   20MOL   N37419792   0.027   5.209   6.358 -0.0300  0.1793 -0.1497
   20MOL   C37519793   7.910   5.135   6.286 -0.1628 -0.0920 -0.2875
   20MOL   C37619794   7.947   5.030   6.203  0.3380 -0.1315  0.2795
   20MOL   C37719795   7.851   4.956   6.139  0.1770 -0.1582 -0.2687
   20MOL   C37819796   7.714   4.979   6.161  0.1020  0.0885  0.7732
   20MOL   C37919797   7.607   4.900   6.092  0.3349 -0.1207 -0.0913
   20MOL   C38019798   7.674   5.078   6.252  0.3435  0.6281  0.3902
   20MOL   C38119799   7.771   5.152   6.316 -0.3084  1.1370  0.4147
   20MOL   C38219800   7.935   5.443   6.311  0.1235 -0.4082 -0.4098
   20MOL   C38319801   7.930   5.580   6.349 -0.0395 -0.5165  0.3263
   20MOL   C38419802   7.745   5.808   6.448 -1.0623 -0.1439  0.2424
   20MOL   C38519803   7.647   5.907   6.413 -0.0646 -0.8942  0.1981
   20MOL   C38619804   7.509   6.012   6.162  0.5984 -0.1127 -0.4712
   20MOL   C38719805   7.407   5.985   6.070 -0.2882  0.1971  0.4082
   20MOL   H38819806   7.120   6.121   5.973 -1.8368 -0.4667  2.0443
   20MOL   H38919807   7.188   6.229   6.179 -0.2801 -0.2114  2.8684
   20MOL   H39019808   7.360   6.275   6.325  1.2078  0.7549 -0.4391
   20MOL   H39119809   7.580   6.225   6.409 -1.3100  0.6202 -0.6578
   20MOL   H39219810   7.851   6.185   6.427  3.0380 -1.2973  0.1711
   20MOL   H39319811   0.030   6.019   6.491  0.7412 -0.5455  0.2570
   20MOL   H39419812   0.089   5.802   6.541 -0.2340 -0.1741  0.1047
   20MOL   H39519813   0.129   5.573   6.633  0.3019  0.0445  0.1083
   20MOL   H39619814   0.124   5.327   6.580  1.0009  2.0194  0.6649
   20MOL   H39719815   0.117   5.170   6.382  0.1669  1.3086  0.9974
   20MOL   H39819816   0.065   4.997   6.181  0.8836  1.4553  0.3216
   20MOL   H39919817   7.890   4.885   6.068 -0.9617 -0.6346 -0.4182
   20MOL   H40019818   7.644   4.801   6.066 -0.3806 -0.1877 -0.8694
   20MOL   H40119819   7.582   4.942   5.995 -0.0996 -1.0792 -0.4009
   20MOL   H40219820   7.570   5.095   6.273  0.1179 -1.7860  1.3088
   20MOL   H40319821   7.736   5.224   6.389  1.9168  2.6956 -0.0012
   20MOL   H40419822   7.891   5.413   6.217 -1.6716 -0.7626  0.5208
   20MOL   H40519823   7.892   5.658   6.285  0.3295  0.1692  0.9334
   20MOL   H40619824   7.709   5.706   6.450 -1.8884  0.1491  1.6718
   20MOL   H40719825   7.545   5.880   6.389  0.5127 -2.6731 -0.3707
   20MOL   H40819826   7.600   5.957   6.145  0.2250  0.4812 -5.0675
   20MOL   H40919827   7.422   5.909   5.994  3.0034  2.1325 -1.0012
   20MOL   N41019828   7.488   4.880   6.175 -0.4051 -0.1427 -0.4475
   20MOL   C41119829   7.381   4.806   6.130  0.3760 -0.0394 -0.3272
   20MOL   C41219830   7.270   4.788   6.217  0.2434  0.2776 -0.8041
   20MOL   C41319831   7.146   4.740   6.165  0.1319  0.2077  0.2185
   20MOL   C41419832   7.135   4.705   6.028 -0.4712 -0.6681  0.4252
   20MOL   N41519833   7.022   4.664   5.965 -0.0896 -0.2806  0.3393
   20MOL   C41619834   6.932   4.757   5.913 -0.1976 -0.0186  0.0641
   20MOL   C41719835   6.940   4.898   5.945 -0.1479 -0.1534 -0.5901
   20MOL   C41819836   6.860   4.995   5.884 -0.4421 -0.4046 -0.7641
   20MOL   C41919837   6.770   4.953   5.780 -0.2497 -0.1481  0.7599
   20MOL   N42019838   6.680   5.042   5.721 -0.3061 -0.8289  0.6655
   20MOL   C42119839   6.584   5.112   5.797  0.1179 -0.2631  0.1053
   20MOL   C42219840   6.457   5.053   5.801 -0.4243 -0.1466 -0.2871
   20MOL   C42319841   6.365   5.103   5.888 -0.4252 -0.7853 -0.0128
   20MOL   C42419842   6.380   5.225   5.961  0.2067  0.1258  0.2837
   20MOL   N42519843   6.279   5.280   6.040  0.5331 -0.0586 -0.1964
   20MOL   C42619844   6.143   5.280   6.018 -0.0267  0.0686  0.3732
   20MOL   C42719845   6.081   5.278   5.890 -0.7539  0.1271 -0.5131
   20MOL   C42819846   5.944   5.272   5.874  0.9465 -0.9890 -0.4968
   20MOL   C42919847   5.864   5.284   5.986 -0.1263  0.4805 -0.3046
   20MOL   C43019848   5.711   5.263   5.964 -0.6454 -0.3191 -0.2233
   20MOL   C43119849   5.915   5.295   6.116 -0.7932 -0.2854  0.3313
   20MOL   C43219850   6.054   5.297   6.128  0.2927 -0.7195  0.3927
   20MOL   C43319851   6.506   5.282   5.959 -0.5618  0.4579  0.1353
   20MOL   C43419852   6.613   5.221   5.879  0.5855 -0.3401 -0.0779
   20MOL   C43519853   6.762   4.818   5.747 -0.4716  0.3435  0.6434
   20MOL   C43619854   6.839   4.720   5.811 -0.2310 -0.3663  0.2507
   20MOL   C43719855   7.252   4.710   5.944  0.8306  0.6524  0.2175
   20MOL   C43819856   7.372   4.766   5.994 -0.1666 -0.7091 -0.5922
   20MOL   H43919857   7.493   4.897   6.274 -0.7051  0.6766 -0.5682
   20MOL   H44019858   7.279   4.809   6.323 -1.0977  0.2304 -0.6805
   20MOL   H44119859   7.064   4.712   6.229  0.5011  0.0694  0.6284
   20MOL   H44219860   7.029   4.588   5.899 -1.4378 -0.0384 -0.0942
   20MOL   H44319861   7.009   4.934   6.019  1.3347 -1.0889 -1.4988
   20MOL   H44419862   6.861   5.098   5.918 -0.3414 -0.0822 -1.7163
   20MOL   H44519863   6.624   4.990   5.654 -1.9887  0.8703  0.7039
   20MOL   H44619864   6.430   4.966   5.742 -0.3795 -0.0970 -0.3809
   20MOL   H44719865   6.266   5.059   5.884 -1.6519  1.7447  1.1037
   20MOL   H44819866   6.310   5.345   6.110  0.2866  2.0080 -1.9803
   20MOL   H44919867   6.143   5.263   5.803  2.8490  0.6423  1.8625
   20MOL   H45019868   5.894   5.251   5.781  1.7852  1.2653 -1.4835
   20MOL   H45119869   5.692   5.156   5.972 -2.0241 -0.0226  0.7175
   20MOL   H45219870   5.693   5.300   5.863  0.1732  1.3855  0.2266
   20MOL   H45319871   5.850   5.311   6.201 -1.6637  0.6549 -0.4860
   20MOL   H45419872   6.095   5.291   6.227 -1.0579  1.1576  1.0922
   20MOL   H45519873   6.533   5.371   6.014 -1.9479  0.7172  0.3983
   20MOL   H45619874   6.713   5.262   5.884  0.3887  0.0983  0.2403
   20MOL   H45719875   6.694   4.780   5.672  1.0050 -0.3272 -0.3847
   20MOL   H45819876   6.829   4.615   5.788 -1.0904 -0.3176  0.3649
   20MOL   H45919877   7.242   4.691   5.839 -0.9145 -2.0944  0.8183
   20MOL   H46019878   7.446   4.787   5.919 -1.0742 -2.0381 -1.8861
   20MOL   N46119879   5.623   5.338   6.053  0.3005  0.0281  0.7435
   20MOL   C46219880   5.486   5.320   6.032 -0.4645  0.3165 -0.6600
   20MOL   C46319881   5.395   5.426   6.016 -0.3953  0.1191 -0.2000
   20MOL   C46419882   5.256   5.402   5.995  0.4703  1.1103  1.1711
   20MOL   C46519883   5.207   5.268   5.978 -0.0128  0.1808 -0.2148
   20MOL   N46619884   5.070   5.249   5.950 -0.2025 -0.1888 -0.3210
   20MOL   C46719885   5.000   5.132   5.923 -0.2945  0.1753  0.9617
   20MOL   C46819886   4.873   5.114   5.979 -0.6663 -0.1821 -0.2820
   20MOL   C46919887   4.803   4.992   5.965 -0.2306  0.0348 -0.0073
   20MOL   C47019888   4.852   4.892   5.877 -0.6273 -0.0962 -0.2951
   20MOL   N47119889   4.767   4.784   5.839  0.5756  0.1547  0.1745
   20MOL   C47219890   4.651   4.731   5.913 -0.1069  0.4288  0.0686
   20MOL   C47319891   4.539   4.667   5.843  0.0176 -0.0513  0.1316
   20MOL   C47419892   4.420   4.620   5.912 -0.0941 -0.0541  0.3030
   20MOL   C47519893   4.415   4.637   6.052  0.3022 -0.4002  0.4051
   20MOL   N47619894   4.297   4.609   6.129  0.3449 -0.2846 -0.2095
   20MOL   C47719895   4.163   4.605   6.093  0.1983 -0.2195 -0.0577
   20MOL   C47819896   4.122   4.658   5.969  0.1597  0.5262  0.1208
   20MOL   C47919897   3.983   4.653   5.926  0.0067  0.1698  0.1259
   20MOL   C48019898   3.891   4.598   6.017  0.4969  0.0207 -0.1762
   20MOL   C48119899   3.749   4.611   5.982  0.4510  0.4836 -0.2804
   20MOL   C48219900   3.929   4.543   6.144  0.7658  0.2868  0.5272
   20MOL   C48319901   4.068   4.550   6.177 -0.9941 -0.0215  0.2869
   20MOL   C48419902   4.530   4.693   6.118 -0.3262 -0.0790 -0.0826
   20MOL   C48519903   4.647   4.737   6.053  0.3939 -0.4693 -0.3551
   20MOL   C48619904   4.976   4.914   5.820  0.1992  0.0360  0.4979
   20MOL   C48719905   5.058   5.025   5.847 -0.8260  0.7171  0.8264
   20MOL   C48819906   5.298   5.161   5.991 -0.2394 -0.2721  0.4035
   20MOL   C48919907   5.433   5.187   6.017  0.0056  0.7293  0.2749
   20MOL   H49019908   5.652   5.434   6.061 -0.9369  0.3861  0.9042
   20MOL   H49119909   5.417   5.531   6.020  0.7960 -0.0201 -2.1283
   20MOL   H49219910   5.188   5.485   5.982 -1.3162 -0.4560  0.3717
   20MOL   H49319911   5.000   5.319   5.967 -0.1924  0.8295 -3.9119
   20MOL   H49419912   4.837   5.199   6.036 -0.3794 -0.9197  1.0192
   20MOL   H49519913   4.705   4.995   6.010 -0.2616  0.3526 -0.1011
   20MOL   H49619914   4.808   4.734   5.762 -1.6493  0.4149 -1.2460
   20MOL   H49719915   4.550   4.648   5.737 -1.7036 -2.1781  0.3193
   20MOL   H49819916   4.343   4.573   5.854 -2.3027  2.1309  1.3886
   20MOL   H49919917   4.311   4.607   6.229 -0.3628  0.4653 -0.0939
   20MOL   H50019918   4.187   4.709   5.899 -1.0898 -0.4895 -1.8456
   20MOL   H50119919   3.950   4.705   5.838 -0.7429  2.7171  1.8342
   20MOL   H50219920   3.679   4.563   6.050 -0.2826 -0.7600 -1.8596
   20MOL   H50319921   3.739   4.534   5.905 -1.6495  1.0559 -0.5975
   20MOL   H50419922   3.859   4.504   6.216 -1.5905  0.6881 -1.4878
   20MOL   H50519923   4.104   4.530   6.277  3.4772  0.3455 -1.1690
   20MOL   H50619924   4.524   4.702   6.225 -0.8454  2.4378 -0.2714
   20MOL   H50719925   4.730   4.772   6.113 -0.4873 -1.4568  1.4883
   20MOL   H50819926   5.019   4.847   5.747 -2.0105 -0.4782 -0.3810
   20MOL   H50919927   5.152   5.034   5.797  0.0925 -1.0625  2.1506
   20MOL   H51019928   5.268   5.057   5.990  1.2223 -0.7092 -0.7555
   20MOL   H51119929   5.488   5.097   6.040 -1.2186  0.2917  1.5466
   20MOL   N51219930   3.696   4.732   5.930 -0.6074  0.0039 -0.3995
   20MOL   C51319931   3.680   4.846   6.011  0.2172 -0.1607  0.2135
   20MOL   C51419932   3.664   4.838   6.159 -0.6345 -0.2519  0.4791
   20MOL   C51519933   3.643   4.951   6.228 -0.1823 -0.3659  0.5391
   20MOL   C51619934   3.652   5.080   6.163 -0.2005  0.0428  0.3198
   20MOL   N51719935   3.650   5.198   6.235  0.1633 -0.0401  0.3833
   20MOL   C51819936   3.741   5.238   6.331  0.2257  0.0323 -0.4857
   20MOL   C51919937   3.717   5.359   6.406 -0.7786 -0.1975 -0.2830
   20MOL   C52019938   3.809   5.408   6.499 -0.7000  0.2546  0.2438
   20MOL   C52119939   3.937   5.347   6.506 -0.7946 -0.5123  0.5525
   20MOL   N52219940   4.026   5.406   6.596 -0.6045 -0.5386 -0.5152
   20MOL   C52319941   4.161   5.376   6.620  0.0051  0.5523 -0.3377
   20MOL   C52419942   4.245   5.328   6.518 -0.5018  0.5927  0.0070
   20MOL   C52519943   4.381   5.304   6.547 -0.1372  1.0027  0.2556
   20MOL   C52619944   4.427   5.307   6.682  0.6439  0.2757 -0.9525
   20MOL   N52719945   4.564   5.266   6.703  0.4301  0.3485 -0.5323
   20MOL   C52819946   4.672   5.354   6.704 -0.5826 -0.0820  0.5780
   20MOL   C52919947   4.650   5.491   6.682  0.5279  0.1301  0.1618
   20MOL   C53019948   4.759   5.581   6.666  0.0506  0.3292 -0.5314
   20MOL   C53119949   4.889   5.531   6.673  0.2996 -0.0335 -0.5304
   20MOL   C53219950   4.999   5.622   6.625  0.1708  0.0505 -0.6969
   20MOL   C53319951   4.913   5.393   6.696 -0.0714  0.4649  0.3606
   20MOL   C53419952   4.803   5.310   6.718  0.1990 -0.0039  0.1822
   20MOL   C53519953   4.343   5.362   6.788 -0.5527 -0.1776  0.3645
   20MOL   C53619954   4.210   5.396   6.756  0.4115  0.1257  0.2480
   20MOL   C53719955   3.967   5.235   6.431  0.2422  0.3841  0.5620
   20MOL   C53819956   3.868   5.186   6.340  0.1910 -0.6146  0.2237
   20MOL   C53919957   3.670   5.089   6.025  0.1285  0.5470  0.7644
   20MOL   C54019958   3.683   4.973   5.947 -0.1428 -0.3136  0.9747
   20MOL   H54119959   3.709   4.748   5.831  1.4624 -0.4142 -0.2129
   20MOL   H54219960   3.662   4.742   6.209  0.8701 -0.9715 -0.8192
   20MOL   H54319961   3.615   4.948   6.333 -1.3120  3.4362  0.4511
   20MOL   H54419962   3.590   5.271   6.200 -0.9787 -0.9294  0.4610
   20MOL   H54519963   3.624   5.413   6.393 -1.5845 -1.4104  0.3242
   20MOL   H54619964   3.789   5.499   6.555 -0.3463  1.7590 -2.0013
   20MOL   H54719965   3.993   5.476   6.660  0.1377 -0.9482  0.3276
   20MOL   H54819966   4.216   5.332   6.414  0.9654 -1.6586 -0.5248
   20MOL   H54919967   4.444   5.272   6.465  0.7648  0.6201  1.0785
   20MOL   H55019968   4.595   5.180   6.661  1.3188  0.9337 -1.1002
   20MOL   H55119969   4.550   5.530   6.669  0.9294  1.0116 -0.2674
   20MOL   H55219970   4.735   5.682   6.637  0.6454  0.1610 -1.6525
   20MOL   H55319971   5.069   5.637   6.708  2.0719  0.1924 -2.3014
   20MOL   H55419972   4.959   5.717   6.590 -2.4997 -0.8468 -0.1353
   20MOL   H55519973   5.007   5.341   6.702  0.1184  0.9501  1.7604
   20MOL   H55619974   4.807   5.202   6.721  2.7156  0.0664  0.4012
   20MOL   H55719975   4.386   5.372   6.886 -0.9467 -0.8688  0.6130
   20MOL   H55819976   4.148   5.433   6.837 -1.5861  0.9877 -1.6218
   20MOL   H55919977   4.061   5.182   6.440  0.5990  0.8725 -0.2803
   20MOL   H56019978   3.897   5.104   6.277  1.0781  0.1624 -0.3938
   20MOL   H56119979   3.677   5.183   5.974 -1.0779  0.8568  1.1650
   20MOL   H56219980   3.685   4.984   5.839 -1.2196  0.7534  1.0511
   20MOL   N56319981   5.062   5.562   6.510 -0.4087 -0.4610 -0.1871
   20MOL   C56419982   5.178   5.625   6.467 -0.0445 -0.3625 -0.1371
   20MOL   C56519983   5.269   5.688   6.552  0.9370 -0.5208  0.3033
   20MOL   C56619984   5.393   5.742   6.505  0.0385 -0.4508  0.0136
   20MOL   C56719985   5.422   5.737   6.366  0.8015  0.7009 -0.2125
   20MOL   N56819986   5.554   5.773   6.324 -0.1202  0.1949  0.0484
   20MOL   C56919987   5.622   5.722   6.213  0.7771 -0.0405  0.7712
   20MOL   C57019988   5.579   5.754   6.085  1.1164  0.8109 -0.0194
   20MOL   C57119989   5.645   5.705   5.976  0.2824  0.3042  0.8780
   20MOL   C57219990   5.763   5.630   5.982 -0.0186  0.9282  0.1652
   20MOL   N57319991   5.815   5.574   5.867 -0.3010  0.7489 -0.3656
   20MOL   C57419992   5.892   5.644   5.775 -1.0222  0.3895  0.7087
   20MOL   C57519993   5.906   5.787   5.777  1.2007  0.2012  0.1775
   20MOL   C57619994   5.969   5.857   5.668  0.4622  0.3229  0.0023
   20MOL   C57719995   6.017   5.780   5.559 -0.0857 -0.2987 -0.5944
   20MOL   N57819996   6.098   5.842   5.462  0.5407  0.3967  0.2605
   20MOL   C57919997   6.079   5.971   5.414 -0.5617  0.5141  0.4046
   20MOL   C58019998   5.960   6.002   5.335  0.4326 -0.3497  0.2959
   20MOL   C58119999   5.956   6.111   5.247  0.9553  0.1730  0.5728
   20MOL   C58220000   6.063   6.202   5.242  0.6784 -0.2750 -0.3346
   20MOL   C58320001   6.062   6.328   5.152  0.2509 -0.8228  0.1398
   20MOL   C58420002   6.176   6.182   5.330 -0.3223  0.4929  0.6486
   20MOL   C58520003   6.182   6.068   5.413 -0.1953 -0.3740  0.2405
   20MOL   C58620004   6.009   5.639   5.564  0.3506  0.3418 -0.1715
   20MOL   C58720005   5.938   5.571   5.666  0.4448 -0.6127  0.5177
   20MOL   C58820006   5.817   5.607   6.112  0.0621  0.2439 -0.3673
   20MOL   C58920007   5.746   5.660   6.224  0.4235  0.0751  0.0142
   20MOL   C59020008   5.317   5.698   6.275 -0.1091  0.4524  0.1199
   20MOL   C59120009   5.211   5.634   6.328 -0.4427  0.2833 -0.3838
   20MOL   H59220010   5.002   5.515   6.444 -2.0961 -1.0920  1.7699
   20MOL   H59320011   5.248   5.691   6.658  1.7408  1.6474  0.4208
   20MOL   H59420012   5.465   5.768   6.581  0.9574 -1.6898 -0.4145
   20MOL   H59520013   5.618   5.761   6.402 -0.2172 -0.6330 -0.0012
   20MOL   H59620014   5.491   5.814   6.067  0.2517 -0.0302  1.3447
   20MOL   H59720015   5.606   5.733   5.879 -1.2447 -3.1362  0.4170
   20MOL   H59820016   5.828   5.474   5.863 -0.6169  0.7010 -0.2021
   20MOL   H59920017   5.852   5.841   5.853  1.6325  0.7486  0.1001
   20MOL   H60020018   5.967   5.965   5.668 -2.0068  0.3001 -0.4416
   20MOL   H60120019   6.140   5.778   5.396  0.2680 -1.1980  1.6062
   20MOL   H60220020   5.872   5.940   5.332 -0.4942  0.9799 -0.3581
   20MOL   H60320021   5.869   6.135   5.186 -0.9384 -0.7646  2.8406
   20MOL   H60420022   6.068   6.310   5.044  2.1458  0.7400 -0.0336
   20MOL   H60520023   6.154   6.380   5.176 -1.3030  2.2353 -0.2802
   20MOL   H60620024   6.263   6.246   5.329 -0.0568  0.1799  2.4371
   20MOL   H60720025   6.273   6.051   5.469  0.6203  0.6515 -0.7542
   20MOL   H60820026   6.046   5.581   5.481 -2.2603 -0.0397 -1.1160
   20MOL   H60920027   5.932   5.463   5.659 -0.8730 -0.7644  3.4629
   20MOL   H61020028   5.893   5.533   6.132 -0.2208  0.2637  0.8642
   20MOL   H61120029   5.795   5.639   6.318  2.0609  0.0442 -0.8285
   20MOL   H61220030   5.338   5.707   6.169  0.8676  0.0385  0.2785
   20MOL   H61320031   5.146   5.574   6.265 -0.2045 -1.0920  0.6466
   20MOL   N61420032   5.957   6.422   5.197  0.0963  0.0625 -0.1197
   20MOL   C61520033   5.937   6.554   5.147  0.2344 -0.6092  0.4670
   20MOL   C61620034   5.934   6.577   5.005  0.4804 -0.2954  0.2636
   20MOL   C61720035   5.916   6.706   4.965  0.4323  0.7120  0.3146
   20MOL   C61820036   5.914   6.810   5.055  0.3174  0.3204 -0.2384
   20MOL   N61920037   5.907   6.946   5.009 -0.5818 -0.6369 -0.0464
   20MOL   C62020038   5.967   7.061   5.067 -0.2680  0.5001 -0.3244
   20MOL   C62120039   6.065   7.045   5.169 -0.7384 -0.9308  0.6640
   20MOL   C62220040   6.128   7.155   5.233  0.3439  0.3418  0.4251
   20MOL   C62320041   6.104   7.285   5.185  0.4431 -0.7066 -0.2114
   20MOL   N62420042   6.183   7.394   5.228  0.3192 -0.3441  0.1805
   20MOL   C62520043   6.260   7.401   5.342 -0.1546  0.6130  0.1310
   20MOL   C62620044   6.380   7.472   5.340 -0.4011 -0.5557 -0.2747
   20MOL   C62720045   6.461   7.465   5.454 -0.0094  0.4599 -0.0076
   20MOL   C62820046   6.419   7.395   5.571  0.4408 -0.0830 -0.1507
   20MOL   N62920047   6.505   7.363   5.676  0.1274  0.1651  0.1981
   20MOL   C63020048   6.488   7.292   5.794  0.6324 -0.0614  1.2290
   20MOL   C63120049   6.574   7.184   5.827 -0.1904 -0.6723  0.0261
   20MOL   C63220050   6.554   7.117   5.948  0.1688  0.1342  0.5266
   20MOL   C63320051   6.447   7.154   6.036  0.1208 -0.0393  1.5800
   20MOL   C63420052   6.440   7.073   6.164  0.1962  0.5037 -0.6390
   20MOL   C63520053   6.373   7.272   6.002  0.1426 -0.2277 -0.2525
   20MOL   C63620054   6.390   7.340   5.883 -0.0738  0.7000  0.0810
   20MOL   C63720055   6.296   7.330   5.577  0.5629 -0.7156 -0.0154
   20MOL   C63820056   6.220   7.330   5.456  0.4480  0.0651 -0.2589
   20MOL   C63920057   5.995   7.301   5.093  0.3145  0.0582  0.6863
   20MOL   C64020058   5.936   7.192   5.028  0.0280  0.6491 -0.7938
   20MOL   C64120059   5.915   6.787   5.189 -0.1012 -0.1867 -0.6058
   20MOL   C64220060   5.931   6.657   5.240  0.2207  0.3303  0.3065
   20MOL   H64320061   5.925   6.394   5.289  0.9762 -0.9123 -0.1052
   20MOL   H64420062   5.924   6.492   4.938 -2.5132 -1.1927  1.7447
   20MOL   H64520063   5.912   6.724   4.858  1.0197 -1.4492 -0.0878
   20MOL   H64620064   5.896   6.960   4.909 -0.3211 -0.0881  0.0020
   20MOL   H64720065   6.117   6.952   5.185  0.0519 -0.8347 -1.1738
   20MOL   H64820066   6.206   7.132   5.304 -0.3583  1.0336  1.4519
   20MOL   H64920067   6.177   7.481   5.176 -1.3938 -2.0678 -2.6888
   20MOL   H65020068   6.394   7.535   5.253  0.1056 -0.1077  0.1249
   20MOL   H65120069   6.563   7.500   5.448 -0.0018  0.5091  0.4483
   20MOL   H65220070   6.601   7.384   5.653 -0.0864 -0.6828 -1.5246
   20MOL   H65320071   6.653   7.152   5.760 -0.3195 -1.8197  0.4095
   20MOL   H65420072   6.616   7.033   5.973 -0.7128 -0.0258  2.2607
   20MOL   H65520073   6.506   7.109   6.243 -1.3910  2.5496 -0.1885
   20MOL   H65620074   6.468   6.970   6.141 -0.7034 -0.3869  2.0757
   20MOL   H65720075   6.295   7.300   6.072  0.5287 -1.0606  0.5298
   20MOL   H65820076   6.327   7.423   5.855  0.8500  2.0847  1.9868
   20MOL   H65920077   6.266   7.276   5.665  0.6446  0.2090  0.5895
   20MOL   H66020078   6.121   7.285   5.454 -0.4226  1.9688 -1.2276
   20MOL   H66120079   5.961   7.398   5.063  1.5752  1.2184  2.8767
   20MOL   H66220080   5.869   7.214   4.947 -1.8095 -0.9800  0.2319
   20MOL   H66320081   5.904   6.868   5.258  0.4376 -1.0202  0.4666
   20MOL   H66420082   5.929   6.637   5.346 -1.1903  0.1798  0.2607
   20MOL   N66520083   6.311   7.072   6.233  0.0125 -0.2372  0.0187
   20MOL   C66620084   6.290   6.986   6.341  0.9256 -0.0915 -0.3573
   20MOL   C66720085   6.176   7.008   6.421 -0.6439 -0.0488 -0.6532
   20MOL   C66820086   6.159   6.948   6.548  0.1355 -0.0899  0.3270
   20MOL   C66920087   6.254   6.852   6.595 -0.0542  0.2575 -0.1513
   20MOL   N67020088   6.234   6.787   6.716 -0.0548  0.0619  0.0154
   20MOL   C67120089   6.292   6.666   6.764 -0.4476 -0.5399  0.1722
   20MOL   C67220090   6.314   6.661   6.901 -0.0842 -0.1169  0.6024
   20MOL   C67320091   6.380   6.552   6.960 -1.2493  0.1625 -0.4011
   20MOL   C67420092   6.427   6.441   6.881 -0.1882 -0.0972 -0.9750
   20MOL   N67520093   6.492   6.329   6.928 -0.0397  0.3584 -0.1681
   20MOL   C67620094   6.432   6.202   6.925 -0.3150 -0.2734 -0.2328
   20MOL   C67720095   6.303   6.184   6.974 -0.4501 -0.5477  0.6834
   20MOL   C67820096   6.238   6.063   6.950  0.2693 -0.4043  0.2345
   20MOL   C67920097   6.300   5.959   6.875 -0.0811  0.0543 -0.2897
   20MOL   N68020098   6.232   5.835   6.845  0.1546 -0.4539  0.0216
   20MOL   C68120099   6.092   5.814   6.844  0.7426  0.5195 -0.4728
   20MOL   C68220100   6.043   5.681   6.849  0.2830  0.3017 -0.2309
   20MOL   C68320101   5.906   5.649   6.867 -0.1884  0.0468  0.3812
   20MOL   C68420102   5.811   5.755   6.841 -1.0618 -0.6974 -0.3160
   20MOL   C68520103   5.663   5.719   6.835 -0.7070 -0.8797  0.3812
   20MOL   C68620104   5.859   5.889   6.820 -0.1160 -0.1064 -0.0925
   20MOL   C68720105   5.995   5.918   6.833 -0.5360 -0.3036  0.4105
   20MOL   C68820106   6.432   5.974   6.835  0.7462  0.0467  0.0878
   20MOL   C68920107   6.501   6.096   6.857 -0.3712  0.4582  0.1596
   20MOL   C69020108   6.387   6.444   6.746 -0.8775  0.7111 -0.0292
   20MOL   C69120109   6.323   6.556   6.689  0.1989  0.1720  0.3759
   20MOL   C69220110   6.377   6.845   6.520 -0.1820  0.8885 -0.4173
   20MOL   C69320111   6.396   6.907   6.394 -0.2654  0.2882  0.6403
   20MOL   H69420112   6.237   7.104   6.172 -0.3139 -1.1626 -0.0774
   20MOL   H69520113   6.104   7.085   6.397  1.4670  3.9703  4.8178
   20MOL   H69620114   6.059   6.960   6.587  0.0407  0.6634 -0.1380
   20MOL   H69720115   6.172   6.830   6.783 -0.0993  0.0515 -0.0194
   20MOL   H69820116   6.289   6.739   6.971  0.0950 -0.1563  0.7104
   20MOL   H69920117   6.411   6.552   7.063 -3.1407 -1.0884  0.1914
   20MOL   H70020118   6.546   6.339   7.013 -1.0272 -0.9642  0.6331
   20MOL   H70120119   6.260   6.263   7.034 -2.5161 -1.5477  0.5605
   20MOL   H70220120   6.141   6.049   6.996 -0.1170 -2.1327 -1.0478
   20MOL   H70320121   6.285   5.755   6.813  1.1840  0.0801  0.3950
   20MOL   H70420122   6.118   5.604   6.853 -2.6704 -2.6138  0.6713
   20MOL   H70520123   5.873   5.546   6.856 -0.5366 -0.1451  2.8344
   20MOL   H70620124   5.638   5.651   6.917  1.2553 -0.8333  1.0671
   20MOL   H70720125   5.644   5.658   6.747 -1.1337  0.5282 -0.5103
   20MOL   H70820126   5.803   5.977   6.792  1.0666 -0.0287 -2.2815
   20MOL   H70920127   6.025   6.021   6.821  0.1460 -0.6215 -0.6549
   20MOL   H71020128   6.492   5.892   6.799  1.1082  0.6478 -0.6991
   20MOL   H71120129   6.607   6.101   6.837 -0.0514 -1.5291  1.1885
   20MOL   H71220130   6.396   6.360   6.678 -1.2367  2.6867 -2.5961
   20MOL   H71320131   6.302   6.551   6.583 -2.1872  2.2413  0.7159
   20MOL   H71420132   6.459   6.791   6.565 -0.7813  1.1123  0.9942
   20MOL   H71520133   6.492   6.900   6.345 -0.9530  1.0046 -0.8659
   20MOL   N71620134   5.571   5.828   6.816 -0.4760 -0.2162  0.2874
   20MOL   C71720135   5.443   5.830   6.877  0.0282  0.5224 -0.1273
   20MOL   C71820136   5.371   5.952   6.874 -0.1949 -0.0641  0.5088
   20MOL   C71920137   5.243   5.966   6.921 -0.6367  0.5029 -0.4810
   20MOL   C72020138   5.174   5.848   6.953  0.5278 -0.5521 -0.1620
   20MOL   N72120139   5.034   5.855   6.976 -0.2518 -0.4114  0.8283
   20MOL   C72220140   4.947   5.912   6.880  0.1490 -0.9340 -0.4567
   20MOL   C72320141   4.813   5.922   6.919  0.7229 -0.3617 -0.0873
   20MOL   C72420142   4.719   5.971   6.831  0.2504  0.6525 -0.0170
   20MOL   C72520143   4.751   6.015   6.699  0.3995 -0.5053  0.1904
   20MOL   N72620144   4.652   6.069   6.615  0.6922  0.5789 -0.3964
   20MOL   C72720145   4.534   6.008   6.573  0.7291 -0.1241 -0.1469
   20MOL   C72820146   4.498   5.880   6.621 -1.1419 -0.2559 -0.4833
   20MOL   C72920147   4.383   5.811   6.571 -0.1161  0.8976 -0.6351
   20MOL   C73020148   4.297   5.891   6.488  0.5063 -0.0120  0.2496
   20MOL   N73120149   4.184   5.831   6.432  0.5614  0.6526  0.2055
   20MOL   C73220150   4.176   5.714   6.356  0.6922  0.7189  0.1929
   20MOL   C73320151   4.044   5.661   6.334 -0.0206 -0.1961  0.0033
   20MOL   C73420152   4.037   5.539   6.257  0.8015 -0.4241 -0.0080
   20MOL   C73520153   4.145   5.474   6.199 -0.3726 -0.2572 -0.0161
   20MOL   C73620154   4.128   5.346   6.118 -0.2087 -0.3461 -0.3992
   20MOL   C73720155   4.272   5.529   6.217 -0.5159 -0.1917  0.1764
   20MOL   C73820156   4.286   5.639   6.306  0.2753 -0.3260  0.2924
   20MOL   C73920157   4.330   6.018   6.440  0.3350 -0.1569 -0.3456
   20MOL   C74020158   4.450   6.084   6.484  0.1879  0.0531  0.0207
   20MOL   C74120159   4.888   6.006   6.659 -0.1323 -0.3342  0.1113
   20MOL   C74220160   4.988   5.958   6.751  0.2072 -0.3632  0.5644
   20MOL   C74320161   5.244   5.725   6.951 -0.2778 -0.5419  0.3572
   20MOL   C74420162   5.379   5.708   6.912  0.4271 -0.2380  0.1053
   20MOL   H74520163   5.611   5.907   6.767  1.1247 -1.6931 -0.8609
   20MOL   H74620164   5.419   6.039   6.833  0.1134 -0.1548  0.6731
   20MOL   H74720165   5.206   6.067   6.907 -2.3456  0.2640  1.8337
   20MOL   H74820166   4.987   5.807   7.051 -1.9202  1.5753  1.0844
   20MOL   H74920167   4.776   5.905   7.019  1.0415  0.7486  0.2310
   20MOL   H75020168   4.616   5.969   6.863 -0.0349  1.2199 -0.8657
   20MOL   H75120169   4.689   6.123   6.538 -0.0481  0.1209 -1.0877
   20MOL   H75220170   4.555   5.827   6.697 -0.3655 -1.5193 -1.9088
   20MOL   H75320171   4.351   5.721   6.620  0.0424  1.5402  0.6729
   20MOL   H75420172   4.101   5.862   6.482  0.1991  1.0914 -0.6678
   20MOL   H75520173   3.963   5.701   6.393 -0.2018  1.3087 -1.2236
   20MOL   H75620174   3.939   5.493   6.261  0.9991 -0.7363  1.7011
   20MOL   H75720175   4.019   5.348   6.114 -0.2038 -0.5715 -0.7242
   20MOL   H75820176   4.156   5.256   6.172  0.1096 -0.5292 -0.8678
   20MOL   H75920177   4.363   5.496   6.170 -0.2930 -0.7618  1.0067
   20MOL   H76020178   4.383   5.685   6.320 -0.8835  1.4072  2.8429
   20MOL   H76120179   4.264   6.072   6.373  3.5573  3.5671 -0.6814
   20MOL   H76220180   4.480   6.181   6.447 -1.6073  0.8345  0.5523
   20MOL   H76320181   4.914   6.045   6.561  2.3470 -0.9004  0.5072
   20MOL   H76420182   5.090   5.948   6.716  0.0658 -0.7917  0.2828
   20MOL   H76520183   5.188   5.636   6.978  1.2548 -1.4557  0.5848
   20MOL   H76620184   5.439   5.619   6.921 -0.8834 -1.1426 -0.0582
   20MOL   N76720185   4.176   5.360   5.982 -0.0144  0.2016 -0.1030
   20MOL   C76820186   4.149   5.254   5.893 -0.1542 -0.4359  0.4874
   20MOL   C76920187   4.107   5.291   5.760 -0.1117 -0.2956 -0.3051
   20MOL   C77020188   4.051   5.203   5.668  0.1667  0.3304 -0.2493
   20MOL   C77120189   4.018   5.074   5.713  0.3423  0.3128  0.7129
   20MOL   N77220190   3.960   4.986   5.629 -0.8985  0.1707 -0.0599
   20MOL   C77320191   3.847   5.007   5.557  0.2584 -0.7031 -0.4422
   20MOL   C77420192   3.796   4.918   5.463  0.4444 -0.0307 -0.4763
   20MOL   C77520193   3.677   4.954   5.388 -0.7036 -0.2474  0.3933
   20MOL   C77620194   3.596   5.063   5.426 -0.7622 -0.0443 -0.8324
   20MOL   N77720195   3.477   5.086   5.359 -0.8383  0.1454 -0.4416
   20MOL   C77820196   3.368   5.176   5.384  0.1113 -0.5440  0.5077
   20MOL   C77920197   3.314   5.235   5.272 -0.4713  0.3088  0.9819
   20MOL   C78020198   3.219   5.343   5.291 -0.8501  0.1587  0.2856
   20MOL   C78120199   3.183   5.390   5.418 -0.4011  1.0813  0.8029
   20MOL   N78220200   3.096   5.496   5.424  0.1520 -0.1485  0.2622
   20MOL   C78320201   3.054   5.572   5.529  0.3293 -0.0305 -0.1654
   20MOL   C78420202   2.934   5.635   5.501 -0.6834 -0.1079 -0.6985
   20MOL   C78520203   2.875   5.730   5.589 -1.3191 -0.1164  0.0047
   20MOL   C78620204   2.933   5.751   5.712  0.6604  1.0648  0.1598
   20MOL   C78720205   2.866   5.849   5.799  0.7934 -0.5002 -0.5706
   20MOL   C78820206   3.062   5.695   5.740 -0.0889  0.5448  0.0414
   20MOL   C78920207   3.120   5.598   5.650  0.0450  0.1769 -0.8103
   20MOL   C79020208   3.231   5.317   5.527  0.3108  0.1915 -0.1057
   20MOL   C79120209   3.324   5.211   5.512 -0.1617  0.0997 -0.0655
   20MOL   C79220210   3.644   5.154   5.523 -0.7704  0.2156 -0.2425
   20MOL   C79320211   3.764   5.123   5.590 -0.3229  0.3065 -0.2412
   20MOL   C79420212   4.048   5.037   5.848  0.2375 -0.3722 -0.3081
   20MOL   C79520213   4.116   5.128   5.933  0.3046  0.7363 -0.4094
   20MOL   H79620214   4.215   5.447   5.947 -0.7227  0.2486 -0.7867
   20MOL   H79720215   4.113   5.391   5.720 -1.3621 -0.4394 -0.8655
   20MOL   H79820216   4.023   5.236   5.568  1.7622 -0.9894 -1.1490
   20MOL   H79920217   3.997   4.897   5.599 -0.3403  1.0631 -2.0673
   20MOL   H80020218   3.851   4.830   5.436 -1.2388 -1.3285  0.2393
   20MOL   H80120219   3.627   4.882   5.326 -1.5246  0.1944  0.5435
   20MOL   H80220220   3.464   5.014   5.289 -2.5348 -1.8550  1.8299
   20MOL   H80320221   3.354   5.225   5.172  0.6016 -0.0739  1.4444
   20MOL   H80420222   3.176   5.382   5.200  2.9638  0.8267 -1.3270
   20MOL   H80520223   3.081   5.530   5.330 -3.2305 -0.3782  0.6617
   20MOL   H80620224   2.888   5.628   5.404  0.6892 -2.4772 -1.2021
   20MOL   H80720225   2.780   5.772   5.562 -1.5213 -1.3205 -1.2023
   20MOL   H80820226   2.790   5.912   5.753  0.6455 -0.7174 -0.6247
   20MOL   H80920227   2.938   5.931   5.810 -0.6372  0.8725 -1.3387
   20MOL   H81020228   3.114   5.725   5.829  0.4738 -2.5830  0.8489
   20MOL   H81120229   3.220   5.562   5.669 -0.3648  0.8076  2.8209
   20MOL   H81220230   3.203   5.344   5.627  1.4240  0.4192  0.1552
   20MOL   H81320231   3.371   5.159   5.594  0.4987  0.4994 -0.1890
   20MOL   H81420232   3.593   5.245   5.551  2.7059  1.9508  0.8021
   20MOL   H81520233   3.793   5.192   5.668  0.1463  0.3179 -0.4217
   20MOL   H81620234   4.030   4.937   5.884  0.9699 -0.0332  1.0380
   20MOL   H81720235   4.144   5.087   6.029  2.4290  2.2778 -0.3321
   20MOL   N81820236   2.830   5.812   5.936  0.0507 -0.0749  0.1210
   20MOL   C81920237   2.755   5.903   6.015 -0.4712 -0.3436  0.0417
   20MOL   C82020238   2.699   5.851   6.131 -0.0674 -0.3725  0.7347
   20MOL   C82120239   2.624   5.937   6.214 -0.0805  0.3850  0.2601
   20MOL   C82220240   2.592   6.068   6.171  0.6626 -0.2799 -0.3755
   20MOL   N82320241   2.510   6.149   6.252  0.1525 -0.0369  0.6482
   20MOL   C82420242   2.557   6.217   6.365  0.5052 -0.3393  1.2031
   20MOL   C82520243   2.482   6.209   6.487  0.0505 -0.4693  0.0341
   20MOL   C82620244   2.531   6.266   6.602  0.0226 -1.0579  0.2615
   20MOL   C82720245   2.651   6.335   6.600  0.3454 -0.4613  0.0561
   20MOL   N82820246   2.703   6.385   6.720 -0.3571 -0.2286  0.8693
   20MOL   C82920247   2.633   6.435   6.828 -0.0242 -0.3792  0.2743
   20MOL   C83020248   2.509   6.490   6.810  0.1727 -0.1867  0.2589
   20MOL   C83120249   2.437   6.541   6.920 -0.1835  0.9035 -0.4513
   20MOL   C83220250   2.490   6.520   7.049 -0.2732 -0.5341 -0.0945
   20MOL   N83320251   2.407   6.546   7.159 -0.0815 -0.4355  0.8942
   20MOL   C83420252   2.434   6.519   7.295 -0.4532 -0.2328 -0.4916
   20MOL   C83520253   2.407   6.400   7.363  0.0771  0.3736  0.2189
   20MOL   C83620254   2.429   6.379   7.500  0.5259 -0.1311  0.3827
   20MOL   C83720255   2.477   6.485   7.573 -0.1363  0.2956 -0.0417
   20MOL   C83820256   2.479   6.475   7.720  0.1673  0.0473 -0.2127
   20MOL   C83920257   2.497   6.611   7.510 -0.2248 -0.1580 -0.2172
   20MOL   C84020258   2.474   6.631   7.372 -0.6101 -0.1571 -0.8390
   20MOL   C84120259   2.616   6.465   7.067  0.2978 -0.4654 -0.5020
   20MOL   C84220260   2.690   6.426   6.957  0.2483 -1.3507 -0.6952
   20MOL   C84320261   2.729   6.337   6.480  0.5412  0.1590  0.3412
   20MOL   C84420262   2.677   6.285   6.362 -0.0788  0.0309 -0.1242
   20MOL   C84520263   2.653   6.120   6.054  0.3269 -0.5325  0.1521
   20MOL   C84620264   2.734   6.039   5.975  0.4132 -0.5283 -0.0224
   20MOL   H84720265   2.863   5.723   5.970 -2.3640 -0.4639  1.6143
   20MOL   H84820266   2.725   5.752   6.166 -0.1713 -1.6808 -2.7399
   20MOL   H84920267   2.593   5.892   6.307  0.7299  1.1017  0.8926
   20MOL   H85020268   2.420   6.104   6.261  0.1051  0.1529  1.1464
   20MOL   H85120269   2.385   6.164   6.473 -0.4677  1.3446 -2.6502
   20MOL   H85220270   2.472   6.260   6.692  0.5702  1.9352  0.8971
   20MOL   H85320271   2.802   6.387   6.743 -0.6867  0.7035  2.2184
   20MOL   H85420272   2.445   6.502   6.724  0.1027  0.7307  0.4294
   20MOL   H85520273   2.337   6.575   6.896  0.2278  2.0206 -0.6499
   20MOL   H85620274   2.307   6.551   7.142 -0.3242 -1.0456  2.1087
   20MOL   H85720275   2.365   6.332   7.290 -0.1758  1.6002 -0.7951
   20MOL   H85820276   2.405   6.284   7.545 -0.1522 -1.0929 -1.9583
   20MOL   H85920277   2.413   6.393   7.751 -1.0667  1.1293  0.0749
   20MOL   H86020278   2.431   6.561   7.766  0.1942  0.1231 -0.3270
   20MOL   H86120279   2.528   6.686   7.582  0.7764 -0.9353  0.1735
   20MOL   H86220280   2.486   6.731   7.332 -1.6047  0.7767  1.1179
   20MOL   H86320281   2.662   6.433   7.160 -0.1648  1.7645  0.5233
   20MOL   H86420282   2.781   6.370   6.972  0.0381 -1.5467 -0.1165
   20MOL   H86520283   2.821   6.393   6.483  1.7726 -1.7765 -0.7942
   20MOL   H86620284   2.747   6.286   6.280 -0.7217  1.3382 -0.6728
   20MOL   H86720285   2.634   6.221   6.019 -0.9428 -1.2355 -1.2566
   20MOL   H86820286   2.770   6.082   5.883  0.4027  0.3611  0.3876
   20MOL   N86920287   2.612   6.470   7.772 -0.4269 -0.3937  0.3806
   20MOL   C87020288   2.619   6.379   7.887 -0.8164  0.1926  0.3704
   20MOL   C87120289   2.732   6.301   7.904  0.1208  0.1726  0.4995
   20MOL   C87220290   2.739   6.206   0.028  0.8347  0.0616  0.1896
   20MOL   C87320291   2.637   6.193   0.123  0.9400 -0.4570  0.3024
   20MOL   N87420292   2.641   6.096   0.228 -0.4098  0.3960  0.7339
   20MOL   C87520293   2.580   5.972   0.221  0.0697  0.3316 -0.7316
   20MOL   C87620294   2.621   5.868   0.307  0.0927 -0.1675 -0.2992
   20MOL   C87720295   2.571   5.739   0.302  0.4238  0.4521 -0.0950
   20MOL   C87820296   2.471   5.700   0.209 -0.1291  0.2897 -0.0369
   20MOL   N87920297   2.434   5.566   0.194  0.3384 -0.3391  0.3436
   20MOL   C88020298   2.311   5.523   0.143  0.3503  0.5422 -0.6090
   20MOL   C88120299   2.307   5.401   0.076 -0.4393  0.1737 -0.8721
   20MOL   C88220300   2.187   5.335   0.045 -0.4623 -0.1675  0.5484
   20MOL   C88320301   2.066   5.399   0.071 -0.0979 -0.7524  0.1683
   20MOL   N88420302   1.944   5.347   0.031 -0.3823 -0.2549  0.0564
   20MOL   C88520303   1.936   5.247   7.920 -0.3126  0.7518 -0.4290
   20MOL   C88620304   1.864   5.134   7.946  0.2839  0.2558 -0.4875
   20MOL   C88720305   1.844   5.032   7.850 -0.0499 -0.1371 -0.7268
   20MOL   C88820306   1.914   5.035   7.732  0.1968  0.1829 -0.0381
   20MOL   C88920307   1.921   4.923   7.631  0.1596 -0.5295  0.4968
   20MOL   C89020308   1.988   5.152   7.702 -0.2150 -0.6203 -0.6104
   20MOL   C89120309   2.002   5.258   7.794  0.2700 -0.0416  0.2904
   20MOL   C89220310   2.069   5.522   0.135  0.1366 -0.1302  0.1669
   20MOL   C89320311   2.189   5.586   0.176 -0.5525  0.1679  0.0783
   20MOL   C89420312   2.420   5.803   0.124 -0.0307 -0.1479 -0.1945
   20MOL   C89520313   2.472   5.941   0.124  0.0017  0.0428  0.1956
   20MOL   C89620314   2.525   6.271   0.101  0.2843 -0.3897  0.4772
   20MOL   C89720315   2.514   6.370   7.981  0.2874 -0.1380 -0.0826
   20MOL   H89820316   2.684   6.442   7.708 -2.5932 -0.8572 -1.9493
   20MOL   H89920317   2.807   6.302   7.826  0.7850  1.4418  1.1417
   20MOL   H90020318   2.817   6.132   0.034  0.2061 -0.3789  3.3709
   20MOL   H90120319   2.730   6.099   0.276  0.3966 -1.4395 -0.6015
   20MOL   H90220320   2.697   5.889   0.381 -1.2816 -2.5908  1.8982
   20MOL   H90320321   2.606   5.664   0.371 -0.7230 -1.3896 -1.4542
   20MOL   H90420322   2.509   5.499   0.202  1.3927  0.8730  0.8212
   20MOL   H90520323   2.393   5.348   0.037  0.2552  0.0531  0.8064
   20MOL   H90620324   2.177   5.243   7.971 -1.1552  0.3161 -0.1362
   20MOL   H90720325   1.868   5.353   0.098 -0.7197  1.5235 -0.4708
   20MOL   H90820326   1.797   5.134   0.049  1.3657  2.3602  0.3961
   20MOL   H90920327   1.772   4.963   7.891 -0.4356 -0.7834 -2.4742
   20MOL   H91020328   2.008   4.946   7.569 -2.0105  1.5590 -1.8402
   20MOL   H91120329   1.825   4.920   7.580  0.0210 -0.5786  0.7621
   20MOL   H91220330   2.044   5.175   7.613  2.1196  0.1081  1.0070
   20MOL   H91320331   2.058   5.347   7.770  1.1715 -0.6291  0.1834
   20MOL   H91420332   1.977   5.573   0.160 -0.4903 -0.1182 -2.0308
   20MOL   H91520333   2.180   5.681   0.226 -0.9859  0.3131 -0.2679
   20MOL   H91620334   2.343   5.785   0.051 -0.5233 -1.6899  0.6829
   20MOL   H91720335   2.422   6.008   0.056 -0.5077  0.7703  1.2646
   20MOL   H91820336   2.444   6.255   0.169  0.7700 -2.7830  0.5294
   20MOL   H91920337   2.428   6.436   0.004 -1.4712 -2.2061 -1.8061
   20MOL   N92020338   1.953   4.801   7.698  0.6556  0.1032  0.4468
   20MOL   C92120339   1.997   4.691   7.624 -0.4426  0.8958 -0.1899
   20MOL   C92220340   2.064   4.588   7.686 -0.6930 -0.0285 -0.3852
   20MOL   C92320341   2.105   4.469   7.621 -0.1788 -1.0949  0.3906
   20MOL   C92420342   2.072   4.447   7.490  0.8851  0.4377 -0.3090
   20MOL   N92520343   2.098   4.323   7.431  0.1571  0.1771  0.1043
   20MOL   C92620344   2.030   4.248   7.338 -0.0359  1.0222  0.0556
   20MOL   C92720345   1.891   4.260   7.326 -1.0085  0.7224 -0.1032
   20MOL   C92820346   1.822   4.183   7.238  0.0335  0.2512 -0.2413
   20MOL   C92920347   1.898   4.103   7.144  0.8145  0.5455  0.3669
   20MOL   N93020348   1.832   4.020   7.049  0.5992 -0.6500  0.1414
   20MOL   C93120349   1.737   4.057   6.961 -0.2497  0.3878  1.3050
   20MOL   C93220350   1.703   4.196   6.944  0.5133  0.1565 -0.4304
   20MOL   C93320351   1.622   4.241   6.842  0.1376 -0.0787 -0.1771
   20MOL   C93420352   1.553   4.145   6.767 -0.0141 -0.0257  0.6259
   20MOL   N93520353   1.468   4.179   6.657  1.1712  0.2489  0.5331
   20MOL   C93620354   1.378   4.282   6.637  0.5316  0.2749 -0.3280
   20MOL   C93720355   1.319   4.294   6.516 -0.5079  0.4227 -0.2300
   20MOL   C93820356   1.209   4.381   6.498 -0.3188  0.9277 -0.0698
   20MOL   C93920357   1.173   4.469   6.601  0.4431 -0.1114 -0.7001
   20MOL   C94020358   1.067   4.573   6.574 -0.4142  0.3477 -0.3283
   20MOL   C94120359   1.238   4.457   6.729 -0.0157  0.0364  0.1355
   20MOL   C94220360   1.334   4.357   6.747  0.0998 -0.8923 -0.2824
   20MOL   C94320361   1.580   4.006   6.780  0.1637  0.2518 -0.3730
   20MOL   C94420362   1.677   3.963   6.881 -0.0161 -0.0298 -0.1002
   20MOL   C94520363   2.036   4.094   7.144  1.1751 -0.3658  0.0338
   20MOL   C94620364   2.104   4.168   7.244  0.4959 -0.8220 -0.0151
   20MOL   C94720365   2.009   4.553   7.418 -0.5631  0.0374 -0.3179
   20MOL   C94820366   1.976   4.670   7.485 -0.3932  0.0390 -0.3271
   20MOL   H94920367   1.964   4.804   7.799  1.4693  0.4755  0.3464
   20MOL   H95020368   2.069   4.584   7.793 -1.2202  0.0338 -0.3576
   20MOL   H95120369   2.135   4.388   7.685  3.2925  0.8096  1.3291
   20MOL   H95220370   2.158   4.260   7.484  1.0970 -0.1924 -1.3578
   20MOL   H95320371   1.824   4.316   7.390 -1.9516 -1.9821  1.3546
   20MOL   H95420372   1.715   4.181   7.224  0.0594  0.1271 -0.4301
   20MOL   H95520373   1.875   3.931   7.027 -1.3969 -1.7650  0.6368
   20MOL   H95620374   1.745   4.272   7.008  0.2965 -0.3897  0.3645
   20MOL   H95720375   1.604   4.346   6.826  2.0095  0.0936 -1.2992
   20MOL   H95820376   1.493   4.131   6.571 -0.5437 -0.4872  0.4231
   20MOL   H95920377   1.357   4.234   6.434 -1.4121  1.9528 -1.7963
   20MOL   H96020378   1.170   4.387   6.397 -1.0659 -0.8755  0.1028
   20MOL   H96120379   1.125   4.663   6.555 -0.3824  0.0881 -1.4913
   20MOL   H96220380   1.001   4.597   6.658 -2.3265  1.0122 -1.9747
   20MOL   H96320381   1.207   4.522   6.810 -1.9607  0.2880 -0.7877
   20MOL   H96420382   1.376   4.323   6.841  0.4208  2.6872  0.9515
   20MOL   H96520383   1.530   3.937   6.714 -0.4600  0.5950 -0.2666
   20MOL   H96620384   1.692   3.857   6.892 -0.2404  0.0703  1.2440
   20MOL   H96720385   2.093   4.041   7.069  1.4682  1.0622 -0.7760
   20MOL   H96820386   2.212   4.163   7.244  0.5618  0.6322  0.0036
   20MOL   H96920387   1.979   4.539   7.316 -0.4258 -2.2736 -0.0702
   20MOL   H97020388   1.920   4.740   7.425 -0.8570 -0.3295 -0.3301
   20MOL   N97120389   0.984   4.562   6.460 -0.7804  0.4475  0.4556
   20MOL   C97220390   0.893   4.454   6.449 -0.1223 -0.3215 -0.2186
   20MOL   C97320391   0.799   4.465   6.344 -0.3166 -0.7095 -0.3381
   20MOL   C97420392   0.699   4.365   6.329  0.4845 -0.1814 -0.0870
   20MOL   C97520393   0.678   4.261   6.422 -0.1040  0.6234  0.2168
   20MOL   N97620394   0.570   4.174   6.408  0.0476 -0.1454  0.0720
   20MOL   C97720395   0.456   4.160   6.488 -0.5280  0.6032  0.8539
   20MOL   C97820396   0.430   4.234   6.604  0.0826 -0.5518  0.5085
   20MOL   C97920397   0.306   4.218   6.673 -0.6557 -0.2812 -0.0449
   20MOL   C98020398   0.212   4.121   6.633  0.1236 -0.2402 -0.0645
   20MOL   N98120399   0.098   4.103   6.714  0.7191  0.2044 -0.5827
   20MOL   C98220400   7.961   4.046   6.668 -0.2190  0.1248  0.3395
   20MOL   C98320401   7.911   4.089   6.541  0.0133 -0.3847 -0.2910
   20MOL   C98420402   7.784   4.048   6.505 -0.1715 -0.1394 -0.3057
   20MOL   C98520403   7.722   3.949   6.577 -0.3401  0.4848 -0.2279
   20MOL   N98620404   7.595   3.901   6.536  0.5538  0.2583 -0.0631
   20MOL   C98720405   7.512   3.952   6.435 -0.8117 -0.3129 -0.4385
   20MOL   C98820406   7.457   3.855   6.350 -0.6574 -0.0306  0.2856
   20MOL   C98920407   7.369   3.907   6.252  0.2504 -0.5267 -0.3225
   20MOL   C99020408   7.341   4.044   6.242 -0.8938  0.9000 -0.1967
   20MOL   C99120409   7.262   4.084   6.121  0.6186  0.2506 -0.5560
   20MOL   C99220410   7.385   4.129   6.343  0.4294  0.5579  0.3247
   20MOL   C99320411   7.475   4.088   6.436 -0.7223  0.8754  0.4043
   20MOL   C99420412   7.769   3.907   6.707  0.3938  0.2435  0.7937
   20MOL   C99520413   7.888   3.963   6.756 -0.5119 -0.1619  0.4868
   20MOL   C99620414   0.247   4.034   6.525 -0.0110 -0.6391  0.3486
   20MOL   C99720415   0.367   4.051   6.460  0.5318  0.1488 -0.6868
   20MOL   C99820416   0.776   4.246   6.520 -0.3320  0.2147  0.5996
   20MOL   C99920417   0.881   4.341   6.537 -0.1977  0.0097 -1.0544
   20MOL     H120418   1.011   4.623   6.384 -1.8692  0.1123 -0.1985
   20MOL     H220419   0.813   4.542   6.270  0.7716  0.1899  0.7878
   20MOL     H320420   0.623   4.392   6.256 -1.9896  0.5586  2.6403
   20MOL     H420421   0.541   4.154   6.313 -0.5500 -1.0049  0.4241
   20MOL     H520422   0.506   4.304   6.636  0.9332 -1.4663  0.5220
   20MOL     H620423   0.295   4.282   6.759  2.4426  1.3073 -0.7664
   20MOL     H720424   0.109   4.129   6.811  0.0481 -1.9785  0.1207
   20MOL     H820425   7.968   4.151   6.474  0.7780  0.4377  1.0936
   20MOL     H920426   7.749   4.076   6.407  0.8273 -2.9187 -1.4977
   20MOL    H1020427   7.585   3.801   6.550  1.8358  0.0016 -0.8501
   20MOL    H1120428   7.483   3.751   6.357  2.1097  0.5161 -1.1253
   20MOL    H1220429   7.321   3.849   6.175  2.8645 -0.8707 -1.7318
   20MOL    H1320430   7.326   4.105   6.035 -0.3841 -1.6633 -1.8082
   20MOL    H1420431   7.204   4.174   6.142 -1.5356 -0.6726 -2.2687
   20MOL    H1520432   7.350   4.231   6.335 -0.3100  0.1818 -1.5481
   20MOL    H1620433   7.514   4.162   6.504  1.1646  1.0424 -0.8207
   20MOL    H1720434   7.714   3.836   6.768 -0.7300  1.8397  1.6918
   20MOL    H1820435   7.921   3.936   6.855  0.3499  1.9450  0.7983
   20MOL    H1920436   0.178   3.958   6.492 -1.2070 -0.4825  2.3689
   20MOL    H2020437   0.388   3.995   6.370  1.4427 -1.4795  0.5172
   20MOL    H2120438   0.775   4.167   6.594 -0.7117 -1.3172 -1.0097
   20MOL    H2220439   0.948   4.325   6.620 -2.0777  0.8706  0.6868
   20MOL    H2320440   7.182   4.022   6.081 -1.8778  3.2108 -0.3277
   21MOL     N120441   0.590   2.566   6.997  0.3411 -0.2954  0.1006
   21MOL     C220442   0.552   2.600   6.868 -0.3976  0.1131  0.1816
   21MOL     C320443   0.441   2.542   6.804  0.3548 -0.0638  0.2487
   21MOL     C420444   0.411   2.578   6.668 -0.1204 -0.8605 -0.1760
   21MOL     C520445   0.495   2.673   6.601  0.3546 -0.3710 -0.5642
   21MOL     N620446   0.479   2.693   6.462  0.0638  0.3350 -0.2888
   21MOL     C720447   0.572   2.751   6.374 -0.0389  0.3201  0.3426
   21MOL     C820448   0.623   2.882   6.395 -0.1359 -0.5636 -0.8710
   21MOL     C920449   0.711   2.941   6.303  0.3898  0.0751 -0.1015
   21MOL    C1020450   0.747   2.869   6.189  0.2055 -0.0985 -0.1665
   21MOL    N1120451   0.826   2.920   6.090 -0.2020 -0.5752  0.1820
   21MOL    C1220452   0.903   3.037   6.089  0.8880  0.0414 -0.3699
   21MOL    C1320453   0.854   3.167   6.128  0.2402  0.0626  0.0294
   21MOL    C1420454   0.926   3.283   6.109 -0.0708 -0.0390 -0.0305
   21MOL    C1520455   1.054   3.271   6.048  0.3565 -0.2389 -0.5028
   21MOL    N1620456   1.122   3.387   6.017  0.6408 -0.2672  0.1710
   21MOL    C1720457   1.123   3.452   5.898  0.1549 -0.3736 -0.5746
   21MOL    C1820458   1.093   3.388   5.774  0.3299  0.0184 -0.2694
   21MOL    C1920459   1.112   3.454   5.648 -0.4923  0.0879 -0.2830
   21MOL    C2020460   1.156   3.586   5.647  0.4324 -0.0433 -0.3994
   21MOL    C2120461   1.164   3.666   5.515  0.6960 -0.3260 -0.4602
   21MOL    C2220462   1.184   3.650   5.768  0.4778 -0.1679 -0.0158
   21MOL    C2320463   1.162   3.591   5.895  0.5747  0.7599 -0.2942
   21MOL    C2420464   1.105   3.147   6.007  0.1405  0.5073  0.1030
   21MOL    C2520465   1.026   3.032   6.022 -0.6539 -0.5325  1.2271
   21MOL    C2620466   0.692   2.739   6.163 -0.3985 -0.6051 -0.4975
   21MOL    C2720467   0.610   2.679   6.264  0.6762  0.2076  0.7316
   21MOL    C2820468   0.599   2.739   6.673 -0.5539  0.3801 -0.3048
   21MOL    C2920469   0.628   2.695   6.798 -0.6586  0.3102 -0.0859
   21MOL    H3020470   0.515   2.517   7.043  0.6385  1.6669  2.7761
   21MOL    H3120471   0.367   2.478   6.850 -0.5228  1.0962  0.4966
   21MOL    H3220472   0.340   2.528   6.603 -0.0576  0.0135 -0.9296
   21MOL    H3320473   0.416   2.629   6.416 -0.4227  2.3125 -2.4900
   21MOL    H3420474   0.586   2.947   6.473  0.8495 -0.5342 -0.4326
   21MOL    H3520475   0.752   3.039   6.324 -1.0320  0.6611  0.0062
   21MOL    H3620476   0.843   2.851   6.018 -0.3589 -0.1581 -0.2610
   21MOL    H3720477   0.751   3.179   6.160 -0.1985  0.7202 -1.5704
   21MOL    H3820478   0.885   3.380   6.134 -1.2712 -1.1681  2.4714
   21MOL    H3920479   1.144   3.446   6.096 -0.2308 -1.3343  1.2399
   21MOL    H4020480   1.058   3.286   5.774 -0.3719  0.2629  0.4558
   21MOL    H4120481   1.076   3.405   5.559 -1.9595  0.6150  0.0074
   21MOL    H4220482   1.227   3.754   5.529  0.4298 -0.1155 -0.5710
   21MOL    H4320483   1.061   3.702   5.510  0.9278  0.2118 -1.4141
   21MOL    H4420484   1.209   3.754   5.758  1.6505 -0.4317  0.0762
   21MOL    H4520485   1.173   3.653   5.982  0.3751 -0.2286  0.4473
   21MOL    H4620486   1.199   3.141   5.954 -1.0729  2.4982 -2.3837
   21MOL    H4720487   1.067   2.940   5.983 -1.0922 -1.9154  3.9072
   21MOL    H4820488   0.718   2.696   6.067  0.0163 -0.6416 -0.3724
   21MOL    H4920489   0.569   2.581   6.247  1.3979 -0.4540  2.6877
   21MOL    H5020490   0.671   2.803   6.625 -0.6407 -0.1867 -1.2066
   21MOL    H5120491   0.716   2.744   6.837 -1.0158 -0.2865  1.4831
   21MOL    H5220492   0.630   2.639   7.054  2.5603 -0.9752 -0.5064
   21MOL    N5320493   1.180   3.582   5.398  0.3466  0.1089  0.3426
   21MOL    C5420494   1.168   3.641   5.269  0.7348  0.1428  0.1346
   21MOL    C5520495   1.219   3.560   5.166 -0.0135  0.3006  0.1682
   21MOL    C5620496   1.202   3.610   5.037  0.4136  0.6454 -0.3695
   21MOL    C5720497   1.129   3.729   5.011 -0.1667 -0.6004  0.3143
   21MOL    N5820498   1.112   3.775   4.883 -0.5269  0.5507  0.0937
   21MOL    C5920499   1.188   3.746   4.764  0.8564 -0.3947 -0.4071
   21MOL    C6020500   1.324   3.726   4.760  0.1463 -0.0899 -0.2731
   21MOL    C6120501   1.394   3.709   4.641  0.5020 -1.1052  0.0696
   21MOL    C6220502   1.325   3.696   4.516 -0.0153 -0.3595 -0.2315
   21MOL    N6320503   1.402   3.670   4.404 -0.4911  0.5556  0.2481
   21MOL    C6420504   1.357   3.604   4.293 -0.4098 -0.2191  0.6884
   21MOL    C6520505   1.288   3.481   4.306  0.2622 -0.6499  0.1047
   21MOL    C6620506   1.240   3.423   4.185  0.4744 -0.5925 -0.7106
   21MOL    C6720507   1.247   3.491   4.060  0.1700 -0.4179  0.2575
   21MOL    N6820508   1.195   3.434   3.944  0.2308 -0.4831  0.0013
   21MOL    C6920509   1.122   3.499   3.844 -1.2166 -0.1805 -0.0035
   21MOL    C7020510   1.130   3.459   3.710  0.0132  0.8801 -0.6970
   21MOL    C7120511   1.075   3.535   3.606  1.1312 -0.4425 -0.0158
   21MOL    C7220512   1.012   3.661   3.631 -0.1694  0.1886  0.7331
   21MOL    C7320513   0.953   3.737   3.514  0.0306 -0.3157  0.5891
   21MOL    C7420514   0.998   3.705   3.763 -0.0326 -0.0457 -0.4688
   21MOL    C7520515   1.046   3.620   3.868  0.3779  0.1449 -0.0665
   21MOL    C7620516   1.315   3.613   4.053  0.3077 -0.4115  0.3387
   21MOL    C7720517   1.376   3.669   4.169 -0.7056  0.5729  0.3871
   21MOL    C7820518   1.183   3.703   4.521  0.2162  0.5356 -0.4531
   21MOL    C7920519   1.116   3.736   4.642  0.4242  0.2665  0.4039
   21MOL    C8020520   1.075   3.801   5.117 -0.1468 -0.9950  0.1719
   21MOL    C8120521   1.088   3.749   5.243  0.3642 -0.1313 -0.3340
   21MOL    H8220522   1.193   3.483   5.409 -1.1521  0.0745  2.0646
   21MOL    H8320523   1.260   3.462   5.187 -0.6159 -0.4495 -2.0531
   21MOL    H8420524   1.242   3.552   4.956 -0.1157 -2.1500  1.3077
   21MOL    H8520525   1.031   3.828   4.855 -2.2095 -1.4288  1.0897
   21MOL    H8620526   1.380   3.751   4.849  1.5081 -1.4875 -0.7123
   21MOL    H8720527   1.502   3.709   4.642  0.5601 -0.7861 -2.4598
   21MOL    H8820528   1.488   3.722   4.403  0.6231 -1.2097 -2.1831
   21MOL    H8920529   1.275   3.418   4.393 -0.1836 -0.4034  0.2146
   21MOL    H9020530   1.194   3.325   4.188  1.5791 -1.1490 -1.7506
   21MOL    H9120531   1.244   3.349   3.921  0.0671 -0.2281 -1.3567
   21MOL    H9220532   1.185   3.368   3.690 -2.0400 -0.7098  0.5878
   21MOL    H9320533   1.098   3.506   3.505 -0.4074 -0.2706 -0.4278
   21MOL    H9420534   0.868   3.787   3.561  0.6872  1.8790 -0.5004
   21MOL    H9520535   0.914   3.671   3.436  2.8105 -1.2795 -0.0336
   21MOL    H9620536   0.954   3.803   3.774  1.0349  0.3329  0.5868
   21MOL    H9720537   1.040   3.656   3.970 -1.5295  0.0419 -0.1188
   21MOL    H9820538   1.330   3.671   3.963  0.4734  0.0155  0.6422
   21MOL    H9920539   1.438   3.758   4.168  0.1535  0.0308  2.5543
   21MOL   H10020540   1.122   3.692   4.433 -5.1354  0.1576  3.0672
   21MOL   H10120541   1.008   3.745   4.637  0.2326 -1.7355  0.6648
   21MOL   H10220542   1.017   3.892   5.109 -0.2943 -1.0241  0.8611
   21MOL   H10320543   1.053   3.818   5.318  1.7048  1.8882 -1.5550
   21MOL   N10420544   1.045   3.822   3.454 -0.5898 -0.0277  0.3668
   21MOL   C10520545   0.997   3.918   3.363 -0.6013  0.2423 -0.5873
   21MOL   C10620546   1.068   4.034   3.360  0.1184 -1.0404 -0.5067
   21MOL   C10720547   1.040   4.137   3.266 -0.5945 -0.4282 -0.2227
   21MOL   C10820548   0.938   4.119   3.171  0.5411  0.3166  0.2234
   21MOL   N10920549   0.909   4.209   3.067  0.0794 -0.3748 -0.0294
   21MOL   C11020550   0.935   4.347   3.061 -0.5860  0.0100 -0.1087
   21MOL   C11120551   0.939   4.428   3.175  0.5809  0.7931 -0.5504
   21MOL   C11220552   0.954   4.569   3.167  0.9239  0.4232  0.4527
   21MOL   C11320553   0.986   4.626   3.043 -0.2360  0.0357  0.3852
   21MOL   N11420554   1.002   4.764   3.032  0.2271  0.1418 -0.0464
   21MOL   C11520555   1.076   4.853   3.113 -0.2782  0.0379 -0.1757
   21MOL   C11620556   1.065   4.992   3.104  0.4773 -0.1168 -0.2183
   21MOL   C11720557   1.131   5.079   3.194 -0.5342 -0.2632 -0.4088
   21MOL   C11820558   1.208   5.020   3.294  0.3244 -1.1725  0.2887
   21MOL   N11920559   1.282   5.101   3.378 -0.9930  0.4154 -0.0892
   21MOL   C12020560   1.423   5.087   3.402  0.2881 -0.1599  0.7441
   21MOL   C12120561   1.507   5.004   3.324 -0.5773 -0.9880 -0.2597
   21MOL   C12220562   1.639   4.973   3.358 -0.4944 -0.6909 -0.4048
   21MOL   C12320563   1.695   5.047   3.467  0.2282  0.0699  0.4288
   21MOL   C12420564   1.840   5.024   3.493  0.4530 -0.7445 -0.0273
   21MOL   C12520565   1.613   5.125   3.549 -0.0722 -0.1140 -0.2106
   21MOL   C12620566   1.480   5.148   3.514  0.2847  0.0144 -0.3601
   21MOL   C12720567   1.224   4.884   3.310  0.3653 -0.3317 -0.5859
   21MOL   C12820568   1.161   4.799   3.216 -0.6591 -0.4466  0.0415
   21MOL   C12920569   0.984   4.543   2.924 -1.0955 -0.0289 -0.4108
   21MOL   C13020570   0.958   4.406   2.934 -0.1323 -0.1028 -0.5643
   21MOL   C13120571   0.869   3.996   3.170  0.4419  0.4121 -0.2300
   21MOL   C13220572   0.898   3.894   3.265 -0.2197 -0.5110  0.1898
   21MOL   H13320573   1.131   3.845   3.501  0.8274 -1.3174 -1.4976
   21MOL   H13420574   1.153   4.052   3.424 -3.2429  1.1997  3.6415
   21MOL   H13520575   1.086   4.235   3.272 -0.5138 -0.1706 -4.0427
   21MOL   H13620576   0.901   4.151   2.985  0.5204  1.0272 -1.0694
   21MOL   H13720577   0.917   4.379   3.269  0.8473  2.9685  0.6882
   21MOL   H13820578   0.952   4.622   3.261  1.3753  2.1266 -0.4787
   21MOL   H13920579   0.980   4.804   2.942  2.9580 -0.9259 -1.2137
   21MOL   H14020580   1.002   5.039   3.030 -1.0388 -0.6183  0.7178
   21MOL   H14120581   1.130   5.186   3.179 -1.1012 -0.1991  0.1238
   21MOL   H14220582   1.235   5.187   3.404 -0.1865  1.1286 -0.9130
   21MOL   H14320583   1.465   4.961   3.234 -0.7718  1.5337 -1.4341
   21MOL   H14420584   1.698   4.908   3.295 -2.7337 -3.2398  0.0420
   21MOL   H14520585   1.887   5.101   3.432  1.2352 -0.8090  0.4852
   21MOL   H14620586   1.873   4.933   3.443  0.3664 -0.4391 -0.6464
   21MOL   H14720587   1.666   5.171   3.632  0.2719 -0.4872 -0.2228
   21MOL   H14820588   1.413   5.211   3.571  1.2201  0.2713  0.4601
   21MOL   H14920589   1.289   4.845   3.387 -0.7926 -2.1005 -0.4796
   21MOL   H15020590   1.174   4.694   3.234 -1.7085 -0.5250  0.3225
   21MOL   H15120591   1.013   4.590   2.831  1.9133 -1.5453 -0.2948
   21MOL   H15220592   0.958   4.348   2.843 -2.0976 -0.1014 -0.5807
   21MOL   H15320593   0.809   3.958   3.088 -0.6664 -0.3702  0.9218
   21MOL   H15420594   0.851   3.798   3.247  1.3630 -1.3347  0.3758
   21MOL   N15520595   1.867   5.041   3.633 -0.7167  0.3448  0.2322
   21MOL   C15620596   1.965   5.122   3.696  0.8467 -0.9179  0.2303
   21MOL   C15720597   2.075   5.191   3.624  0.4509  0.2137  0.3949
   21MOL   C15820598   2.176   5.252   3.696  0.1565 -0.0634 -0.5849
   21MOL   C15920599   2.160   5.270   3.839 -0.1548  0.0308 -0.0260
   21MOL   N16020600   2.268   5.321   3.913  0.0113 -0.2426 -0.2230
   21MOL   C16120601   2.357   5.420   3.869  0.2531 -0.6658 -0.3360
   21MOL   C16220602   2.488   5.414   3.920 -0.2796  0.1276  0.2936
   21MOL   C16320603   2.581   5.516   3.888 -0.7178 -0.1861  0.8657
   21MOL   C16420604   2.542   5.624   3.809 -0.0315 -0.1609  0.9788
   21MOL   N16520605   2.637   5.720   3.782  0.1157  0.2239 -0.4460
   21MOL   C16620606   2.620   5.851   3.734  0.1324 -0.0041 -0.4706
   21MOL   C16720607   2.721   5.913   3.645 -0.0959  0.5947 -0.4626
   21MOL   C16820608   2.691   6.033   3.580 -0.2318 -0.7607 -0.2440
   21MOL   C16920609   2.563   6.092   3.587 -0.7842  0.2593  0.1431
   21MOL   N17020610   2.537   6.211   3.514 -0.1892 -0.1745  0.1633
   21MOL   C17120611   2.430   6.244   3.431  0.1434  0.0614 -0.4662
   21MOL   C17220612   2.414   6.375   3.385  0.0582 -0.2702 -0.1183
   21MOL   C17320613   2.311   6.406   3.298  0.1374  0.5064 -0.7301
   21MOL   C17420614   2.217   6.310   3.251  0.0891 -0.2146  0.1941
   21MOL   C17520615   2.122   6.345   3.136 -0.2391  0.2087 -0.1197
   21MOL   C17620616   2.229   6.185   3.307 -0.2018 -0.6404  0.3224
   21MOL   C17720617   2.338   6.148   3.390  0.3616 -0.2077 -0.4506
   21MOL   C17820618   2.463   6.033   3.676 -0.7169 -0.2103 -0.8740
   21MOL   C17920619   2.497   5.921   3.755 -0.0417 -0.4013 -0.2589
   21MOL   C18020620   2.416   5.623   3.743 -0.3345  0.4525  0.3422
   21MOL   C18120621   2.326   5.519   3.773  0.3040  0.6747  0.2644
   21MOL   C18220622   2.049   5.211   3.902  0.0566 -0.2086 -0.5632
   21MOL   C18320623   1.943   5.148   3.836  0.1231  0.2252  0.3639
   21MOL   H18420624   1.818   4.976   3.692  0.9150  0.9132  2.3009
   21MOL   H18520625   2.083   5.160   3.521 -1.4348  0.0632  0.2780
   21MOL   H18620626   2.262   5.295   3.647  0.6714 -0.6872 -0.2360
   21MOL   H18720627   2.249   5.329   4.012  1.6554  2.0589 -0.0375
   21MOL   H18820628   2.520   5.337   3.989 -2.2194  0.8534  2.0493
   21MOL   H18920629   2.674   5.513   3.943  1.0293  0.6700 -1.8856
   21MOL   H19020630   2.732   5.686   3.781  0.4972  1.2607 -0.5737
   21MOL   H19120631   2.820   5.871   3.636 -0.6135 -0.8472  0.4239
   21MOL   H19220632   2.757   6.075   3.506 -1.0652 -0.2845 -0.7229
   21MOL   H19320633   2.614   6.276   3.509 -0.9051  0.8902  2.2916
   21MOL   H19420634   2.496   6.436   3.421  0.0463  0.3264 -1.0940
   21MOL   H19520635   2.302   6.508   3.266  0.8442  1.4526  1.9294
   21MOL   H19620636   2.070   6.256   3.101 -0.4283 -0.1338  1.0010
   21MOL   H19720637   2.196   6.365   3.059  1.1979  1.1270  1.4519
   21MOL   H19820638   2.162   6.114   3.262 -2.0819  0.0066  2.0210
   21MOL   H19920639   2.352   6.044   3.415 -0.9429 -0.7538 -1.9316
   21MOL   H20020640   2.365   6.075   3.693 -0.9042 -1.7074  2.0216
   21MOL   H20120641   2.418   5.888   3.821  1.4766 -1.0554  1.2833
   21MOL   H20220642   2.388   5.700   3.674 -0.8170  1.5110  1.7023
   21MOL   H20320643   2.233   5.515   3.718  0.9487 -0.0670 -0.7911
   21MOL   H20420644   2.040   5.228   4.008 -1.7530  0.6145 -0.8308
   21MOL   H20520645   1.863   5.101   3.891  1.0001  0.0510  1.4839
   21MOL   N20620646   2.038   6.461   3.171 -0.1767 -0.0365  0.1783
   21MOL   C20720647   1.922   6.494   3.106 -0.0163 -0.3220  0.3220
   21MOL   C20820648   1.870   6.431   2.986  0.2301  0.2254  0.3355
   21MOL   C20920649   1.762   6.489   2.916  0.2135  0.0597 -0.0480
   21MOL   C21020650   1.685   6.591   2.976 -0.4101  0.5169 -0.8394
   21MOL   N21120651   1.578   6.649   2.903  0.3461  0.5023  0.2144
   21MOL   C21220652   1.509   6.607   2.790 -0.3294 -0.1188 -0.3959
   21MOL   C21320653   1.483   6.695   2.686 -0.0638  0.3683  0.4947
   21MOL   C21420654   1.433   6.649   2.564 -0.1270 -1.1748  0.1492
   21MOL   C21520655   1.403   6.511   2.540  0.3452 -0.0251  0.0380
   21MOL   N21620656   1.361   6.464   2.420 -0.3449  0.0390  0.8564
   21MOL   C21720657   1.235   6.474   2.367  0.0331 -0.5221  0.8579
   21MOL   C21820658   1.140   6.561   2.425 -0.0114 -0.5090 -0.8506
   21MOL   C21920659   1.010   6.566   2.379 -0.0201 -0.3284  0.6591
   21MOL   C22020660   0.963   6.471   2.279  0.1365 -0.3750  0.5825
   21MOL   N22120661   0.825   6.477   2.252 -0.6143  0.3487 -0.3733
   21MOL   C22220662   0.735   6.371   2.231 -0.2652 -0.0377 -0.0894
   21MOL   C22320663   0.600   6.400   2.203 -0.1712  0.1039 -0.1098
   21MOL   C22420664   0.503   6.298   2.181 -0.0399 -0.2914  0.1945
   21MOL   C22520665   0.534   6.165   2.187  0.2405  0.2436 -0.2532
   21MOL   C22620666   0.430   6.059   2.170 -0.3595  0.0694 -0.4905
   21MOL   C22720667   0.674   6.135   2.213 -0.0190  0.6979 -0.1637
   21MOL   C22820668   0.768   6.236   2.237 -0.1932 -0.4210 -0.2651
   21MOL   C22920669   1.059   6.382   2.223  0.1738  0.3497 -0.1208
   21MOL   C23020670   1.191   6.386   2.267 -0.5225  0.5683 -0.1464
   21MOL   C23120671   1.413   6.426   2.650  0.6052 -0.6048 -0.6403
   21MOL   C23220672   1.469   6.472   2.769  0.0832 -0.2607  0.2304
   21MOL   C23320673   1.728   6.646   3.101 -0.7330 -0.0908  0.3606
   21MOL   C23420674   1.852   6.605   3.158  0.1123 -0.0375  0.0183
   21MOL   H23520675   2.051   6.505   3.261 -0.6626 -0.0481  0.2538
   21MOL   H23620676   1.923   6.355   2.931  0.5116  1.3458 -0.9981
   21MOL   H23720677   1.745   6.460   2.813 -0.4667  2.0673 -0.5300
   21MOL   H23820678   1.556   6.745   2.926  1.1521  1.1680 -1.7303
   21MOL   H23920679   1.504   6.801   2.690 -2.3743  0.8667  0.2127
   21MOL   H24020680   1.426   6.721   2.484 -0.1873 -1.0939  0.2280
   21MOL   H24120681   1.419   6.388   2.388  1.2612  0.7494  2.0062
   21MOL   H24220682   1.165   6.632   2.502  2.0571 -0.6399 -1.3512
   21MOL   H24320683   0.955   6.650   2.420  0.1169  1.5608 -2.8149
   21MOL   H24420684   0.791   6.569   2.278 -1.6254 -0.1399  0.0793
   21MOL   H24520685   0.571   6.504   2.205 -0.0169  0.2670 -3.4202
   21MOL   H24620686   0.403   6.335   2.168 -0.1925 -2.1156 -5.1053
   21MOL   H24720687   0.329   6.096   2.191  0.1484  0.9398  0.4794
   21MOL   H24820688   0.449   5.983   2.245 -2.3057 -1.1930 -1.2276
   21MOL   H24920689   0.703   6.031   2.219 -2.1143 -0.1777 -3.5443
   21MOL   H25020690   0.868   6.203   2.263  0.3291  0.4890 -1.0773
   21MOL   H25120691   1.023   6.312   2.149 -0.5710 -0.6224  1.1378
   21MOL   H25220692   1.262   6.318   2.223 -2.4488 -1.0736 -0.7643
   21MOL   H25320693   1.392   6.320   2.641 -2.3882 -0.2351  1.3755
   21MOL   H25420694   1.491   6.405   2.851  0.9837 -4.2374 -3.1100
   21MOL   H25520695   1.672   6.720   3.157  0.0530 -0.3097  1.4510
   21MOL   H25620696   1.898   6.651   3.245  2.7263  0.8301 -1.7571
   21MOL   N25720697   0.443   6.013   2.036 -0.1786  0.5325  0.0654
   21MOL   C25820698   0.539   5.920   1.997 -0.1647 -0.5563 -0.3615
   21MOL   C25920699   0.606   5.953   1.879 -0.4742 -0.0424  0.2475
   21MOL   C26020700   0.722   5.887   1.839 -0.5082 -0.5114 -0.1821
   21MOL   C26120701   0.761   5.782   1.922  0.3211  0.8345 -0.8280
   21MOL   N26220702   0.874   5.702   1.890 -0.2626 -0.6781  0.4665
   21MOL   C26320703   0.901   5.662   1.760  0.0527  0.4501 -0.1499
   21MOL   C26420704   1.036   5.634   1.725 -0.1373  0.5244  0.3035
   21MOL   C26520705   1.076   5.585   1.603 -0.0495 -0.2326 -0.5571
   21MOL   C26620706   0.978   5.565   1.502  0.1493 -1.1209 -0.4676
   21MOL   N26720707   1.007   5.538   1.372  0.0633  0.1415  0.4502
   21MOL   C26820708   1.129   5.535   1.307  0.1306 -0.1634  0.1275
   21MOL   C26920709   1.227   5.635   1.336  0.5444  0.0616  0.5001
   21MOL   C27020710   1.354   5.640   1.278 -0.5375 -0.3898 -0.6165
   21MOL   C27120711   1.387   5.540   1.177 -0.0895  0.0272 -0.8576
   21MOL   N27220712   1.517   5.537   1.114  0.4549 -0.4613 -0.0647
   21MOL   C27320713   1.603   5.649   1.085  0.4237  0.2947  0.5867
   21MOL   C27420714   1.738   5.616   1.057 -0.0390 -0.1113  0.0450
   21MOL   C27520715   1.821   5.720   1.002 -0.0437  0.1628 -0.0893
   21MOL   C27620716   1.771   5.844   0.984 -0.4906 -0.5217  0.3085
   21MOL   C27720717   1.859   5.953   0.918 -0.1769 -0.8542 -0.2060
   21MOL   C27820718   1.638   5.875   1.022  0.3400 -0.6188  0.1032
   21MOL   C27920719   1.551   5.774   1.064  0.3745 -0.5367  0.4762
   21MOL   C28020720   1.287   5.454   1.132  0.4369 -0.8253  0.2469
   21MOL   C28120721   1.159   5.452   1.194  0.5440 -0.4303  0.1595
   21MOL   C28220722   0.842   5.572   1.541  0.0342 -0.1979  0.3328
   21MOL   C28320723   0.799   5.633   1.661 -0.9549 -0.6422  0.5226
   21MOL   C28420724   0.697   5.749   2.042 -0.2931  0.6629 -0.1658
   21MOL   C28520725   0.588   5.818   2.083  0.3225 -0.4709  0.1676
   21MOL   H28620726   0.401   6.069   1.962 -0.7028  1.1700  0.8371
   21MOL   H28720727   0.556   6.018   1.808  0.2237 -1.0754 -1.2180
   21MOL   H28820728   0.769   5.910   1.745 -1.4675 -1.6316 -0.9545
   21MOL   H28920729   0.933   5.664   1.962  1.0565  0.4776  0.0297
   21MOL   H29020730   1.120   5.666   1.786  0.1540  1.3197 -0.4888
   21MOL   H29120731   1.178   5.559   1.583 -0.3889 -1.8249 -0.2962
   21MOL   H29220732   0.935   5.567   1.307  1.8911  2.6518 -0.5301
   21MOL   H29320733   1.208   5.715   1.406 -2.7338 -0.8617  0.7487
   21MOL   H29420734   1.433   5.703   1.318 -0.1344 -0.8770 -0.6344
   21MOL   H29520735   1.556   5.451   1.078  1.8783  0.4879 -0.8664
   21MOL   H29620736   1.772   5.515   1.074  0.6060  0.0448 -0.3222
   21MOL   H29720737   1.925   5.691   0.993  0.7590  2.6255  0.7983
   21MOL   H29820738   1.955   5.965   0.968  0.8382  1.5716 -2.5548
   21MOL   H29920739   1.812   6.050   0.934  0.4748 -0.6239  0.3250
   21MOL   H30020740   1.599   5.975   1.021  0.2432 -0.6490 -2.6045
   21MOL   H30120741   1.450   5.801   1.091  0.4632 -0.0032  0.2801
   21MOL   H30220742   1.298   5.387   1.048  1.3227 -0.3437 -0.0328
   21MOL   H30320743   1.087   5.384   1.149 -0.8485  1.5700 -0.7327
   21MOL   H30420744   0.765   5.552   1.467 -0.4514 -4.0062  1.7672
   21MOL   H30520745   0.696   5.645   1.692 -1.0928  0.9642 -0.5101
   21MOL   H30620746   0.730   5.669   2.107 -0.0253  0.4728 -0.5348
   21MOL   H30720747   0.542   5.795   2.178 -0.4190 -1.3565 -0.3980
   21MOL   N30820748   1.878   5.924   0.776  0.2770 -0.0399  0.2927
   21MOL   C30920749   1.846   6.032   0.699 -0.0870 -0.1688  0.1417
   21MOL   C31020750   1.918   6.152   0.703  0.9496 -0.2077 -0.9859
   21MOL   C31120751   1.880   6.261   0.619 -0.3820  0.1278  0.2430
   21MOL   C31220752   1.766   6.253   0.539  0.3562 -0.5238 -0.0018
   21MOL   N31320753   1.737   6.369   0.461  0.7460 -0.0048 -0.8073
   21MOL   C31420754   1.622   6.382   0.376  0.1979 -1.0482  0.6426
   21MOL   C31520755   1.615   6.294   0.265 -0.0411 -0.1608  0.2140
   21MOL   C31620756   1.529   6.318   0.156  0.3489  1.1145 -0.3525
   21MOL   C31720757   1.447   6.433   0.167 -0.0298 -0.3948  0.0302
   21MOL   N31820758   1.356   6.449   0.061 -0.1797  0.0239  0.1320
   21MOL   C31920759   1.232   6.512   0.065 -0.5313 -0.5057 -0.0901
   21MOL   C32020760   1.188   6.573   7.933 -0.6201  0.5509 -0.0576
   21MOL   C32120761   1.070   6.637   7.928  1.1701 -0.5966 -0.5672
   21MOL   C32220762   0.987   6.639   0.058  0.2526 -0.6188 -0.3804
   21MOL   N32320763   0.867   6.711   0.046 -0.0079  0.1278  0.2119
   21MOL   C32420764   0.737   6.678   0.095  0.0834  0.5665 -0.0777
   21MOL   C32520765   0.715   6.563   0.167  0.0937  0.0249  0.1350
   21MOL   C32620766   0.586   6.539   0.217  0.3082 -0.0032  0.3474
   21MOL   C32720767   0.473   6.615   0.187 -0.0197 -0.3736 -1.0129
   21MOL   C32820768   0.338   6.582   0.240  1.1161  0.6221  0.0153
   21MOL   C32920769   0.497   6.729   0.109  0.4820 -0.0295 -0.3088
   21MOL   C33020770   0.627   6.760   0.064  0.0496 -0.9570 -0.7100
   21MOL   C33120771   1.030   6.581   0.177  0.0058  0.8623  0.5477
   21MOL   C33220772   1.157   6.522   0.186 -0.2360  0.4092  0.1932
   21MOL   C33320773   1.456   6.523   0.273 -0.5304 -0.7622  0.1337
   21MOL   C33420774   1.541   6.497   0.384 -0.8836 -0.3078  0.4130
   21MOL   C33520775   1.694   6.133   0.534 -1.0279  0.1588  0.3391
   21MOL   C33620776   1.736   6.023   0.614  0.6942 -0.3437  0.1501
   21MOL   H33720777   1.828   5.836   0.771  1.0512 -0.6193  2.2638
   21MOL   H33820778   2.000   6.172   0.770 -0.6632 -0.1725  1.0304
   21MOL   H33920779   1.942   6.349   0.612 -0.0739 -0.2184 -1.5816
   21MOL   H34020780   1.764   6.464   0.479  0.6131  0.6436 -3.7710
   21MOL   H34120781   1.684   6.212   0.258 -0.9672 -1.0431  1.1859
   21MOL   H34220782   1.533   6.253   0.070 -0.4018 -2.8114  2.4361
   21MOL   H34320783   1.379   6.407   7.955  0.3314 -0.1933  0.3671
   21MOL   H34420784   1.244   6.557   7.842  0.5575 -0.7769  0.8787
   21MOL   H34520785   1.036   6.688   7.839 -2.4578 -2.3455 -0.2412
   21MOL   H34620786   0.876   6.788   7.963  0.0697 -0.1954 -0.1596
   21MOL   H34720787   0.788   6.485   0.182  1.7315  1.2568 -1.3403
   21MOL   H34820788   0.567   6.451   0.276  1.3940 -0.0540  0.6298
   21MOL   H34920789   0.320   6.483   0.199 -0.1048  0.8047  0.0803
   21MOL   H35020790   0.273   6.655   0.191  0.7151 -1.1368 -2.1403
   21MOL   H35120791   0.414   6.791   0.077 -0.5674 -0.2879  1.8264
   21MOL   H35220792   0.642   6.856   0.016  2.6083  0.2554  2.3113
   21MOL   H35320793   0.964   6.591   0.262 -0.3925  1.7215  0.1384
   21MOL   H35420794   1.194   6.476   0.277  0.9306 -0.2845 -0.6075
   21MOL   H35520795   1.388   6.607   0.272 -0.2861 -0.5484  0.9206
   21MOL   H35620796   1.554   6.565   0.467  0.1959 -2.9216  2.4653
   21MOL   H35720797   1.612   6.120   0.465  0.7199 -2.0938 -1.3947
   21MOL   H35820798   1.700   5.924   0.591  2.0645 -0.3722 -2.0051
   21MOL   N35920799   0.327   6.576   0.379 -0.4578 -0.4176  0.1137
   21MOL   C36020800   0.368   6.466   0.455 -0.3102  0.1627  0.4517
   21MOL   C36120801   0.366   6.337   0.405 -0.6786 -0.0814  0.3222
   21MOL   C36220802   0.419   6.231   0.480 -0.0793 -0.4216  0.4870
   21MOL   C36320803   0.475   6.258   0.604 -0.6503  1.0473 -0.3666
   21MOL   N36420804   0.537   6.147   0.667  0.4508 -0.4352  0.1911
   21MOL   C36520805   0.665   6.137   0.721 -0.2581 -0.3110 -0.4526
   21MOL   C36620806   0.703   6.035   0.811  0.3894  0.1840  0.0058
   21MOL   C36720807   0.837   6.022   0.850  0.0348  0.3984  0.1171
   21MOL   C36820808   0.936   6.110   0.804 -0.0187 -0.0193 -0.7543
   21MOL   N36920809   1.069   6.091   0.847 -0.2748  0.3636  0.5330
   21MOL   C37020810   1.147   5.980   0.808 -0.0889 -0.4814 -0.2631
   21MOL   C37120811   1.291   5.976   0.823  0.0405  0.3506 -0.8153
   21MOL   C37220812   1.362   5.852   0.780 -0.1946  0.1350  0.4605
   21MOL   C37320813   1.292   5.742   0.733 -0.2131 -0.7520  0.2664
   21MOL   N37420814   1.357   5.626   0.676  1.5666 -0.1317 -0.6902
   21MOL   C37520815   1.480   5.628   0.624 -0.2284  0.3064  0.2044
   21MOL   C37620816   1.598   5.631   0.704 -0.7472  0.2508 -0.4305
   21MOL   C37720817   1.721   5.591   0.649 -0.3152 -0.0402  0.1411
   21MOL   C37820818   1.744   5.573   0.512 -0.3687  0.4263  0.3035
   21MOL   C37920819   1.878   5.515   0.467  0.3715 -0.5530 -0.0836
   21MOL   C38020820   1.633   5.586   0.428  0.0268 -0.5268  0.6240
   21MOL   C38120821   1.505   5.604   0.489  0.3563  0.6841  0.1252
   21MOL   C38220822   1.154   5.750   0.719 -0.1859  0.2694  0.2588
   21MOL   C38320823   1.083   5.863   0.758 -0.4016 -0.4997 -0.2587
   21MOL   C38420824   0.895   6.206   0.714  0.4616 -0.9072 -0.1616
   21MOL   C38520825   0.764   6.222   0.673 -0.2361 -0.1675  0.4645
   21MOL   C38620826   0.477   6.389   0.658  0.2189 -0.2278  0.2648
   21MOL   C38720827   0.420   6.495   0.584  0.1095  0.2076  0.0999
   21MOL   H38820828   0.338   6.665   0.425 -0.0663  0.4130 -1.5220
   21MOL   H38920829   0.324   6.315   0.308  0.7041  1.1667 -0.5904
   21MOL   H39020830   0.415   6.133   0.435 -0.9966 -0.5293  0.7923
   21MOL   H39120831   0.509   6.055   0.635  0.5376 -0.4473  0.1519
   21MOL   H39220832   0.634   5.968   0.859  0.0536  0.2125 -0.4319
   21MOL   H39320833   0.865   5.946   0.921  0.1326  0.2452 -0.0843
   21MOL   H39420834   1.124   6.172   0.874 -0.0669  0.4650 -0.2050
   21MOL   H39520835   1.342   6.057   0.872 -0.5027 -0.1947  0.6530
   21MOL   H39620836   1.469   5.845   0.791 -0.1465  0.8922  0.4967
   21MOL   H39720837   1.300   5.546   0.655  0.9687  0.1971 -0.3521
   21MOL   H39820838   1.602   5.644   0.811  2.2637  0.4643 -0.5167
   21MOL   H39920839   1.805   5.571   0.714 -0.4621  1.5890  0.8471
   21MOL   H40020840   1.960   5.542   0.534  1.0750 -2.4939 -0.1479
   21MOL   H40120841   1.907   5.546   0.366 -1.2189 -0.9565 -0.6817
   21MOL   H40220842   1.647   5.584   0.321 -1.6500 -0.4513  0.3893
   21MOL   H40320843   1.419   5.606   0.424  0.0454  1.1358  0.5442
   21MOL   H40420844   1.099   5.660   0.699  1.4323 -0.8329  0.7173
   21MOL   H40520845   0.978   5.860   0.736 -0.5513  1.2141  0.0934
   21MOL   H40620846   0.966   6.274   0.670  3.4341 -1.9418  2.8585
   21MOL   H40720847   0.732   6.288   0.594 -2.1190 -0.7379  0.7271
   21MOL   H40820848   0.520   6.409   0.754 -2.4127 -0.5333  1.5510
   21MOL   H40920849   0.422   6.592   0.631 -2.7182 -0.8154  2.5172
   21MOL   N41020850   1.873   5.372   0.461 -0.6577  0.8562 -0.8023
   21MOL   C41120851   1.981   5.289   0.422 -0.2923 -0.0948 -0.9429
   21MOL   C41220852   1.948   5.159   0.390  0.3104  0.0748 -0.1815
   21MOL   C41320853   2.051   5.070   0.350 -0.8404 -0.0199 -0.1878
   21MOL   C41420854   2.185   5.120   0.339  0.2353  0.0016  0.9142
   21MOL   N41520855   2.292   5.037   0.294 -0.4375 -0.6382  0.0471
   21MOL   C41620856   2.399   5.005   0.373  0.3774 -0.6435 -0.0925
   21MOL   C41720857   2.418   5.043   0.506  0.3277 -0.5957  0.3538
   21MOL   C41820858   2.526   4.988   0.581  1.3922 -0.3718  0.8420
   21MOL   C41920859   2.606   4.886   0.527 -0.2109 -0.2638  0.5046
   21MOL   N42020860   2.699   4.809   0.598 -0.1581 -0.3940  0.0239
   21MOL   C42120861   2.708   4.777   0.734 -0.1272 -0.5060  0.5440
   21MOL   C42220862   2.627   4.821   0.842 -0.4977  0.5412  0.2024
   21MOL   C42320863   2.639   4.776   0.969 -0.1261 -0.0407  0.2082
   21MOL   C42420864   2.739   4.681   0.995 -0.9281 -0.3989 -0.0875
   21MOL   N42520865   2.767   4.629   1.122 -0.3162  0.4893 -0.7654
   21MOL   C42620866   2.741   4.683   1.248 -0.2057  0.8766  0.6541
   21MOL   C42720867   2.738   4.824   1.272  0.3555  0.3204 -0.0397
   21MOL   C42820868   2.733   4.874   1.401 -0.1542 -0.0139 -0.6684
   21MOL   C42920869   2.722   4.781   1.507  0.4505 -0.3881  0.4466
   21MOL   C43020870   2.721   4.833   1.650  0.1511 -0.1754  0.6124
   21MOL   C43120871   2.698   4.647   1.481 -0.2591 -0.6474  0.4290
   21MOL   C43220872   2.718   4.596   1.355  0.8116  0.4639 -0.3485
   21MOL   C43320873   2.816   4.629   0.894 -0.4804  0.2069  0.8255
   21MOL   C43420874   2.811   4.688   0.765  0.3785 -0.0601  0.3952
   21MOL   C43520875   2.590   4.855   0.390 -0.3917  0.0886 -0.1067
   21MOL   C43620876   2.489   4.909   0.315 -0.0099 -0.0873  0.3959
   21MOL   C43720877   2.210   5.253   0.370 -0.1152  0.0703  0.4635
   21MOL   C43820878   2.112   5.338   0.420 -0.1406  0.0066  0.3969
   21MOL   H43920879   1.784   5.331   0.434 -0.1591 -0.2090 -0.8727
   21MOL   H44020880   1.849   5.117   0.387 -0.0478  0.9966 -1.6913
   21MOL   H44120881   2.036   4.967   0.320  1.1179 -0.6480  0.8766
   21MOL   H44220882   2.292   4.993   0.204 -1.1896  0.9122 -0.7424
   21MOL   H44320883   2.347   5.115   0.544 -0.3284 -0.1467 -1.6679
   21MOL   H44420884   2.552   5.014   0.682 -4.8920  1.8954  2.0940
   21MOL   H44520885   2.774   4.778   0.539 -0.9866 -1.2968 -0.5736
   21MOL   H44620886   2.536   4.878   0.832 -0.6540 -0.0125 -1.9868
   21MOL   H44720887   2.566   4.811   1.040 -2.9742 -1.5745 -1.8295
   21MOL   H44820888   2.812   4.539   1.123 -2.5541 -0.7822 -3.8412
   21MOL   H44920889   2.747   4.889   1.186 -0.9932 -0.3540 -0.7098
   21MOL   H45020890   2.737   4.981   1.411  1.0942 -0.1018 -0.1560
   21MOL   H45120891   2.628   4.816   1.704  1.0352  0.6922  2.4792
   21MOL   H45220892   2.739   4.940   1.646  1.8513 -0.3976  1.4185
   21MOL   H45320893   2.681   4.589   1.570 -0.6873 -2.1450 -0.6188
   21MOL   H45420894   2.709   4.489   1.340 -2.0894  0.8400 -1.6822
   21MOL   H45520895   2.888   4.553   0.922  0.5664  1.0609  0.4952
   21MOL   H45620896   2.872   4.660   0.680  1.4552  1.3299  0.6740
   21MOL   H45720897   2.645   4.773   0.345 -1.0983  0.3934 -1.5309
   21MOL   H45820898   2.480   4.873   0.213  0.1750  0.6564  0.1097
   21MOL   H45920899   2.311   5.290   0.357  1.1376 -2.8788  1.5596
   21MOL   H46020900   2.138   5.443   0.422  1.5196 -0.3926  1.1357
   21MOL   N46120901   2.829   4.791   1.742 -0.3045  0.9305  0.1360
   21MOL   C46220902   2.956   4.767   1.687 -0.1121  0.0309  0.4889
   21MOL   C46320903   2.999   4.838   1.572 -0.4681 -0.3846 -1.4029
   21MOL   C46420904   3.111   4.796   1.500 -0.4480  0.6230  0.2423
   21MOL   C46520905   3.168   4.673   1.538  1.2726  0.3207  0.5961
   21MOL   N46620906   3.266   4.620   1.461  0.0676  0.4099 -0.0985
   21MOL   C46720907   3.265   4.608   1.323 -0.5296  0.2530  0.0728
   21MOL   C46820908   3.148   4.631   1.252 -0.0878 -0.7721 -0.5235
   21MOL   C46920909   3.147   4.626   1.112  0.6744  0.5408  0.6628
   21MOL   C47020910   3.258   4.575   1.044 -0.2078  0.8178  0.2428
   21MOL   N47120911   3.263   4.551   0.907  0.0821  0.0766 -0.0023
   21MOL   C47220912   3.212   4.632   0.808  0.5210  0.2053  0.0818
   21MOL   C47320913   3.165   4.762   0.833 -0.1240  0.2520  0.0340
   21MOL   C47420914   3.102   4.834   0.731  0.2328 -0.4884  0.0659
   21MOL   C47520915   3.090   4.782   0.600 -0.7796 -0.1475 -0.0145
   21MOL   N47620916   3.014   4.852   0.503  0.1577 -0.1656  0.3526
   21MOL   C47720917   3.038   4.886   0.366  0.1433 -0.5482 -0.0931
   21MOL   C47820918   2.955   4.985   0.312 -0.4874 -0.0458  0.6468
   21MOL   C47920919   2.999   5.046   0.193  0.6484 -0.0458  0.1610
   21MOL   C48020920   3.106   4.997   0.128 -0.3742  0.6535 -0.0464
   21MOL   C48120921   3.159   5.064   0.003  0.4038  0.4746  0.1342
   21MOL   C48220922   3.171   4.880   0.175  0.5968  0.1428  0.0742
   21MOL   C48320923   3.146   4.833   0.304  0.3288  0.2280  0.6259
   21MOL   C48420924   3.136   4.654   0.570  0.0643  0.5230 -0.7845
   21MOL   C48520925   3.195   4.579   0.676 -0.8870  0.2953 -0.1687
   21MOL   C48620926   3.374   4.544   1.113  0.1928 -0.0864  0.0851
   21MOL   C48720927   3.378   4.563   1.254 -0.1018  0.1565  0.3190
   21MOL   C48820928   3.131   4.605   1.656 -0.0831 -0.2569  0.3624
   21MOL   C48920929   3.030   4.656   1.738  0.4092 -0.9229  0.0123
   21MOL   H49020930   2.798   4.719   1.805  1.5568  0.6199  0.7316
   21MOL   H49120931   2.938   4.920   1.537 -0.8688 -0.7051 -1.4597
   21MOL   H49220932   3.161   4.845   1.418  0.0725  0.0584  0.2156
   21MOL   H49320933   3.343   4.571   1.504  1.9193  4.1523  1.1123
   21MOL   H49420934   3.051   4.652   1.295 -0.4929 -0.6726 -1.4527
   21MOL   H49520935   3.063   4.659   1.053  1.4766  0.9886 -0.2242
   21MOL   H49620936   3.304   4.463   0.879 -0.7032 -0.0680 -0.7057
   21MOL   H49720937   3.190   4.804   0.930 -1.2859  0.1959  0.3577
   21MOL   H49820938   3.061   4.932   0.751  4.0754  1.9157 -2.8582
   21MOL   H49920939   2.942   4.911   0.543  0.8289  0.6678  0.3579
   21MOL   H50020940   2.867   5.028   0.359 -1.4851 -0.9849 -0.3519
   21MOL   H50120941   2.946   5.135   0.161 -1.5218 -1.3500  0.0241
   21MOL   H50220942   3.172   4.980   7.917  1.4357  0.2233  0.6331
   21MOL   H50320943   3.259   5.102   0.023 -1.0511  3.8765  1.3488
   21MOL   H50420944   3.263   4.845   0.131  2.3306  1.7996  2.2751
   21MOL   H50520945   3.212   4.761   0.350  0.3432 -0.5105 -0.5527
   21MOL   H50620946   3.125   4.598   0.478 -1.1372 -1.4199  0.5062
   21MOL   H50720947   3.237   4.482   0.654 -0.9226  0.7013 -2.1619
   21MOL   H50820948   3.470   4.519   1.070  0.0783  0.7771 -0.6868
   21MOL   H50920949   3.472   4.548   1.306 -0.4644  2.0121  1.5283
   21MOL   H51020950   3.190   4.518   1.682  0.5715 -0.2734 -1.1258
   21MOL   H51120951   2.993   4.603   1.825 -0.0561  1.8919  1.5925
   21MOL   N51220952   3.075   5.174   7.926 -0.2868  0.2512  0.3628
   21MOL   C51320953   3.081   5.313   7.935  0.3659 -0.1620 -0.2814
   21MOL   C51420954   3.015   5.398   7.846 -0.0563 -1.0811  0.3392
   21MOL   C51520955   3.034   5.536   7.858  0.7894 -1.0687  0.2633
   21MOL   C51620956   3.098   5.595   7.967 -0.5400 -0.3084  0.0795
   21MOL   N51720957   3.108   5.729   0.009  0.6023  0.4450 -0.2276
   21MOL   C51820958   3.025   5.822   7.927  0.4996  0.1399 -0.1806
   21MOL   C51920959   2.888   5.800   7.937 -0.5115  0.1341  0.5461
   21MOL   C52020960   2.789   5.885   7.874  0.1235  0.4290  0.5803
   21MOL   C52120961   2.839   5.981   7.783  0.7901 -0.4819  0.4666
   21MOL   N52220962   2.751   6.062   7.712  0.4416  0.9994 -0.3118
   21MOL   C52320963   2.621   6.026   7.676 -0.7677  0.0154  0.3187
   21MOL   C52420964   2.598   5.996   7.541  0.2584  0.0065 -0.1459
   21MOL   C52520965   2.472   5.955   7.510  0.4013 -0.2876  0.4575
   21MOL   C52620966   2.364   5.947   7.602 -0.0710  0.2722  0.0172
   21MOL   N52720967   2.236   5.925   7.555 -0.4409  0.8459  0.1096
   21MOL   C52820968   2.141   5.833   7.598 -0.3755  0.2188  0.8518
   21MOL   C52920969   2.007   5.853   7.539 -0.1875  0.4762 -0.3423
   21MOL   C53020970   1.907   5.758   7.574 -0.7974 -1.0144 -0.0081
   21MOL   C53120971   1.935   5.668   7.678  0.4884 -0.5540  0.4066
   21MOL   C53220972   1.829   5.561   7.707  0.5511  0.0842 -0.2013
   21MOL   C53320973   2.058   5.659   7.742 -0.0597 -0.2195  1.3267
   21MOL   C53420974   2.165   5.735   7.701  1.3236 -0.2442 -0.4548
   21MOL   C53520975   2.390   5.988   7.732  0.0764 -0.4891 -0.2757
   21MOL   C53620976   2.519   6.022   7.769  0.0667  0.9575 -0.6933
   21MOL   C53720977   2.980   6.011   7.778  0.1435  0.4296 -0.1873
   21MOL   C53820978   3.068   5.932   7.854  0.3463  0.0285 -0.2409
   21MOL   C53920979   3.171   5.514   0.078  0.1437 -0.1836  0.1283
   21MOL   C54020980   3.156   5.376   0.061  0.0299  0.2157  0.3318
   21MOL   H54120981   3.003   5.139   7.865  0.9350 -0.6930 -0.5916
   21MOL   H54220982   2.969   5.358   7.757  1.7631  0.4756 -1.3327
   21MOL   H54320983   2.985   5.603   7.789  0.7467 -0.4727  0.8722
   21MOL   H54420984   3.161   5.766   0.087  0.8563 -0.0266 -0.1711
   21MOL   H54520985   2.857   5.722   0.022  0.2068  0.6327  1.4564
   21MOL   H54620986   2.686   5.864   7.897 -0.6429  2.3974 -0.9205
   21MOL   H54720987   2.797   6.137   7.663  0.5310  3.0729  2.7888
   21MOL   H54820988   2.681   6.003   7.472  1.7945 -1.0809  1.5459
   21MOL   H54920989   2.458   5.923   7.408  0.9886 -0.0271  0.2981
   21MOL   H55020990   2.234   5.932   7.454 -1.4005 -0.8444 -0.0030
   21MOL   H55120991   1.977   5.928   7.467 -1.8647  1.8808  1.7868
   21MOL   H55220992   1.810   5.756   7.527 -0.4719 -1.4704 -0.6704
   21MOL   H55320993   1.857   5.493   7.788 -2.0726 -0.6536  0.1229
   21MOL   H55420994   1.816   5.490   7.625  0.1435 -0.0335 -0.0370
   21MOL   H55520995   2.088   5.594   7.824  2.1579  0.8130  1.3751
   21MOL   H55620996   2.265   5.717   7.736  1.6885 -0.4741 -1.6004
   21MOL   H55720997   2.310   5.984   7.805  1.0440 -1.2453  0.7591
   21MOL   H55820998   2.557   6.045   7.868  1.6363 -1.6465 -0.6643
   21MOL   H55920999   3.014   6.094   7.718  0.6993 -0.0300 -0.5145
   21MOL   H56021000   3.173   5.948   7.832  0.6769  0.3961  1.5032
   21MOL   H56121001   3.226   5.556   0.161 -0.0362  0.8248 -0.2553
   21MOL   H56221002   3.203   5.315   0.137 -0.4743  1.3529  1.5861
   21MOL   N56321003   1.692   5.622   7.729  0.9415  0.7852  0.1644
   21MOL   C56421004   1.662   5.691   7.849  0.2650 -0.3666 -0.0472
   21MOL   C56521005   1.762   5.731   7.940  0.7420 -0.0438  0.2979
   21MOL   C56621006   1.731   5.800   0.077  0.0330  0.7788  0.5817
   21MOL   C56721007   1.600   5.828   0.111 -0.6032 -0.3214  0.9913
   21MOL   N56821008   1.576   5.882   0.237 -0.3145  0.3609  0.0966
   21MOL   C56921009   1.458   5.943   0.275  0.3009  0.3372  0.1859
   21MOL   C57021010   1.412   5.949   0.408 -0.7030  0.2000 -0.3864
   21MOL   C57121011   1.285   5.998   0.441  0.5572  0.1848 -0.0043
   21MOL   C57221012   1.203   6.057   0.343  0.1072 -0.5111 -0.4715
   21MOL   N57321013   1.072   6.103   0.378 -0.0214  0.7119  0.7100
   21MOL   C57421014   0.956   6.084   0.298  0.4811 -0.1488 -0.8520
   21MOL   C57521015   0.956   5.986   0.194 -0.3305 -0.4745 -0.9596
   21MOL   C57621016   0.846   5.977   0.114  0.3475  0.2397 -0.2299
   21MOL   C57721017   0.729   6.053   0.130  0.3710 -1.0421 -1.0376
   21MOL   N57821018   0.622   6.027   0.049 -0.2446  0.2063 -0.4413
   21MOL   C57921019   0.519   6.112   0.010  0.2568 -0.0114  0.3302
   21MOL   C58021020   0.407   6.133   0.095  0.0396 -0.4707  0.8784
   21MOL   C58121021   0.305   6.219   0.058 -0.6033 -0.6192 -0.3371
   21MOL   C58221022   0.323   6.307   7.928 -0.1200  0.0928  0.5110
   21MOL   C58321023   0.219   6.410   7.888  0.0517 -0.1300 -0.1734
   21MOL   C58421024   0.445   6.289   7.849 -0.1642  0.0112  0.2635
   21MOL   C58521025   0.538   6.184   7.873 -0.0756 -0.0266  0.2689
   21MOL   C58621026   0.725   6.154   0.234 -0.3181  0.1206 -0.4791
   21MOL   C58721027   0.838   6.165   0.317 -0.3181  0.2038  0.2244
   21MOL   C58821028   1.261   6.080   0.218  0.9152 -0.4329 -0.4293
   21MOL   C58921029   1.386   6.023   0.183  0.3917 -0.2982 -0.7981
   21MOL   C59021030   1.499   5.787   0.018  0.0370 -0.2017 -0.1191
   21MOL   C59121031   1.530   5.718   7.881  0.0656 -0.9810  0.7970
   21MOL   H59221032   1.614   5.594   7.671  0.7551  0.6865  0.4637
   21MOL   H59321033   1.864   5.700   7.922  0.7809  0.6785 -0.7688
   21MOL   H59421034   1.812   5.812   0.148  1.0973 -0.3874 -0.4173
   21MOL   H59521035   1.649   5.864   0.305  0.6302  1.1164 -0.7004
   21MOL   H59621036   1.468   5.893   0.482 -2.0219 -1.1752 -0.3969
   21MOL   H59721037   1.249   5.979   0.541 -1.4125 -1.1050 -0.9260
   21MOL   H59821038   1.050   6.124   0.475  0.9300 -2.0955  1.5861
   21MOL   H59921039   1.037   5.915   0.180  1.0902  0.9263  0.0465
   21MOL   H60021040   0.855   5.901   0.038  1.3404 -1.1151  1.2098
   21MOL   H60121041   0.659   5.965   7.961  0.1901 -0.7592  0.6259
   21MOL   H60221042   0.405   6.081   0.190  1.4929  1.8662  2.2468
   21MOL   H60321043   0.219   6.229   0.122 -0.2745  1.9055 -0.2465
   21MOL   H60421044   0.168   6.435   7.981 -2.5141  0.6457 -1.7342
   21MOL   H60521045   0.141   6.362   7.829 -2.0805  0.9843  1.6676
   21MOL   H60621046   0.455   6.351   7.760 -3.2676 -0.1942 -0.3124
   21MOL   H60721047   0.625   6.171   7.810  0.8218 -0.7731  1.6573
   21MOL   H60821048   0.634   6.205   0.260  0.5840  1.5455 -0.0814
   21MOL   H60921049   0.848   6.230   0.403 -0.7761  0.3779  0.1456
   21MOL   H61021050   1.205   6.139   0.147  1.7147  0.3228 -0.4430
   21MOL   H61121051   1.420   6.036   0.082 -1.4588 -0.6859 -1.4965
   21MOL   H61221052   1.394   5.802   0.039  0.2749  3.9413 -1.4122
   21MOL   H61321053   1.447   5.687   7.819  0.1162 -0.2221  0.3561
   21MOL   N61421054   0.276   6.519   7.815 -0.0637 -0.3423  0.5199
   21MOL   C61521055   0.232   6.651   7.822  0.1450  0.9329  0.3226
   21MOL   C61621056   0.098   6.680   7.859  0.1537  0.0272 -0.1716
   21MOL   C61721057   0.053   6.809   7.869  0.3871 -0.4755 -0.6503
   21MOL   C61821058   0.147   6.919   7.856 -0.6243 -0.1404  0.7208
   21MOL   N61921059   0.115   7.056   7.876  0.5000 -0.0710 -0.0412
   21MOL   C62021060   0.029   7.115   7.784 -0.2868 -0.0835  0.4891
   21MOL   C62121061   0.089   7.170   7.666 -0.1745 -0.3656 -0.0028
   21MOL   C62221062   0.001   7.244   7.581  0.4546  0.1192 -0.1431
   21MOL   C62321063   7.846   7.252   7.601  0.1671  0.3115 -0.5539
   21MOL   N62421064   7.772   7.319   7.500 -0.3621  0.1328  0.1342
   21MOL   C62521065   7.668   7.261   7.432 -0.6400  0.1341 -0.5694
   21MOL   C62621066   7.537   7.292   7.464  0.1547  0.1160 -0.7556
   21MOL   C62721067   7.432   7.248   7.383 -0.2470 -0.4126 -0.7584
   21MOL   C62821068   7.456   7.159   7.282  0.8123  0.7309  0.1973
   21MOL   N62921069   7.351   7.108   7.205  0.4564 -0.3300 -0.4160
   21MOL   C63021070   7.219   7.151   7.183 -0.3886 -0.2650  0.2744
   21MOL   C63121071   7.125   7.055   7.142  0.5118 -0.4588  0.4831
   21MOL   C63221072   6.992   7.101   7.111  0.5802 -0.2054  0.3054
   21MOL   C63321073   6.950   7.233   7.113  0.0422  0.5040 -0.8012
   21MOL   C63421074   6.820   7.286   7.050 -0.2113  0.6847  0.6029
   21MOL   C63521075   7.049   7.325   7.146  0.8515  0.4665  0.4653
   21MOL   C63621076   7.179   7.286   7.185  0.0273 -0.2875 -0.5127
   21MOL   C63721077   7.590   7.122   7.248  0.2342 -0.4783  0.1601
   21MOL   C63821078   7.693   7.175   7.324 -0.2519  0.2971  0.2073
   21MOL   C63921079   7.797   7.184   7.709  0.2888  0.0056  0.2166
   21MOL   C64021080   7.873   7.109   7.796  0.8577  0.3967 -0.2467
   21MOL   C64121081   0.280   6.894   7.823 -0.0284  0.1552  0.6565
   21MOL   C64221082   0.324   6.753   7.806 -0.8892 -0.2675 -0.4433
   21MOL   H64321083   0.375   6.507   7.803  0.3695  1.7042  1.7123
   21MOL   H64421084   0.032   6.595   7.872  0.2288 -0.0706 -0.4246
   21MOL   H64521085   7.930   6.821   7.892  0.4714 -0.7281 -0.1293
   21MOL   H64621086   0.203   7.103   7.890 -0.6374  1.5271  2.0671
   21MOL   H64721087   0.195   7.161   7.645  0.1090 -0.4988  1.4193
   21MOL   H64821088   0.041   7.302   7.498  0.3004  2.1977  1.2088
   21MOL   H64921089   7.817   7.374   7.428  1.7253  1.1949  2.1867
   21MOL   H65021090   7.514   7.353   7.550 -3.0046 -3.1831  0.8563
   21MOL   H65121091   7.329   7.277   7.399 -0.7543 -1.7427 -1.5245
   21MOL   H65221092   7.381   7.025   7.156 -0.6604  0.0474 -1.7659
   21MOL   H65321093   7.157   6.952   7.144  1.5135 -0.1253  1.4027
   21MOL   H65421094   6.921   7.027   7.078  0.7808 -0.4285  0.3631
   21MOL   H65521095   6.839   7.346   6.962 -1.5482 -1.4697 -1.1993
   21MOL   H65621096   6.777   7.360   7.118 -2.8937  2.6404 -3.0277
   21MOL   H65721097   7.031   7.431   7.134  0.7069  0.1398 -2.4304
   21MOL   H65821098   7.250   7.364   7.212  1.7724 -2.4878  1.4247
   21MOL   H65921099   7.620   7.046   7.177  1.4102 -0.8462  1.0393
   21MOL   H66021100   7.795   7.147   7.305 -0.6491  0.6255 -2.6279
   21MOL   H66121101   7.691   7.165   7.716  0.7820 -3.5848 -0.7137
   21MOL   H66221102   7.823   7.055   7.875  0.2936  1.2321 -0.0240
   21MOL   H66321103   0.342   6.981   7.807 -0.7941  0.5821 -0.0381
   21MOL   H66421104   0.428   6.732   7.789 -0.5629  1.2934 -0.4535
   21MOL   N66521105   6.714   7.186   7.027  0.3001 -0.3967 -0.2913
   21MOL   C66621106   6.726   7.096   6.921 -0.3983 -0.5998  0.5602
   21MOL   C66721107   6.629   6.994   6.916  0.1921  0.6972 -0.2211
   21MOL   C66821108   6.635   6.897   6.814 -0.1124  0.4282  0.4460
   21MOL   C66921109   6.728   6.902   6.712 -0.2737 -0.3210 -0.0241
   21MOL   N67021110   6.728   6.811   6.612  0.7251  0.5661 -0.6682
   21MOL   C67121111   6.738   6.843   6.474  0.3184 -0.3513 -0.3569
   21MOL   C67221112   6.729   6.736   6.384 -0.0020  0.9799 -0.6226
   21MOL   C67321113   6.767   6.755   6.252 -0.2116  0.4609 -0.1667
   21MOL   C67421114   6.797   6.882   6.203 -0.2642 -0.4479 -0.1114
   21MOL   N67521115   6.845   6.888   6.069 -0.7138  0.0373  0.2397
   21MOL   C67621116   6.951   6.973   6.023  0.1539 -0.3876 -0.0476
   21MOL   C67721117   7.050   7.012   6.118  0.0292 -0.5178 -0.5099
   21MOL   C67821118   7.172   7.070   6.077  0.2581  0.8229  0.3808
   21MOL   C67921119   7.202   7.077   5.938 -0.4393 -0.1071 -0.4355
   21MOL   N68021120   7.325   7.135   5.902 -0.0764 -0.0248 -0.2623
   21MOL   C68121121   7.408   7.111   5.795  0.3509 -0.6199  0.0238
   21MOL   C68221122   7.513   7.198   5.755 -0.0644 -0.5997 -0.4388
   21MOL   C68321123   7.595   7.181   5.643 -0.1827  0.5098 -0.4867
   21MOL   C68421124   7.569   7.075   5.556 -0.2264  0.1901  0.1206
   21MOL   C68521125   7.650   7.056   5.431 -0.2698  0.3281 -0.1003
   21MOL   C68621126   7.470   6.979   5.589 -0.1541 -0.0827 -0.5019
   21MOL   C68721127   7.396   6.997   5.710  0.6358 -0.3839 -0.4833
   21MOL   C68821128   7.102   7.043   5.847 -0.1327 -0.8695 -0.4421
   21MOL   C68921129   6.976   6.995   5.886  0.9957  0.4216 -0.3606
   21MOL   C69021130   6.788   6.989   6.288  0.1205  0.0659  0.4116
   21MOL   C69121131   6.752   6.973   6.423  0.6772  0.4163  0.0227
   21MOL   C69221132   6.824   7.008   6.711  0.4206 -0.6375  0.3267
   21MOL   C69321133   6.822   7.105   6.816 -0.5186  0.1901 -0.0472
   21MOL   H69421134   6.643   7.168   7.097  1.7619 -0.4460  1.2262
   21MOL   H69521135   6.556   6.981   6.994  2.6970  0.1072  2.0916
   21MOL   H69621136   6.565   6.815   6.816 -1.8048  1.8325  0.0421
   21MOL   H69721137   6.701   6.715   6.625 -3.0671  2.0484  3.6574
   21MOL   H69821138   6.712   6.637   6.425  0.7168  2.5401  3.6842
   21MOL   H69921139   6.757   6.667   6.190 -1.1653 -0.5062  1.3351
   21MOL   H70021140   6.832   6.811   6.007  0.1189  0.4862 -0.5064
   21MOL   H70121141   7.031   6.998   6.223  2.0561 -0.2834 -0.0899
   21MOL   H70221142   7.238   7.102   6.156  0.5104  0.9840  0.1031
   21MOL   H70321143   7.375   7.193   5.968 -0.7916  0.5528 -0.2238
   21MOL   H70421144   7.531   7.289   5.812 -0.8255 -0.3087 -0.6579
   21MOL   H70521145   7.679   7.247   5.632  1.2234 -1.2033 -0.2883
   21MOL   H70621146   7.685   6.953   5.439  1.1021  0.8381  0.6466
   21MOL   H70721147   7.737   7.121   5.439 -0.5930  0.8925 -1.0537
   21MOL   H70821148   7.456   6.894   5.523  1.7910  0.0964 -1.1778
   21MOL   H70921149   7.325   6.919   5.735 -0.0022  0.8232  1.6010
   21MOL   H71021150   7.125   7.036   5.741  1.5494 -1.6847 -0.0308
   21MOL   H71121151   6.909   6.954   5.812  0.6825  2.4668 -1.2633
   21MOL   H71221152   6.818   7.089   6.264  2.0351 -0.8459 -1.0914
   21MOL   H71321153   6.750   7.060   6.487 -1.7161  1.5649 -1.5044
   21MOL   H71421154   6.904   7.018   6.639 -1.1398  1.3406 -1.1693
   21MOL   H71521155   6.900   7.179   6.810 -0.4977  0.1608 -0.1450
   21MOL   N71621156   7.576   7.081   5.308  0.5807  0.5549  0.1772
   21MOL   C71721157   7.626   7.019   5.190 -0.2236  0.0564  0.0953
   21MOL   C71821158   7.633   7.100   5.071  0.5358 -0.3236  0.3401
   21MOL   C71921159   7.693   7.048   4.956  0.2581 -0.1637 -0.7310
   21MOL   C72021160   7.750   6.921   4.964 -0.9858  0.2157 -0.1423
   21MOL   N72121161   7.810   6.863   4.857 -0.2146  0.1438  0.1645
   21MOL   C72221162   7.832   6.912   4.727  0.1904 -0.3263 -0.0731
   21MOL   C72321163   7.964   6.904   4.672  0.3650  0.3606  0.1856
   21MOL   C72421164   0.016   6.939   4.543  0.2488 -0.6977  0.2216
   21MOL   C72521165   7.893   6.979   4.454  0.0688  0.5036 -1.0342
   21MOL   N72621166   7.922   6.982   4.318  0.1866 -0.5053 -0.0587
   21MOL   C72721167   7.839   7.019   4.207  0.6515 -0.6661 -0.5543
   21MOL   C72821168   7.848   6.944   4.090 -0.5552 -0.7537 -0.4043
   21MOL   C72921169   7.768   6.979   3.980  0.7894 -0.3591  0.4131
   21MOL   C73021170   7.673   7.084   3.984  0.0097  0.1868  0.0983
   21MOL   N73121171   7.593   7.103   3.873 -1.0415  0.0301 -0.3410
   21MOL   C73221172   7.489   7.191   3.855 -0.7148  0.1409  0.4629
   21MOL   C73321173   7.375   7.142   3.794 -0.2791 -0.1007 -0.1280
   21MOL   C73421174   7.259   7.217   3.780 -0.0049  0.3458 -0.4379
   21MOL   C73521175   7.257   7.348   3.825 -0.4592  0.0793  0.0694
   21MOL   C73621176   7.135   7.436   3.796 -0.6313  0.1176  0.0157
   21MOL   C73721177   7.377   7.397   3.886 -0.4524  0.1526 -0.0126
   21MOL   C73821178   7.491   7.318   3.899  0.2339 -0.4111  0.0585
   21MOL   C73921179   7.656   7.153   4.109  0.3415 -0.8162  0.0573
   21MOL   C74021180   7.746   7.127   4.215  0.6055 -0.3256 -0.1301
   21MOL   C74121181   7.760   6.991   4.506 -0.1893 -0.0221 -0.2291
   21MOL   C74221182   7.733   6.965   4.644  0.1557 -0.7868 -0.2437
   21MOL   C74321183   7.745   6.842   5.076  0.5191  0.0978  0.0877
   21MOL   C74421184   7.687   6.894   5.192  0.0574  1.2950  0.1104
   21MOL   H74521185   7.555   7.177   5.285 -2.6379  0.3556  1.9399
   21MOL   H74621186   7.588   7.198   5.071 -0.1288 -0.6177  1.5522
   21MOL   H74721187   7.685   7.100   4.861  3.5223 -0.5246 -1.2673
   21MOL   H74821188   7.869   6.785   4.881 -0.2084  0.3041  0.6757
   21MOL   H74921189   0.053   6.851   4.734 -2.8256 -0.4657  3.2563
   21MOL   H75021190   0.116   6.937   4.503 -0.0964  1.6724 -0.8613
   21MOL   H75121191   0.030   6.945   4.290  0.6237 -1.4722  2.4879
   21MOL   H75221192   7.914   6.858   4.092 -0.7727 -0.9275 -0.5657
   21MOL   H75321193   7.762   6.905   3.901 -0.3363 -1.7111  1.7123
   21MOL   H75421194   7.598   7.028   3.805 -0.5226  0.6259 -0.9678
   21MOL   H75521195   7.364   7.042   3.755 -1.7944 -0.6177  1.5684
   21MOL   H75621196   7.177   7.183   3.719 -1.5530  0.1343  1.6791
   21MOL   H75721197   7.045   7.375   3.806  0.1363 -0.8851  0.9367
   21MOL   H75821198   7.138   7.467   3.692 -1.6600  0.8800  0.2045
   21MOL   H75921199   7.380   7.499   3.923 -0.2806  0.8239 -1.8319
   21MOL   H76021200   7.582   7.369   3.929 -0.9107  2.1294 -0.6137
   21MOL   H76121201   7.577   7.225   4.120  0.0386 -0.8091 -1.9037
   21MOL   H76221202   7.725   7.183   4.305  3.2621 -2.3779  1.8276
   21MOL   H76321203   7.675   7.009   4.442 -1.5215  1.3044  1.8539
   21MOL   H76421204   7.634   6.980   4.683  0.5119 -0.2137  0.4354
   21MOL   H76521205   7.788   6.743   5.072  1.4055  0.5027 -0.4014
   21MOL   H76621206   7.692   6.832   5.280 -0.5864 -0.0865 -0.7988
   21MOL   N76721207   7.133   7.557   3.881 -0.0883 -0.2255 -0.7033
   21MOL   C76821208   7.029   7.567   3.971 -0.1862 -0.1187 -1.1547
   21MOL   C76921209   6.962   7.461   4.034  0.0248  0.4622  0.3245
   21MOL   C77021210   6.864   7.481   4.133 -0.1696  0.2387  0.2028
   21MOL   C77121211   6.829   7.611   4.163  0.6480 -0.2741 -0.3676
   21MOL   N77221212   6.716   7.641   4.248 -0.1435 -0.3730  0.5505
   21MOL   C77321213   6.680   7.569   4.363 -0.4170  0.7132  0.4174
   21MOL   C77421214   6.775   7.483   4.426  0.8117  0.1504 -1.0839
   21MOL   C77521215   6.737   7.424   4.550  0.1378 -0.6945 -0.1407
   21MOL   C77621216   6.612   7.450   4.609  0.8581  0.0840  0.0453
   21MOL   N77721217   6.581   7.398   4.731  0.2285  0.1463  0.4782
   21MOL   C77821218   6.643   7.433   4.856  0.9597  1.0576  0.1867
   21MOL   C77921219   6.747   7.527   4.857 -0.7200 -0.0274 -0.3006
   21MOL   C78021220   6.806   7.565   4.978 -0.1616 -0.6615  0.3259
   21MOL   C78121221   6.757   7.509   5.101  0.2577  0.3765  0.3890
   21MOL   N78221222   6.818   7.557   5.216 -0.0850  0.1700  0.5269
   21MOL   C78321223   6.834   7.502   5.341 -0.7798 -0.2826  0.9932
   21MOL   C78421224   6.854   7.589   5.447  0.3723 -0.0198  0.2796
   21MOL   C78521225   6.868   7.537   5.576  0.0297  0.6546  0.2936
   21MOL   C78621226   6.857   7.399   5.602 -0.5095  0.6778 -0.1204
   21MOL   C78721227   6.893   7.354   5.738  0.1607  0.8743 -0.2975
   21MOL   C78821228   6.828   7.316   5.497 -0.1272  0.1404 -0.4785
   21MOL   C78921229   6.827   7.367   5.362  0.0729 -0.0433 -0.3716
   21MOL   C79021230   6.643   7.418   5.098  0.2718 -0.9122 -0.2071
   21MOL   C79121231   6.588   7.382   4.975  0.6928 -0.2034  0.3375
   21MOL   C79221232   6.523   7.541   4.546  0.7296 -0.0069  0.0114
   21MOL   C79321233   6.555   7.598   4.421  0.1553  0.6121 -0.3345
   21MOL   C79421234   6.883   7.722   4.086  0.5576  1.7965 -0.1771
   21MOL   C79521235   6.985   7.698   3.996 -0.4683  0.1192  0.3594
   21MOL   H79621236   7.162   7.645   3.839 -1.2479  0.1222 -0.7859
   21MOL   H79721237   6.993   7.359   4.017  2.4130  1.2442 -0.1900
   21MOL   H79821238   6.814   7.395   4.175  2.9207 -1.2440  1.0345
   21MOL   H79921239   6.680   7.734   4.230  1.2787  0.6645  2.8423
   21MOL   H80021240   6.871   7.461   4.382  0.1008 -1.6105 -1.8114
   21MOL   H80121241   6.811   7.361   4.597  0.0828 -0.3845  0.3615
   21MOL   H80221242   6.504   7.334   4.726  2.1627 -2.2100 -0.4134
   21MOL   H80321243   6.786   7.559   4.762 -1.4759 -0.0849 -0.6295
   21MOL   H80421244   6.879   7.644   4.974 -1.6034  0.6547 -0.5983
   21MOL   H80521245   6.874   7.640   5.197 -0.4396  0.8729  2.4887
   21MOL   H80621246   6.860   7.694   5.423  1.6640 -0.2804 -0.5666
   21MOL   H80721247   6.888   7.609   5.654 -0.9106  2.9109 -1.5110
   21MOL   H80821248   6.998   7.385   5.737  0.7101 -0.9575 -2.2937
   21MOL   H80921249   6.885   7.247   5.756 -0.5570  0.7389 -1.3688
   21MOL   H81021250   6.822   7.209   5.515 -0.5976  0.3418  0.6179
   21MOL   H81121251   6.810   7.292   5.286  0.9990 -0.5321 -0.1018
   21MOL   H81221252   6.594   7.391   5.191 -1.2502 -0.5538 -0.8898
   21MOL   H81321253   6.501   7.317   4.972 -0.8402  1.8324 -0.1305
   21MOL   H81421254   6.436   7.575   4.601  0.5755 -0.0131 -0.2276
   21MOL   H81521255   6.489   7.664   4.367  0.0749 -0.5886 -1.7360
   21MOL   H81621256   6.848   7.822   4.106 -1.4308  0.9626  0.6412
   21MOL   H81721257   7.017   7.785   3.940  1.0347 -0.8682 -0.3357
   21MOL   N81821258   6.807   7.419   5.839 -0.7232  0.2254  0.0126
   21MOL   C81921259   6.833   7.394   5.979 -0.6615  0.8586 -0.1487
   21MOL   C82021260   6.964   7.364   6.022 -0.0693  0.2623 -0.0323
   21MOL   C82121261   6.992   7.360   6.160 -0.2761 -0.3608  0.1042
   21MOL   C82221262   6.893   7.355   6.260  0.4040 -0.1686 -0.4448
   21MOL   N82321263   6.925   7.333   6.395 -0.0855 -0.1124  0.3131
   21MOL   C82421264   7.057   7.300   6.428  0.0879 -0.0425 -1.0722
   21MOL   C82521265   7.150   7.403   6.448  0.4480 -0.5330 -0.6938
   21MOL   C82621266   7.286   7.365   6.471  0.3240  0.1338  0.2443
   21MOL   C82721267   7.325   7.232   6.477 -0.6616 -0.0903  0.9312
   21MOL   N82821268   7.460   7.200   6.506  0.2525  0.8181 -0.2899
   21MOL   C82921269   7.534   7.104   6.437 -0.2012 -0.3689 -1.0313
   21MOL   C83021270   7.532   7.108   6.296  0.4328 -0.2205 -0.0765
   21MOL   C83121271   7.613   7.019   6.225  0.2029 -0.3885  0.0751
   21MOL   C83221272   7.692   6.927   6.296  0.2936 -0.6240 -0.2099
   21MOL   N83321273   7.764   6.836   6.223  0.1314 -0.0624 -0.0026
   21MOL   C83421274   7.781   6.816   6.089 -0.1477  0.0529 -1.0523
   21MOL   C83521275   7.913   6.819   6.038  0.7380 -0.4527 -0.0413
   21MOL   C83621276   7.934   6.789   5.900 -0.5341 -0.3543  0.5698
   21MOL   C83721277   7.820   6.776   5.817 -0.2306  0.1175  0.1675
   21MOL   C83821278   7.848   6.744   5.673 -0.0794 -0.3829  0.1342
   21MOL   C83921279   7.692   6.795   5.869  0.2182 -0.6820 -0.2608
   21MOL   C84021280   7.672   6.803   6.001 -0.7311 -0.1517 -0.3507
   21MOL   C84121281   7.699   6.934   6.436 -0.0657  0.0366  0.4214
   21MOL   C84221282   7.618   7.016   6.509 -0.5354  0.1098 -0.2898
   21MOL   C84321283   7.228   7.133   6.474  0.5866 -0.3562  0.0631
   21MOL   C84421284   7.093   7.166   6.458 -0.6021 -0.2666  0.1230
   21MOL   C84521285   6.758   7.371   6.219  0.2105  0.2809  0.0959
   21MOL   C84621286   6.729   7.402   6.080 -0.1921  0.4114 -0.2342
   21MOL   H84721287   6.712   7.448   5.821 -0.3248  0.8809 -1.0712
   21MOL   H84821288   7.048   7.350   5.956  0.8364 -1.2816  1.4088
   21MOL   H84921289   7.096   7.351   6.188 -0.0075  1.6417 -0.1930
   21MOL   H85021290   6.851   7.292   6.450 -1.5705  0.3532 -1.2699
   21MOL   H85121291   7.112   7.500   6.420  0.0176 -1.0720 -2.0447
   21MOL   H85221292   7.364   7.439   6.479  1.4031 -0.9589 -0.0409
   21MOL   H85321293   7.503   7.243   6.587  2.6675  1.3414 -1.7918
   21MOL   H85421294   7.480   7.181   6.235  0.0629 -0.5101 -0.1101
   21MOL   H85521295   7.598   7.018   6.118 -0.5450 -0.9245  0.1823
   21MOL   H85621296   7.817   6.773   6.281  0.4807  0.3746  0.1612
   21MOL   H85721297   0.015   6.816   6.107 -0.1362 -1.2135  1.0017
   21MOL   H85821298   0.052   6.789   5.860  0.2881 -1.8135  2.5268
   21MOL   H85921299   7.899   6.824   5.621 -0.4577 -0.0804  0.2258
   21MOL   H86021300   7.757   6.747   5.614  1.3558  0.3058 -2.1018
   21MOL   H86121301   7.599   6.796   5.815 -1.1819 -2.1409  2.0593
   21MOL   H86221302   7.570   6.808   6.037 -0.4899  3.5567  0.0111
   21MOL   H86321303   7.757   6.850   6.474 -1.9015 -2.3495 -1.9008
   21MOL   H86421304   7.610   7.001   6.615 -1.1687  0.5006 -0.2725
   21MOL   H86521305   7.258   7.029   6.482 -0.6956 -0.7092  0.3798
   21MOL   H86621306   7.017   7.090   6.451  0.1904 -1.1518  1.1228
   21MOL   H86721307   6.672   7.372   6.285 -0.3456 -3.2376 -0.4948
   21MOL   H86821308   6.627   7.416   6.048 -0.9414  0.0656  1.9324
   21MOL   N86921309   7.927   6.623   5.663 -0.4366  1.0948  0.1003
   21MOL   C87021310   7.900   6.552   5.545  0.0891  0.1646  0.7877
   21MOL   C87121311   7.905   6.616   5.418 -0.1300 -0.0792 -0.2266
   21MOL   C87221312   7.863   6.548   5.306 -1.2555 -0.1705 -0.2252
   21MOL   C87321313   7.840   6.413   5.309  0.5366 -0.1585 -0.0410
   21MOL   N87421314   7.815   6.341   5.190  0.4796  0.1697 -0.4312
   21MOL   C87521315   7.822   6.379   5.056 -0.5596 -0.7559 -0.3857
   21MOL   C87621316   7.702   6.405   4.985 -0.0399  0.5179 -0.3127
   21MOL   C87721317   7.702   6.448   4.851  0.0203 -0.5994 -0.4048
   21MOL   C87821318   7.825   6.481   4.791 -0.1956  0.4668 -0.0663
   21MOL   N87921319   7.832   6.524   4.658  0.1286  0.6919  0.0416
   21MOL   C88021320   7.746   6.498   4.550  0.4206 -0.2702  0.2998
   21MOL   C88121321   7.655   6.390   4.554  0.1552  0.1041  0.7293
   21MOL   C88221322   7.564   6.366   4.448 -0.1661 -0.4866 -0.1162
   21MOL   C88321323   7.555   6.456   4.337  0.5950 -0.5547  0.3546
   21MOL   N88421324   7.470   6.433   4.229 -0.2034 -0.1855  0.1910
   21MOL   C88521325   7.333   6.401   4.235 -0.5652 -0.8416  0.6177
   21MOL   C88621326   7.266   6.354   4.120 -0.3341  0.4099 -0.2087
   21MOL   C88721327   7.131   6.313   4.126 -0.1573  0.1057  0.1420
   21MOL   C88821328   7.058   6.329   4.247 -0.2235 -0.3271 -0.0969
   21MOL   C88921329   6.920   6.273   4.245  0.4439 -0.3075 -0.3043
   21MOL   C89021330   7.120   6.374   4.369 -0.1904 -0.0856 -0.0422
   21MOL   C89121331   7.257   6.411   4.359 -0.3064  0.3779 -0.5019
   21MOL   C89221332   7.650   6.563   4.337  0.0571 -0.1525  0.0999
   21MOL   C89321333   7.739   6.585   4.443 -0.1557 -0.4942  0.0093
   21MOL   C89421334   7.947   6.479   4.866  0.9752 -0.4319 -0.2896
   21MOL   C89521335   7.942   6.412   4.989 -0.0209  0.6267  0.3004
   21MOL   C89621336   7.850   6.339   5.431 -0.5298 -0.0465  0.6694
   21MOL   C89721337   7.870   6.414   5.548 -1.2408  0.4201 -0.2283
   21MOL   H89821338   7.943   6.575   5.750  1.5077  0.3069 -0.6608
   21MOL   H89921339   7.930   6.721   5.412  1.3135 -0.3669  0.4177
   21MOL   H90021340   7.868   6.596   5.209 -2.4594 -0.4028 -0.4184
   21MOL   H90121341   7.743   6.273   5.209  0.1261  0.4127 -0.8868
   21MOL   H90221342   7.612   6.393   5.044  1.6748  2.7019  2.8733
   21MOL   H90321343   7.610   6.472   4.799  0.3418  1.7072  0.0191
   21MOL   H90421344   7.902   6.595   4.643 -1.5392  2.5681  0.9208
   21MOL   H90521345   7.664   6.315   4.631  1.3905 -1.3153 -0.7484
   21MOL   H90621346   7.498   6.280   4.449 -0.0108 -0.6200 -1.1845
   21MOL   H90721347   7.492   6.495   4.152 -1.1220 -0.2295 -0.1124
   21MOL   H90821348   7.323   6.363   4.028 -0.8584  0.1671 -0.5543
   21MOL   H90921349   7.086   6.271   4.037  1.9127 -0.7208 -0.5320
   21MOL   H91021350   6.851   6.351   4.278 -1.5150 -0.3705 -3.9494
   21MOL   H91121351   6.935   6.197   4.322 -1.0029  0.3585  0.6533
   21MOL   H91221352   7.070   6.377   4.464  2.2434  0.6518  1.2437
   21MOL   H91321353   7.304   6.445   4.450 -1.8801 -2.4007  1.4480
   21MOL   H91421354   7.657   6.638   4.260  1.0568  0.7834  1.0992
   21MOL   H91521355   7.807   6.668   4.431 -2.4523  1.6910  1.6876
   21MOL   H91621356   0.059   6.518   4.832  0.4587  0.5072 -0.6568
   21MOL   H91721357   0.051   6.391   5.044  0.9265 -0.8437 -1.7794
   21MOL   H91821358   7.834   6.233   5.444 -1.9708  0.0741 -0.0570
   21MOL   H91921359   7.878   6.364   5.644 -1.6641 -1.5414 -1.1842
   21MOL   N92021360   6.874   6.218   4.116 -0.5121 -0.7156 -0.2116
   21MOL   C92121361   6.778   6.113   4.113 -0.2693  0.6701 -0.2588
   21MOL   C92221362   6.708   6.078   4.227 -0.3175  0.1503  0.1504
   21MOL   C92321363   6.624   5.960   4.226 -0.0358 -0.0545  0.1597
   21MOL   C92421364   6.591   5.901   4.104  0.4871 -0.0199  0.2415
   21MOL   N92521365   6.516   5.787   4.091  0.9622 -0.4794 -0.2545
   21MOL   C92621366   6.389   5.763   4.152 -0.2856  0.3892 -0.0265
   21MOL   C92721367   6.311   5.879   4.175 -0.3756 -0.4117  0.3375
   21MOL   C92821368   6.177   5.862   4.211 -0.2586 -0.1089  0.2186
   21MOL   C92921369   6.120   5.728   4.229 -0.8738  0.2733  0.3124
   21MOL   N93021370   5.988   5.702   4.266 -0.6976  0.2228  0.7526
   21MOL   C93121371   5.896   5.791   4.322 -0.4904 -0.0987 -0.5147
   21MOL   C93221372   5.930   5.895   4.407  0.1382 -0.8143  0.0654
   21MOL   C93321373   5.823   5.976   4.443  0.3925 -0.4273 -0.3645
   21MOL   C93421374   5.688   5.945   4.414 -0.1234 -0.0646  0.4769
   21MOL   N93521375   5.578   6.034   4.453  0.2079 -0.1008  0.3527
   21MOL   C93621376   5.594   6.168   4.487  0.1676  0.0250 -0.5334
   21MOL   C93721377   5.512   6.237   4.583  0.0655  0.0199  0.1158
   21MOL   C93821378   5.546   6.360   4.637  0.4458  0.0784 -0.8021
   21MOL   C93921379   5.671   6.422   4.599 -0.3902  0.7593 -0.3316
   21MOL   C94021380   5.713   6.557   4.657 -0.1263 -0.4872 -0.1621
   21MOL   C94121381   5.748   6.366   4.497 -0.8624 -0.1716  0.3397
   21MOL   C94221382   5.705   6.244   4.435 -0.1900  0.6441 -0.0667
   21MOL   C94321383   5.656   5.833   4.349  0.2431 -0.7484 -0.5534
   21MOL   C94421384   5.757   5.753   4.299  0.6834  0.6233  0.0379
   21MOL   C94521385   6.213   5.620   4.225 -0.2063 -0.4360 -0.9315
   21MOL   C94621386   6.346   5.634   4.181 -0.7198  0.6061 -0.3740
   21MOL   C94721387   6.646   5.957   3.989  0.6053 -0.1805  0.8228
   21MOL   C94821388   6.742   6.056   3.988 -0.2368 -0.1172  0.4037
   21MOL   H94921389   6.920   6.236   4.028 -0.4756  0.7617  0.1081
   21MOL   H95021390   6.717   6.129   4.322  1.3475  1.8181 -0.8731
   21MOL   H95121391   6.579   5.922   4.317 -0.7577 -1.5609 -0.8044
   21MOL   H95221392   6.529   5.730   4.009 -1.9336 -1.9203  0.2344
   21MOL   H95321393   6.356   5.977   4.167 -0.4791 -0.3190  0.8682
   21MOL   H95421394   6.111   5.945   4.232 -0.3854  0.1462 -1.1236
   21MOL   H95521395   5.959   5.608   4.244  2.5991 -0.8612  0.7401
   21MOL   H95621396   6.031   5.917   4.437 -0.1234 -0.1909  0.4927
   21MOL   H95721397   5.856   6.062   4.500 -0.5483  1.4525 -2.5625
   21MOL   H95821398   5.485   5.994   4.459  0.5815 -1.2058 -1.0409
   21MOL   H95921399   5.425   6.181   4.611  0.1809 -0.0128  0.4048
   21MOL   H96021400   5.472   6.403   4.704  1.0177 -0.4260  0.1730
   21MOL   H96121401   5.686   6.541   4.761  1.7563 -1.3210  0.2181
   21MOL   H96221402   5.649   6.636   4.618 -1.9890 -0.2298  3.2300
   21MOL   H96321403   5.837   6.415   4.462 -0.4631 -0.7107  0.5775
   21MOL   H96421404   5.772   6.208   4.359  1.1477  2.7852  0.0910
   21MOL   H96521405   5.552   5.806   4.343 -0.2911 -0.1108  4.0756
   21MOL   H96621406   5.730   5.663   4.247  2.7418 -0.2583  0.4201
   21MOL   H96721407   6.186   5.519   4.253 -0.4219  0.0686  0.6856
   21MOL   H96821408   6.406   5.544   4.188 -1.8264 -0.1097  0.0648
   21MOL   H96921409   6.629   5.901   3.898 -2.3730  1.3609  0.3887
   21MOL   H97021410   6.797   6.093   3.902 -1.1177 -0.2064 -0.1965
   21MOL   N97121411   5.854   6.584   4.653 -0.0293 -0.0866 -0.1612
   21MOL   C97221412   5.904   6.678   4.562 -0.6364  0.4759 -0.6829
   21MOL   C97321413   6.017   6.645   4.486  0.1146 -0.3660 -0.6091
   21MOL   C97421414   6.064   6.737   4.383  0.2189  0.0516 -0.4183
   21MOL   C97521415   5.999   6.864   4.366 -0.1668  0.1630  0.7037
   21MOL   N97621416   6.062   6.954   4.279 -0.1615  0.5795  0.3903
   21MOL   C97721417   6.023   6.993   4.153  0.5336 -0.0306 -0.1875
   21MOL   C97821418   6.104   7.092   4.086 -0.1499 -0.0037  0.3329
   21MOL   C97921419   6.067   7.117   3.947 -0.0414 -0.6130 -0.1052
   21MOL   C98021420   5.962   7.050   3.886 -0.0848  0.2516  0.1849
   21MOL   N98121421   5.942   7.083   3.748  0.6783 -0.2782 -0.0650
   21MOL   C98221422   5.869   7.019   3.644 -0.0535  0.4279 -0.1770
   21MOL   C98321423   5.818   7.093   3.532 -0.8462  0.0917 -0.0654
   21MOL   C98421424   5.738   7.039   3.435 -0.3512  1.0863  0.4897
   21MOL   C98521425   5.735   6.899   3.426  0.3538 -0.2024 -0.4161
   21MOL   N98621426   5.678   6.839   3.311 -0.0074  0.2808  0.1506
   21MOL   C98721427   5.594   6.725   3.311  0.0729 -0.4547  0.0380
   21MOL   C98821428   5.596   6.627   3.210 -0.1467  0.2840 -0.1405
   21MOL   C98921429   5.524   6.507   3.220 -0.4910  0.2891 -0.4976
   21MOL   C99021430   5.443   6.482   3.333  0.3127  0.8670 -0.4392
   21MOL   C99121431   5.359   6.358   3.354  0.2710  0.5632 -0.1038
   21MOL   C99221432   5.437   6.577   3.434 -0.1966 -0.3073 -0.0503
   21MOL   C99321433   5.504   6.700   3.422  0.6874 -0.1390 -0.1429
   21MOL   C99421434   5.794   6.816   3.530  0.2653 -0.3851  0.3539
   21MOL   C99521435   5.861   6.879   3.641  0.1332 -0.2088 -0.5276
   21MOL   C99621436   5.883   6.963   3.959 -0.5069  0.7178  0.4064
   21MOL   C99721437   5.911   6.933   4.093 -0.4977 -0.6237 -0.2069
   21MOL   C99821438   5.889   6.895   4.438 -0.0625  0.0108  0.4639
   21MOL   C99921439   5.836   6.805   4.537 -0.1684  0.1160  0.5081
   21MOL     H121440   5.901   6.495   4.659  0.1396  0.2356  4.3903
   21MOL     H221441   6.073   6.554   4.502 -0.3791 -0.4559  0.6394
   21MOL     H321442   6.145   6.704   4.320  1.0130  1.2413 -0.0210
   21MOL     H421443   6.163   6.959   4.283  0.1010 -2.0745 -1.1672
   21MOL     H521444   6.185   7.136   4.142 -1.1660  0.7273  1.2462
   21MOL     H621445   6.126   7.181   3.884  0.4422  0.0736  1.0199
   21MOL     H721446   5.958   7.180   3.726 -2.2580 -0.1757 -2.0957
   21MOL     H821447   5.824   7.201   3.527 -0.9229  0.0787 -0.4305
   21MOL     H921448   5.693   7.107   3.364 -1.9206  1.9285  2.2373
   21MOL    H1021449   5.753   6.818   3.246  0.2593  0.7795  0.2958
   21MOL    H1121450   5.658   6.641   3.122  1.6471 -0.3417  1.0095
   21MOL    H1221451   5.527   6.431   3.143  0.2739 -0.7522  0.5347
   21MOL    H1321452   5.351   6.333   3.460  1.3308  4.2094  0.9283
   21MOL    H1421453   5.402   6.274   3.300 -0.0954  0.0145  0.4481
   21MOL    H1521454   5.367   6.568   3.516 -0.7075  0.3387 -0.4039
   21MOL    H1621455   5.493   6.776   3.497 -2.6218  0.1966 -0.9123
   21MOL    H1721456   5.784   6.709   3.520  0.8140 -0.1180 -3.6464
   21MOL    H1821457   5.903   6.811   3.715  2.1683  0.4617 -1.0352
   21MOL    H1921458   5.804   6.907   3.911 -0.2997  2.4933 -2.0741
   21MOL    H2021459   5.854   6.855   4.141 -1.4511 -0.0017 -0.3006
   21MOL    H2121460   5.833   6.987   4.431  0.0726  0.2310  2.1839
   21MOL    H2221461   5.740   6.827   4.582 -1.4039 -0.5911 -1.6968
   21MOL    H2321462   5.259   6.374   3.313  0.3759 -0.8474 -0.9249
   22MOL     N121463   5.887   7.458   4.267  0.3046 -0.2438  0.1900
   22MOL     C221464   5.790   7.368   4.210 -0.7737  0.3856 -0.6285
   22MOL     C321465   5.696   7.417   4.115 -0.1305 -0.4609  0.0892
   22MOL     C421466   5.592   7.334   4.072 -0.1426  0.1278 -0.0907
   22MOL     C521467   5.602   7.194   4.092  0.4844  0.4486  0.0569
   22MOL     N621468   5.515   7.110   4.024 -0.4068 -0.0414 -0.5183
   22MOL     C721469   5.495   7.110   3.884 -0.0727  0.3352  1.0187
   22MOL     C821470   5.399   7.017   3.834 -0.6164 -0.0844 -0.0873
   22MOL     C921471   5.380   7.001   3.697  0.0201 -0.7364 -0.4330
   22MOL    C1021472   5.443   7.082   3.600  0.4082  0.0014  0.0072
   22MOL    N1121473   5.414   7.074   3.463 -0.4026 -0.4116 -0.4259
   22MOL    C1221474   5.287   7.070   3.401 -0.2594 -0.2246 -0.2435
   22MOL    C1321475   5.266   6.996   3.287  0.8146 -0.3329  0.1447
   22MOL    C1421476   5.141   6.989   3.225  0.8577  0.3895  0.4901
   22MOL    C1521477   5.035   7.069   3.273 -0.2397 -0.3779  0.1685
   22MOL    N1621478   4.911   7.049   3.214 -0.2899 -0.5941  0.2550
   22MOL    C1721479   4.814   7.141   3.174 -0.7492  0.3508  0.6056
   22MOL    C1821480   4.793   7.268   3.235 -0.3086  0.1316  0.3626
   22MOL    C1921481   4.685   7.343   3.185  0.8454 -0.2313 -0.3616
   22MOL    C2021482   4.611   7.306   3.078 -0.7626  0.1928 -0.4111
   22MOL    C2121483   4.496   7.403   3.031 -0.3691  0.1702 -0.2733
   22MOL    C2221484   4.621   7.184   3.020 -0.0972 -0.4138 -0.0549
   22MOL    C2321485   4.730   7.107   3.068 -0.6347  0.7460 -0.4144
   22MOL    C2421486   5.050   7.133   3.396  0.5311  0.2909 -0.1838
   22MOL    C2521487   5.178   7.136   3.460  0.3571  0.0152  0.1290
   22MOL    C2621488   5.528   7.179   3.654  0.1844 -0.3010  0.2322
   22MOL    C2721489   5.560   7.194   3.793 -0.1482  0.0570 -0.0013
   22MOL    C2821490   5.686   7.144   4.187 -0.4060 -0.6408 -0.6343
   22MOL    C2921491   5.786   7.233   4.248 -0.5976 -0.4712 -0.4734
   22MOL    H3021492   5.937   7.408   4.339 -0.0792 -0.9909 -0.0573
   22MOL    H3121493   5.691   7.522   4.089 -1.2688 -0.1693  1.4472
   22MOL    H3221494   5.510   7.374   4.015 -0.6836  0.5553  0.9661
   22MOL    H3321495   5.470   7.031   4.068 -0.6287  1.5115  2.1340
   22MOL    H3421496   5.356   6.954   3.911 -0.0205 -0.9063 -0.4281
   22MOL    H3521497   5.302   6.932   3.668 -0.5447 -0.5402  0.5759
   22MOL    H3621498   5.496   7.055   3.406  0.8490 -4.3097  2.4943
   22MOL    H3721499   5.347   6.937   3.247  2.2972  0.7805  1.4417
   22MOL    H3821500   5.130   6.923   3.140  1.8298 -1.6013  1.8701
   22MOL    H3921501   4.911   6.975   3.145 -0.5152  0.7614 -1.2402
   22MOL    H4021502   4.842   7.307   3.324  1.2204  0.8359 -0.7589
   22MOL    H4121503   4.668   7.439   3.230  2.6391 -0.3870  0.6760
   22MOL    H4221504   4.440   7.448   3.112 -0.4449 -1.6162  0.6993
   22MOL    H4321505   4.431   7.345   2.965 -0.4369  0.3225 -0.3375
   22MOL    H4421506   4.560   7.164   2.933 -2.3286 -0.0466  1.3804
   22MOL    H4521507   4.745   7.008   3.028  1.0301  0.6391  0.4109
   22MOL    H4621508   4.968   7.188   3.440  1.3046  0.5967  0.8991
   22MOL    H4721509   5.191   7.200   3.546  0.4253  1.2534 -0.7943
   22MOL    H4821510   5.583   7.248   3.592  2.5202 -0.4612  2.0857
   22MOL    H4921511   5.629   7.275   3.815 -0.2503  0.1804 -0.1359
   22MOL    H5021512   5.698   7.040   4.213  0.5234 -0.4266 -0.1927
   22MOL    H5121513   5.863   7.187   4.309 -1.8391 -0.6402  0.9862
   22MOL    H5221514   5.847   7.545   4.299 -0.7413 -0.0532 -1.5537
   22MOL    N5321515   4.559   7.508   2.954 -0.7222  0.2361 -0.1114
   22MOL    C5421516   4.526   7.528   2.823 -0.7439  0.5080 -0.2284
   22MOL    C5521517   4.393   7.547   2.789 -0.2370  0.2239  0.0363
   22MOL    C5621518   4.352   7.592   2.662 -0.5300 -0.1620 -0.5247
   22MOL    C5721519   4.453   7.623   2.568 -0.1597  0.2609 -0.1550
   22MOL    N5821520   4.412   7.671   2.441  0.1066  0.2629  0.0126
   22MOL    C5921521   4.314   7.609   2.360 -0.3067  0.0580  0.1733
   22MOL    C6021522   4.285   7.472   2.374  0.2247 -0.0363  0.5594
   22MOL    C6121523   4.184   7.413   2.301 -0.1924  0.3451  0.0446
   22MOL    C6221524   4.106   7.490   2.219 -0.3231 -0.5509 -0.3868
   22MOL    N6321525   3.994   7.437   2.151 -0.4467  0.5055  0.0250
   22MOL    C6421526   3.858   7.483   2.167 -0.4524  0.1942 -0.3648
   22MOL    C6521527   3.747   7.398   2.138  0.4076 -0.4492 -0.0124
   22MOL    C6621528   3.613   7.440   2.163  0.5664  0.2693 -0.3664
   22MOL    C6721529   3.591   7.559   2.240  0.9631  0.0547  0.6910
   22MOL    N6821530   3.460   7.605   2.256  0.3246 -0.0096 -0.2893
   22MOL    C6921531   3.356   7.594   2.161 -0.6494  0.3647 -0.4078
   22MOL    C7021532   3.224   7.588   2.217 -0.1028  0.2240  0.6455
   22MOL    C7121533   3.121   7.546   2.129  0.6033  0.1629 -0.0436
   22MOL    C7221534   3.136   7.527   1.992 -0.4942 -0.0184 -0.6395
   22MOL    C7321535   3.022   7.492   1.893 -0.1058  0.1714  0.1051
   22MOL    C7421536   3.265   7.541   1.940  1.2124 -0.4399 -0.0064
   22MOL    C7521537   3.376   7.577   2.024 -0.6985 -0.4513  0.1913
   22MOL    C7621538   3.702   7.631   2.281  0.3761  0.2888  0.3985
   22MOL    C7721539   3.833   7.598   2.244  0.2281  0.3651 -0.4521
   22MOL    C7821540   4.136   7.628   2.204  0.1538 -0.4207  0.3721
   22MOL    C7921541   4.240   7.689   2.275 -0.2777  0.2633  0.0938
   22MOL    C8021542   4.588   7.613   2.612 -0.0145  0.6843  0.6911
   22MOL    C8121543   4.629   7.560   2.735  0.0163 -0.3034 -0.0666
   22MOL    H8221544   4.659   7.514   2.956 -0.8680  2.9193  1.8622
   22MOL    H8321545   4.322   7.528   2.868 -1.3943  0.8347 -0.8528
   22MOL    H8421546   4.249   7.608   2.635 -0.8894 -1.0981  0.2881
   22MOL    H8521547   4.479   7.729   2.392  0.7244 -2.6893 -2.7935
   22MOL    H8621548   4.339   7.405   2.440 -1.5758  1.3920  3.5952
   22MOL    H8721549   4.161   7.308   2.312 -0.0629  0.1673 -1.3009
   22MOL    H8821550   4.012   7.341   2.125 -1.5859  0.1227  0.6218
   22MOL    H8921551   3.763   7.302   2.091  0.1384  0.0279 -1.0934
   22MOL    H9021552   3.534   7.382   2.118 -0.3644  0.8656  0.4890
   22MOL    H9121553   3.438   7.671   2.330  0.8638 -0.2905  0.1276
   22MOL    H9221554   3.205   7.601   2.322 -1.3832  2.2812  0.1984
   22MOL    H9321555   3.021   7.537   2.170  0.1882 -0.5978 -1.1702
   22MOL    H9421556   3.051   7.453   1.796  1.1841 -0.0872  0.5847
   22MOL    H9521557   2.982   7.593   1.882  2.4337  0.9411 -2.7762
   22MOL    H9621558   3.281   7.524   1.835  2.4263  2.0954 -0.2621
   22MOL    H9721559   3.476   7.580   1.984  0.0125 -1.4797  1.8697
   22MOL    H9821560   3.691   7.725   2.335 -0.6974 -0.9826  2.4809
   22MOL    H9921561   3.915   7.660   2.276  1.8089 -0.5821 -2.5111
   22MOL   H10021562   4.076   7.685   2.133  1.6924  0.4736 -0.2315
   22MOL   H10121563   4.260   7.795   2.272 -2.1828  0.6338 -0.1942
   22MOL   H10221564   4.663   7.648   2.542  0.6641 -1.2978  0.4027
   22MOL   H10321565   4.735   7.548   2.751  0.0150 -1.8785 -1.1801
   22MOL   N10421566   2.924   7.407   1.960 -0.1293  0.3774  0.3188
   22MOL   C10521567   2.789   7.400   1.919 -0.2354  0.3514  1.1951
   22MOL   C10621568   2.713   7.273   1.938  0.4107 -0.2154  0.6541
   22MOL   C10721569   2.572   7.278   1.901 -0.3262  0.2304 -0.4409
   22MOL   C10821570   2.515   7.384   1.830  0.1473  0.0433  0.0189
   22MOL   N10921571   2.385   7.376   1.775  0.5193  0.3533 -0.3493
   22MOL   C11021572   2.364   7.403   1.641  0.3828  0.0717  0.4538
   22MOL   C11121573   2.237   7.444   1.594  0.1120  0.4216  0.1728
   22MOL   C11221574   2.220   7.486   1.459  0.3641 -0.3597 -0.7400
   22MOL   C11321575   2.337   7.494   1.375 -0.7021 -0.4719 -0.1596
   22MOL   N11421576   2.322   7.563   1.254 -0.8218  0.3832  0.3360
   22MOL   C11521577   2.407   7.658   1.194  0.6977  0.0244  0.1861
   22MOL   C11621578   2.383   7.695   1.065  0.3499 -0.2686  0.2004
   22MOL   C11721579   2.469   7.782   1.002  0.4595 -0.0984  0.2818
   22MOL   C11821580   2.577   7.843   1.070 -0.0208  0.4882  0.4171
   22MOL   N11921581   2.662   7.936   1.010  0.2655  0.2269 -0.1975
   22MOL   C12021582   2.660   7.978   0.880 -0.0619 -0.3509  0.3350
   22MOL   C12121583   2.657   7.891   0.771  0.1112 -0.2643 -0.7407
   22MOL   C12221584   2.679   7.946   0.641 -0.0291 -0.2893 -0.1310
   22MOL   C12321585   2.707   0.102   0.632 -0.4686  0.4371 -0.5724
   22MOL   C12421586   2.733   0.150   0.492  0.0348  0.5430 -0.2228
   22MOL   C12521587   2.700   0.185   0.739 -0.0776 -0.1727  0.2742
   22MOL   C12621588   2.685   0.135   0.865  0.2763  0.1347  0.5056
   22MOL   C12721589   2.601   7.801   1.201  0.3004 -0.2536  0.0863
   22MOL   C12821590   2.517   7.712   1.266 -0.1541  0.4307 -0.2566
   22MOL   C12921591   2.462   7.451   1.418 -0.0645 -0.1159 -0.1592
   22MOL   C13021592   2.470   7.406   1.552  0.0049  0.4419 -0.0211
   22MOL   C13121593   2.593   7.502   1.805 -0.4074  0.1264  0.3338
   22MOL   C13221594   2.730   7.509   1.851 -0.2614 -0.1330 -0.2466
   22MOL   H13321595   2.961   7.329   2.012  0.1665 -0.0661 -0.5460
   22MOL   H13421596   2.756   7.183   1.979 -2.0547 -1.4106  0.6917
   22MOL   H13521597   2.524   7.187   1.934  0.1790  0.6491  1.4917
   22MOL   H13621598   2.323   7.305   1.810  1.6185 -0.4456  0.0073
   22MOL   H13721599   2.150   7.438   1.658  0.1358  1.0842  0.2639
   22MOL   H13821600   2.126   7.529   1.429 -0.5043 -2.3461 -0.8906
   22MOL   H13921601   2.242   7.536   1.199  0.3459  0.3539 -1.3703
   22MOL   H14021602   2.298   7.652   1.014 -0.3153 -0.2147  1.2586
   22MOL   H14121603   2.447   7.818   0.903 -0.7786  1.8307  1.2222
   22MOL   H14221604   2.737   7.973   1.066  0.7935  1.6894 -1.8317
   22MOL   H14321605   2.633   7.787   0.790 -1.8675  0.1353 -0.9839
   22MOL   H14421606   2.664   7.886   0.553 -3.1644  0.0556  0.1057
   22MOL   H14521607   2.640   0.149   0.434  0.7125  1.8677 -1.3626
   22MOL   H14621608   2.788   0.066   0.450 -0.2257 -0.7298  1.9196
   22MOL   H14721609   2.713   0.292   0.730  1.1363 -0.3514 -0.2189
   22MOL   H14821610   2.677   0.199   0.952  2.0448 -1.3173  1.7621
   22MOL   H14921611   2.669   7.857   1.265  0.0139  0.7208 -0.4574
   22MOL   H15021612   2.524   7.692   1.372 -2.7646 -0.3666 -0.1944
   22MOL   H15121613   2.546   7.457   1.351 -0.6733 -1.0024 -1.0191
   22MOL   H15221614   2.566   7.374   1.590  1.0760 -1.6929 -4.2262
   22MOL   H15321615   2.553   7.589   1.754 -0.6856  0.5100  1.1820
   22MOL   H15421616   2.782   7.603   1.838 -0.6947 -0.1228 -2.0280
   22MOL   N15521617   2.804   0.275   0.475  0.1939  0.1408 -0.1551
   22MOL   C15621618   2.941   0.264   0.477 -0.5763 -0.5680 -0.2803
   22MOL   C15721619   3.013   0.164   0.548  0.3450 -0.9541 -0.3768
   22MOL   C15821620   3.152   0.167   0.554 -0.3870  0.2001  0.4087
   22MOL   C15921621   3.222   0.265   0.478 -0.7229  0.2780  0.1444
   22MOL   N16021622   3.363   0.271   0.481  0.4826  0.3750 -0.1609
   22MOL   C16121623   3.443   0.158   0.519 -0.5476 -0.7414  0.2809
   22MOL   C16221624   3.537   0.176   0.624  0.3559 -0.5087  0.4070
   22MOL   C16321625   3.612   0.071   0.678  0.5552  0.5850  0.2785
   22MOL   C16421626   3.607   7.928   0.612  0.9647  0.0951  0.1533
   22MOL   N16521627   3.685   7.817   0.652 -0.3441 -0.6571  0.9932
   22MOL   C16621628   3.820   7.814   0.683 -0.5703  0.6282 -0.8845
   22MOL   C16721629   3.885   7.716   0.760  0.1352  0.1990  0.0087
   22MOL   C16821630   4.020   7.725   0.802 -0.8705 -0.4077  0.5835
   22MOL   C16921631   4.098   7.835   0.751  0.0448 -0.3506 -0.5286
   22MOL   N17021632   4.233   7.859   0.782  0.1076 -0.0100 -0.3970
   22MOL   C17121633   4.326   7.762   0.827  0.7960  0.6207 -0.3225
   22MOL   C17221634   4.428   7.812   0.914  0.0552  0.2960  0.0763
   22MOL   C17321635   4.506   7.733   0.993 -0.7752  0.5464  0.4646
   22MOL   C17421636   4.487   7.594   0.978  0.2398  0.0081  0.1970
   22MOL   C17521637   4.571   7.496   1.067 -0.3293 -0.2325  0.1300
   22MOL   C17621638   4.400   7.542   0.877 -0.1687  0.7193  0.1105
   22MOL   C17721639   4.315   7.624   0.805 -0.5418 -0.0775 -0.4093
   22MOL   C17821640   4.038   7.924   0.656 -0.5987 -0.4036 -0.7417
   22MOL   C17921641   3.903   7.914   0.634 -0.1688  0.1604  0.2917
   22MOL   C18021642   3.519   7.914   0.501  0.1023  0.2077  0.0586
   22MOL   C18121643   3.429   0.032   0.459  0.5587  0.2203 -0.1822
   22MOL   C18221644   3.152   0.368   0.411  0.0615 -0.0513  0.0034
   22MOL   C18321645   3.015   0.373   0.418  0.2909 -0.0880 -0.2507
   22MOL   H18421646   2.763   0.326   0.398 -0.0667 -0.7190 -0.5976
   22MOL   H18521647   2.963   0.091   0.611  0.0961 -0.5239 -0.0764
   22MOL   H18621648   3.202   0.100   0.623  0.5234 -1.5245 -1.8456
   22MOL   H18721649   3.409   0.360   0.475  1.0112  0.2346  1.5409
   22MOL   H18821650   3.540   0.274   0.669 -1.2149  0.8994 -2.4310
   22MOL   H18921651   3.695   0.079   0.746  1.1070  0.1808 -0.3438
   22MOL   H19021652   3.638   7.728   0.656 -1.6336 -0.0302  0.2343
   22MOL   H19121653   3.827   7.632   0.794 -1.2475  1.6345  1.2381
   22MOL   H19221654   4.065   7.646   0.860  2.9299  1.3340  0.1411
   22MOL   H19321655   4.265   7.952   0.758 -1.1094  0.3744 -0.5408
   22MOL   H19421656   4.452   7.916   0.928  0.5129  0.0616  1.1310
   22MOL   H19521657   4.578   7.781   1.058  0.6635 -0.6827 -0.1830
   22MOL   H19621658   4.616   7.555   1.146 -0.1572  2.0465 -1.5992
   22MOL   H19721659   4.650   7.472   0.996  0.3339  1.7353  0.1849
   22MOL   H19821660   4.388   7.435   0.869  1.3990  0.6342 -1.4780
   22MOL   H19921661   4.259   7.590   0.719 -0.1272  1.1626 -1.1770
   22MOL   H20021662   4.086   0.025   0.607 -0.7159 -0.3253 -0.7243
   22MOL   H20121663   3.856   0.006   0.571 -1.0546 -1.3451 -0.8609
   22MOL   H20221664   3.523   7.816   0.455  4.2309  1.3614 -2.2652
   22MOL   H20321665   3.369   0.019   0.370 -0.2172 -0.4004  0.4212
   22MOL   H20421666   3.206   0.441   0.354 -2.4030  4.2265  2.9068
   22MOL   H20521667   2.960   0.456   0.376 -1.0402 -2.4779 -3.4660
   22MOL   N20621668   4.492   7.387   1.119  0.9510 -0.2211 -0.2280
   22MOL   C20721669   4.561   7.268   1.134  0.1199 -0.2312  0.0664
   22MOL   C20821670   4.589   7.231   1.264 -0.9318  0.0915 -0.5420
   22MOL   C20921671   4.657   7.114   1.290 -0.3127  0.0032 -0.4355
   22MOL   C21021672   4.715   7.038   1.185  0.4035 -0.3879 -0.1282
   22MOL   N21121673   4.777   6.909   1.208 -0.2149  0.7001 -0.1178
   22MOL   C21221674   4.758   6.829   1.319 -0.1173  0.4185  0.0991
   22MOL   C21321675   4.632   6.817   1.387  0.0393 -0.1029  0.3519
   22MOL   C21421676   4.614   6.746   1.508 -0.2422  0.3200  0.1912
   22MOL   C21521677   4.723   6.681   1.559  0.1198 -0.2622 -0.3402
   22MOL   N21621678   4.713   6.616   1.682  0.3647 -0.2077  0.5486
   22MOL   C21721679   4.758   6.483   1.692  0.1995  0.2908 -0.1646
   22MOL   C21821680   4.824   6.449   1.815  1.0862 -0.0059 -0.2647
   22MOL   C21921681   4.873   6.320   1.836 -0.2038 -0.6231 -0.0237
   22MOL   C22021682   4.841   6.216   1.744  0.4557  0.1995 -0.5082
   22MOL   N22121683   4.885   6.087   1.754  0.3342  0.0808 -0.3546
   22MOL   C22221684   4.988   6.037   1.832  0.6633  0.5767 -0.2432
   22MOL   C22321685   5.093   5.961   1.768  0.8976  0.2984  1.1482
   22MOL   C22421686   5.181   5.893   1.854  0.2248 -0.0179 -0.0056
   22MOL   C22521687   5.170   5.905   2.001  0.1309 -1.2852 -0.1022
   22MOL   C22621688   5.255   5.811   2.094  0.9888 -0.2494 -0.6306
   22MOL   C22721689   5.074   5.991   2.055 -0.1140 -0.1380 -0.0835
   22MOL   C22821690   4.982   6.057   1.967  0.4896  0.0037  0.2866
   22MOL   C22921691   4.761   6.245   1.638 -0.4991 -0.0919 -0.1988
   22MOL   C23021692   4.725   6.378   1.605 -0.0631  0.1862  0.9289
   22MOL   C23121693   4.851   6.699   1.495  0.4323 -0.1458  0.0129
   22MOL   C23221694   4.870   6.759   1.374 -0.9173 -0.8584  0.4056
   22MOL   C23321695   4.694   7.087   1.053  0.3221  0.0967 -0.3668
   22MOL   C23421696   4.625   7.206   1.027 -0.7573 -0.2045 -0.1158
   22MOL   H23521697   4.437   7.405   1.202  1.4691 -0.7116  0.2248
   22MOL   H23621698   4.550   7.289   1.346 -0.6792  0.2027 -0.5039
   22MOL   H23721699   4.663   7.075   1.391 -2.2504  0.1019 -0.2672
   22MOL   H23821700   4.833   6.877   1.131 -1.9394 -0.1956 -1.0238
   22MOL   H23921701   4.545   6.873   1.355  0.2004  1.3504  2.3535
   22MOL   H24021702   4.519   6.736   1.559 -0.9307 -1.2116 -1.3456
   22MOL   H24121703   4.637   6.640   1.744 -0.4418  0.7628 -0.8175
   22MOL   H24221704   4.850   6.529   1.883 -0.7237 -0.8578  1.4782
   22MOL   H24321705   4.941   6.303   1.919 -0.1507 -1.1841 -0.1820
   22MOL   H24421706   4.851   6.026   1.681 -0.0167  0.1104 -0.2170
   22MOL   H24521707   5.089   5.944   1.662 -0.4043  0.4863  1.1625
   22MOL   H24621708   5.245   5.814   1.816 -3.1666 -3.3694  0.9969
   22MOL   H24721709   5.207   5.713   2.092 -1.0465  0.7098  0.1077
   22MOL   H24821710   5.248   5.845   2.198  0.2301 -1.0710 -0.4040
   22MOL   H24921711   5.043   5.974   2.157 -1.7416 -0.2724 -0.5925
   22MOL   H25021712   4.894   6.098   2.014  2.1515  1.2730  2.3936
   22MOL   H25121713   4.736   6.170   1.564  0.3964 -0.5950  0.0034
   22MOL   H25221714   4.688   6.404   1.507  1.2141 -1.6735 -0.0684
   22MOL   H25321715   4.934   6.661   1.553 -2.0663 -1.8626  2.5994
   22MOL   H25421716   4.968   6.765   1.330 -1.2164  0.7830 -0.0554
   22MOL   H25521717   4.747   7.034   0.975  0.7435  0.7948 -0.5649
   22MOL   H25621718   4.616   7.244   0.926 -1.3108 -0.4046 -0.1433
   22MOL   N25721719   5.397   5.811   2.058  0.4597  0.6468  0.2031
   22MOL   C25821720   5.485   5.707   2.091  0.4809  0.3539  0.8497
   22MOL   C25921721   5.617   5.714   2.046 -0.2337 -0.8158 -1.0659
   22MOL   C26021722   5.697   5.602   2.054 -0.3435  0.0523 -0.4232
   22MOL   C26121723   5.656   5.489   2.133  0.1060  0.8954  0.6960
   22MOL   N26221724   5.740   5.381   2.165  0.0069 -0.3398 -0.5885
   22MOL   C26321725   5.875   5.395   2.189 -0.5470  0.6255  0.2791
   22MOL   C26421726   5.935   5.517   2.219 -0.5299  0.0212 -0.4027
   22MOL   C26521727   6.070   5.523   2.256 -0.3891  0.0164  0.7225
   22MOL   C26621728   6.155   5.412   2.243 -0.5530 -0.3520  0.5368
   22MOL   N26721729   6.291   5.414   2.282 -0.0340 -0.5622 -0.6610
   22MOL   C26821730   6.373   5.529   2.292 -0.3798  0.8160 -0.0411
   22MOL   C26921731   6.468   5.544   2.401 -0.5882 -0.0603  0.4954
   22MOL   C27021732   6.561   5.650   2.403 -0.1502  0.2201 -0.6188
   22MOL   C27121733   6.524   5.768   2.330  0.3034  0.4227 -0.4011
   22MOL   N27221734   6.591   5.885   2.361  0.1054 -0.2227  1.0190
   22MOL   C27321735   6.561   6.014   2.316  0.0708  0.1706  0.5771
   22MOL   C27421736   6.429   6.056   2.310  0.0741  0.1216 -0.6720
   22MOL   C27521737   6.405   6.196   2.283 -0.6956 -0.0367 -0.2094
   22MOL   C27621738   6.506   6.283   2.234  0.6307  0.0226  0.4273
   22MOL   C27721739   6.478   6.426   2.211 -0.3554  0.1770 -0.1510
   22MOL   C27821740   6.636   6.234   2.239  0.3084  0.1676 -0.4403
   22MOL   C27921741   6.661   6.100   2.279  0.1984 -0.7413  0.0656
   22MOL   C28021742   6.436   5.753   2.221 -0.3026  0.9058  0.0703
   22MOL   C28121743   6.365   5.634   2.199  0.0142 -0.2239 -0.3605
   22MOL   C28221744   6.098   5.284   2.206 -0.1022 -0.4093  0.2074
   22MOL   C28321745   5.958   5.277   2.188  0.6141  0.6545 -0.0576
   22MOL   C28421746   5.526   5.481   2.179 -0.1289  0.2323 -0.7560
   22MOL   C28521747   5.441   5.590   2.164  0.0156  0.1766  0.5173
   22MOL   H28621748   5.426   5.890   2.002  0.8888  2.0205  2.2878
   22MOL   H28721749   5.644   5.803   1.991 -0.7785  0.7593  1.1265
   22MOL   H28821750   5.799   5.612   2.022  0.2081  1.3550  1.6439
   22MOL   H28921751   5.691   5.295   2.190 -1.6918  0.4421 -1.1224
   22MOL   H29021752   5.887   5.613   2.231  1.0057  0.3573  3.5475
   22MOL   H29121753   6.100   5.620   2.293  0.8270  0.0003 -0.1598
   22MOL   H29221754   6.332   5.326   2.308  0.8340  0.6073  2.1797
   22MOL   H29321755   6.485   5.470   2.478 -0.0086  0.4738  0.8852
   22MOL   H29421756   6.641   5.655   2.475 -1.9184  1.2902  1.3279
   22MOL   H29521757   6.683   5.871   2.402  0.0684 -3.3466  0.2160
   22MOL   H29621758   6.344   5.997   2.341  0.3164  1.1644  2.1444
   22MOL   H29721759   6.301   6.224   2.291 -0.6538  0.1078 -0.1865
   22MOL   H29821760   6.398   6.416   2.138 -0.6683 -0.0255  0.2175
   22MOL   H29921761   6.566   6.477   2.173 -0.2067 -1.9927 -2.8628
   22MOL   H30021762   6.722   6.293   2.211 -0.6983  0.5318 -2.8825
   22MOL   H30121763   6.762   6.064   2.284  0.8967  0.8576 -1.7092
   22MOL   H30221764   6.425   5.833   2.149  0.0218 -1.8288 -3.1246
   22MOL   H30321765   6.303   5.633   2.111 -0.1292 -0.0960 -0.2586
   22MOL   H30421766   6.156   5.195   2.189  0.3714 -0.3210  1.2912
   22MOL   H30521767   5.912   5.181   2.168  0.5684  1.1690 -2.6587
   22MOL   H30621768   5.501   5.389   2.231  0.8494  1.7760  2.5394
   22MOL   H30721769   5.341   5.572   2.200  0.6416 -2.4266  1.0470
   22MOL   N30821770   6.435   6.491   2.331 -0.0338  0.1570  0.0819
   22MOL   C30921771   6.353   6.605   2.309 -0.2912 -0.0361 -0.1450
   22MOL   C31021772   6.404   6.720   2.244 -0.4564 -0.8027  0.1009
   22MOL   C31121773   6.322   6.831   2.234  1.0023  0.0314 -0.3205
   22MOL   C31221774   6.187   6.835   2.271  0.0505  0.0903 -0.2476
   22MOL   N31321775   6.105   6.949   2.248 -0.1593 -0.4724 -0.2962
   22MOL   C31421776   5.971   6.959   2.284 -0.2491 -0.0526 -0.2514
   22MOL   C31521777   5.939   7.040   2.401  0.1352  0.1592  0.1666
   22MOL   C31621778   5.804   7.061   2.442  0.7087 -0.1170 -0.0200
   22MOL   C31721779   5.703   6.991   2.374  0.5301  0.6503  0.7620
   22MOL   N31821780   5.574   7.017   2.423 -0.1593 -0.1206  0.0178
   22MOL   C31921781   5.456   7.050   2.354  0.5133  0.3092 -0.6618
   22MOL   C32021782   5.355   7.130   2.420  0.1153  0.1741 -0.1633
   22MOL   C32121783   5.252   7.198   2.351  0.3712  0.2353  0.0804
   22MOL   C32221784   5.243   7.186   2.213  0.1433 -0.5632 -0.1910
   22MOL   N32321785   5.126   7.239   2.162 -0.3884 -0.6146 -0.1208
   22MOL   C32421786   5.060   7.208   2.048 -0.3327  0.7721 -0.4797
   22MOL   C32521787   4.992   7.313   1.979 -0.1998 -0.2418 -0.1439
   22MOL   C32621788   4.923   7.289   1.855  0.2262 -0.4347 -0.2506
   22MOL   C32721789   4.925   7.154   1.800  0.6041  0.5893 -0.5992
   22MOL   C32821790   4.858   7.133   1.667 -0.1138  0.1096  0.3121
   22MOL   C32921791   4.988   7.050   1.877  0.2550 -0.1549  0.0521
   22MOL   C33021792   5.058   7.076   1.994 -0.0081  0.4598 -0.6720
   22MOL   C33121793   5.335   7.108   2.143 -1.0273 -0.0247  0.3909
   22MOL   C33221794   5.438   7.041   2.213  0.0348  0.3988  0.2127
   22MOL   C33321795   5.735   6.907   2.270  0.0027 -0.6282  0.7180
   22MOL   C33421796   5.867   6.890   2.222  0.2424  0.3483  0.1782
   22MOL   C33521797   6.139   6.727   2.336  0.1864 -0.0344 -0.3630
   22MOL   C33621798   6.220   6.605   2.360  0.4979  0.8121  0.0315
   22MOL   H33721799   6.397   6.418   2.389  0.7870  0.8723  1.5450
   22MOL   H33821800   6.503   6.720   2.201 -0.9966  0.7918 -1.2188
   22MOL   H33921801   6.370   6.919   2.194 -0.4826 -0.6210 -3.7053
   22MOL   H34021802   6.155   7.037   2.248 -0.7185 -0.1481 -0.4157
   22MOL   H34121803   6.023   7.097   2.436  0.5280 -0.8707  0.9184
   22MOL   H34221804   5.780   7.129   2.523 -1.2297 -1.6564  0.7455
   22MOL   H34321805   5.580   7.072   2.508 -1.6736  0.8093 -0.4493
   22MOL   H34421806   5.351   7.146   2.527 -1.6959  3.0975 -0.6160
   22MOL   H34521807   5.178   7.257   2.403  0.0343  0.7677 -1.0055
   22MOL   H34621808   5.074   7.295   2.228  0.9709  0.1177  0.3645
   22MOL   H34721809   5.000   7.411   2.024  0.9345 -0.0718 -0.6949
   22MOL   H34821810   4.880   7.374   1.805 -0.9200 -0.7406  0.2056
   22MOL   H34921811   4.854   7.228   1.613  1.0345 -0.3759 -0.6633
   22MOL   H35021812   4.751   7.113   1.675 -0.5858  2.7229  1.1693
   22MOL   H35121813   4.996   6.951   1.833 -1.2529 -0.4033  0.3171
   22MOL   H35221814   5.103   6.991   2.045 -3.4617 -0.9390  0.1703
   22MOL   H35321815   5.322   7.099   2.036 -0.2637 -2.8444  0.4965
   22MOL   H35421816   5.517   6.996   2.154  0.8868  1.8060  0.2720
   22MOL   H35521817   5.657   6.848   2.224  0.1823 -0.7022  0.5103
   22MOL   H35621818   5.882   6.833   2.132 -2.5923 -0.6631  0.2857
   22MOL   H35721819   6.034   6.722   2.360  0.1839 -0.3819 -0.4386
   22MOL   H35821820   6.180   6.512   2.396  1.3683 -0.1660 -1.4610
   22MOL   N35921821   4.918   7.031   1.584  0.1835 -0.1829 -0.4756
   22MOL   C36021822   5.042   7.041   1.519 -0.8200 -0.2365  0.0128
   22MOL   C36121823   5.127   6.930   1.505  0.4346 -0.2490  0.0288
   22MOL   C36221824   5.254   6.942   1.445 -0.3276  0.0553  0.0592
   22MOL   C36321825   5.298   7.059   1.387  0.2763  0.1260 -0.7699
   22MOL   N36421826   5.415   7.064   1.314  0.0581 -0.5510  0.0558
   22MOL   C36521827   5.515   7.161   1.319  0.2653 -0.2197 -0.3960
   22MOL   C36621828   5.524   7.250   1.433  0.5420  0.2416 -0.5205
   22MOL   C36721829   5.612   7.356   1.434 -1.0313 -0.6511  0.0474
   22MOL   C36821830   5.704   7.368   1.325 -0.3151  0.4749 -0.8541
   22MOL   N36921831   5.804   7.464   1.330  0.7195 -0.2453  0.3499
   22MOL   C37021832   5.829   7.551   1.439  0.4287 -0.3752  1.0207
   22MOL   C37121833   5.858   7.511   1.572  0.0430  0.7016  0.0207
   22MOL   C37221834   5.858   7.604   1.682 -0.1224  0.5880 -0.6689
   22MOL   C37321835   5.842   7.738   1.660 -0.3704  0.2538  0.1592
   22MOL   N37421836   5.869   7.826   1.761 -0.7383  0.0776 -0.5012
   22MOL   C37521837   5.979   7.809   1.844 -0.3222  0.1454  0.0764
   22MOL   C37621838   6.093   7.738   1.806  0.2995 -0.0368 -0.8431
   22MOL   C37721839   6.204   7.728   1.889  0.6852 -0.0448 -0.1621
   22MOL   C37821840   6.208   7.795   2.012 -0.7855 -0.4625  0.0503
   22MOL   C37921841   6.339   7.780   2.097 -0.2551  0.1352  0.4396
   22MOL   C38021842   6.090   7.867   2.053 -0.8635 -0.4048  0.5072
   22MOL   C38121843   5.980   7.886   1.968 -0.2537  0.3109  0.5381
   22MOL   C38221844   5.813   7.781   1.530  0.5901 -0.5489 -0.2032
   22MOL   C38321845   5.817   7.691   1.418  0.5189 -0.0483  0.0298
   22MOL   C38421846   5.700   7.279   1.214 -0.0868  0.3633 -1.1546
   22MOL   C38521847   5.600   7.179   1.211  0.8993  0.2240  0.2065
   22MOL   C38621848   5.216   7.174   1.402 -0.1625 -0.4832 -0.6886
   22MOL   C38721849   5.091   7.165   1.467  0.7371 -0.0507  0.1290
   22MOL   H38821850   4.857   6.962   1.543  0.6847 -1.1775  0.4405
   22MOL   H38921851   5.099   6.834   1.545  0.7698 -0.3271  0.0758
   22MOL   H39021852   5.315   6.853   1.445  1.0240  0.9680  0.3866
   22MOL   H39121853   5.442   6.971   1.287 -0.4235 -0.2282 -1.5924
   22MOL   H39221854   5.469   7.228   1.523  0.3557  0.6807 -0.5281
   22MOL   H39321855   5.613   7.418   1.522  0.7485  1.4880 -1.3973
   22MOL   H39421856   5.832   7.499   1.240 -2.4096  2.0888  0.2012
   22MOL   H39521857   5.868   7.407   1.597  2.2876  0.4151 -1.8271
   22MOL   H39621858   5.889   7.567   1.779 -0.2376 -0.2451 -0.9512
   22MOL   H39721859   5.786   7.869   1.800 -1.6085  0.3525 -2.6368
   22MOL   H39821860   6.100   7.687   1.711  0.3719  0.5787 -1.1717
   22MOL   H39921861   6.291   7.676   1.852  0.7927  1.0759 -1.5494
   22MOL   H40021862   6.337   7.791   2.206 -0.2892  2.4540  0.2466
   22MOL   H40121863   6.392   7.872   2.073  1.7778 -0.8182  1.2134
   22MOL   H40221864   6.087   7.919   2.147  1.0764 -2.8014  1.9253
   22MOL   H40321865   5.893   7.948   1.984  0.3011  1.8996 -2.2020
   22MOL   H40421866   5.798   7.885   1.505 -1.9130 -1.1614 -1.3531
   22MOL   H40521867   5.790   7.728   1.321  2.6398 -3.0511 -1.8320
   22MOL   H40621868   5.775   7.290   1.137 -0.1660 -2.3964 -1.6729
   22MOL   H40721869   5.592   7.114   1.125  1.3969 -0.1442  0.4388
   22MOL   H40821870   5.254   7.268   1.363  0.1115 -0.5815 -0.6594
   22MOL   H40921871   5.035   7.256   1.479 -0.0746 -0.4298 -0.8064
   22MOL   N41021872   6.426   7.663   2.068  0.1870  0.4244  0.4433
   22MOL   C41121873   6.400   7.543   2.128 -0.5194 -0.4672  0.1549
   22MOL   C41221874   6.507   7.458   2.152 -0.4087  0.7967 -0.6673
   22MOL   C41321875   6.494   7.328   2.211  0.4248  0.7259  0.3359
   22MOL   C41421876   6.371   7.302   2.266 -0.1090  0.1796 -0.4532
   22MOL   N41521877   6.360   7.185   2.344 -0.1772  0.9010 -0.0816
   22MOL   C41621878   6.321   7.175   2.479 -0.0215  0.6091  0.1230
   22MOL   C41721879   6.314   7.046   2.535 -0.1632 -0.0741 -0.2974
   22MOL   C41821880   6.252   7.022   2.661 -0.4425 -0.7974 -0.0439
   22MOL   C41921881   6.226   7.134   2.743 -0.4450 -0.5966  0.0355
   22MOL   N42021882   6.187   7.107   2.875 -0.8666 -0.1624 -0.7243
   22MOL   C42121883   6.133   7.202   2.965  0.1840  0.4236  0.2287
   22MOL   C42221884   6.198   7.216   3.087  0.0258  0.0355  0.5028
   22MOL   C42321885   6.137   7.290   3.188 -1.0203 -0.4246 -0.2222
   22MOL   C42421886   6.015   7.358   3.169  0.4200 -0.2057  0.2334
   22MOL   N42521887   5.963   7.438   3.264  0.1869 -0.0397 -0.2409
   22MOL   C42621888   5.825   7.451   3.300  0.4358  0.9575  0.3783
   22MOL   C42721889   5.777   7.565   3.363 -0.4844  0.3646 -0.3328
   22MOL   C42821890   5.638   7.575   3.393  0.0168 -0.5511  0.2657
   22MOL   C42921891   5.547   7.473   3.360  0.0255  0.6176  0.5598
   22MOL   C43021892   5.395   7.496   3.379 -0.0713  0.0537 -0.1652
   22MOL   C43121893   5.597   7.362   3.294  0.0799 -0.2727  0.2543
   22MOL   C43221894   5.729   7.344   3.263 -0.1222  0.3968  0.0181
   22MOL   C43321895   5.954   7.344   3.043  0.0011  0.2035 -0.5808
   22MOL   C43421896   6.009   7.265   2.938 -0.5247  0.2021 -0.4809
   22MOL   C43521897   6.242   7.264   2.692 -0.8149  0.5188 -0.0157
   22MOL   C43621898   6.287   7.282   2.559 -0.1574 -0.3143  0.4926
   22MOL   C43721899   6.254   7.381   2.233  0.2583 -0.3838 -0.7197
   22MOL   C43821900   6.273   7.498   2.157 -0.3855  0.5286  0.4907
   22MOL   H43921901   6.523   7.686   2.049  0.3779 -1.2757 -0.7906
   22MOL   H44021902   6.606   7.482   2.117  0.8725 -0.8293  1.6545
   22MOL   H44121903   6.579   7.262   2.215 -0.8015 -0.7660  2.3176
   22MOL   H44221904   6.369   7.096   2.296  0.5200  0.3101  1.1075
   22MOL   H44321905   6.347   6.961   2.477 -1.6876 -2.4470  2.1908
   22MOL   H44421906   6.239   6.923   2.703 -0.1642 -0.6883  0.3064
   22MOL   H44521907   6.225   7.025   2.920  0.0553  0.8461  0.3634
   22MOL   H44621908   6.296   7.171   3.095  0.7283  1.3485 -0.4993
   22MOL   H44721909   6.190   7.291   3.282 -1.4201  0.8914  0.0082
   22MOL   H44821910   6.024   7.498   3.316  0.1375 -0.2679  0.0830
   22MOL   H44921911   5.844   7.641   3.401 -0.7876  1.7043 -2.3977
   22MOL   H45021912   5.595   7.660   3.443  0.9025 -0.5871  1.1116
   22MOL   H45121913   5.345   7.400   3.362 -0.4582  0.4279 -1.1757
   22MOL   H45221914   5.358   7.566   3.304  0.5994 -0.5017 -1.0328
   22MOL   H45321915   5.532   7.280   3.268  1.3819 -1.2382 -0.0408
   22MOL   H45421916   5.758   7.257   3.206  1.5104  1.1912 -0.3691
   22MOL   H45521917   5.861   7.392   3.015 -0.2927 -1.1667 -2.0364
   22MOL   H45621918   5.960   7.261   2.842  0.1352 -2.2018 -0.7485
   22MOL   H45721919   6.211   7.344   2.758 -1.2728 -1.3570  2.1034
   22MOL   H45821920   6.298   7.387   2.536 -0.7243 -0.1930  0.7892
   22MOL   H45921921   6.157   7.348   2.265 -0.5709  0.6704 -2.0884
   22MOL   H46021922   6.185   7.553   2.126  0.3514  0.2279 -2.2775
   22MOL   N46121923   5.362   7.527   3.515  0.8044  0.4357 -0.4165
   22MOL   C46221924   5.227   7.556   3.544  0.0363  0.2277  0.4291
   22MOL   C46321925   5.180   7.529   3.672  0.0714 -0.5280 -0.4509
   22MOL   C46421926   5.044   7.558   3.709  0.0897 -0.0441 -0.4116
   22MOL   C46521927   4.963   7.609   3.609  0.7274  1.1114 -0.4039
   22MOL   N46621928   4.830   7.640   3.644  0.1435 -0.5547  0.1293
   22MOL   C46721929   4.774   7.767   3.657  0.0434 -0.9741  0.3998
   22MOL   C46821930   4.832   7.891   3.608  0.7129 -0.6743  0.9695
   22MOL   C46921931   4.769   0.028   3.625 -1.0539  0.4488 -0.3051
   22MOL   C47021932   4.652   0.041   3.703  0.2778 -0.0948  0.5411
   22MOL   N47121933   4.591   0.161   3.734 -0.1764  0.2948  0.0816
   22MOL   C47221934   4.601   0.279   3.654  0.2997 -0.0527 -0.2297
   22MOL   C47321935   4.589   0.404   3.716 -0.4190 -0.2608  0.0176
   22MOL   C47421936   4.582   0.526   3.645 -0.1774  0.6300  0.0539
   22MOL   C47521937   4.597   0.525   3.503 -0.3574 -0.5431 -0.2243
   22MOL   N47621938   4.584   0.640   3.428 -0.0247 -0.0434 -0.2169
   22MOL   C47721939   4.487   0.736   3.442 -0.1932  0.2337 -0.0425
   22MOL   C47821940   4.378   0.728   3.533  0.2575 -0.1048 -0.7419
   22MOL   C47921941   4.287   0.837   3.546 -0.4994  0.8701 -0.5962
   22MOL   C48021942   4.305   0.950   3.468  0.3135  0.7343 -0.6414
   22MOL   C48121943   4.213   1.073   3.497  0.5738 -0.4344 -0.0007
   22MOL   C48221944   4.404   0.955   3.369  0.0469  0.1849  0.4215
   22MOL   C48321945   4.492   0.844   3.354 -0.1300 -0.2674  0.1590
   22MOL   C48421946   4.598   0.396   3.440  0.3411  0.1111 -0.6528
   22MOL   C48521947   4.602   0.282   3.512  0.3641  0.3472  0.7383
   22MOL   C48621948   4.603   7.904   3.758  0.4368 -0.5124 -0.0948
   22MOL   C48721949   4.672   7.781   3.746 -0.0861  0.1664  0.5111
   22MOL   C48821950   5.005   7.640   3.481  0.1586  0.1831  0.1106
   22MOL   C48921951   5.140   7.621   3.445 -0.3268  0.6027  0.2827
   22MOL   H49021952   5.412   7.471   3.583 -1.1876  0.8269  1.4426
   22MOL   H49121953   5.247   7.498   3.751  0.2928  3.1830  0.9213
   22MOL   H49221954   5.006   7.530   3.806  0.8596  2.9128  0.7867
   22MOL   H49321955   4.798   7.583   3.721 -2.3014  1.2266  0.5229
   22MOL   H49421956   4.923   7.883   3.552  0.7574 -0.4876  1.0151
   22MOL   H49521957   4.822   0.112   3.582 -0.9342  1.3433  1.5611
   22MOL   H49621958   4.553   0.173   3.826 -0.6023  1.0847 -0.1875
   22MOL   H49721959   4.600   0.410   3.823 -1.6632 -1.0968  0.1966
   22MOL   H49821960   4.582   0.624   3.690  0.5459 -0.0776  1.6604
   22MOL   H49921961   4.636   0.646   3.342 -0.7298  0.2970 -0.6154
   22MOL   H50021962   4.365   0.637   3.591  0.1762 -1.1883 -2.4278
   22MOL   H50121963   4.205   0.852   3.614  1.1142  2.3085  1.0906
   22MOL   H50221964   4.238   1.166   3.446  0.6315 -0.7946 -0.6368
   22MOL   H50321965   4.215   1.088   3.604  2.5405  2.3378 -0.3537
   22MOL   H50421966   4.415   1.049   3.317  2.0985  0.2906  1.0082
   22MOL   H50521967   4.572   0.867   3.284  0.5517 -1.5299  0.5061
   22MOL   H50621968   4.594   0.387   3.333  1.9097  1.9495 -0.8791
   22MOL   H50721969   4.601   0.185   3.465 -3.2352  0.7700 -0.2184
   22MOL   H50821970   4.516   7.898   3.823  1.0250 -0.3520  0.7162
   22MOL   H50921971   4.625   7.693   3.787 -0.3149  0.0115 -0.0782
   22MOL   H51021972   4.935   7.684   3.411 -0.0017  0.5044  0.4681
   22MOL   H51121973   5.183   7.655   3.353  1.7783  0.1832  1.0839
   22MOL   N51221974   4.078   1.049   3.449 -0.4930 -1.4226 -0.9403
   22MOL   C51321975   4.039   1.035   3.316 -0.6850  0.5283 -0.7492
   22MOL   C51421976   3.913   0.980   3.290  0.0832  0.5850  0.1871
   22MOL   C51521977   3.881   0.954   3.155  0.2879  0.4632  0.0097
   22MOL   C51621978   3.968   0.977   3.046  0.6908  0.6071  0.1660
   22MOL   N51721979   3.955   0.935   2.914  0.0575 -0.0615  0.6636
   22MOL   C51821980   3.840   0.927   2.831  0.6295 -0.2549 -0.0878
   22MOL   C51921981   3.712   0.875   2.867  0.0908 -0.5766  0.1284
   22MOL   C52021982   3.600   0.893   2.782  0.0005 -0.3027 -1.0293
   22MOL   C52121983   3.612   0.946   2.651  0.9511  0.6851 -0.6596
   22MOL   N52221984   3.502   0.950   2.572  0.1013 -0.0378 -0.4247
   22MOL   C52321985   3.492   0.966   2.433 -0.2818 -0.7503  0.5602
   22MOL   C52421986   3.434   0.864   2.363  0.4705 -0.6081  0.7314
   22MOL   C52521987   3.417   0.874   2.222 -0.2144  1.0083 -0.2665
   22MOL   C52621988   3.438   0.993   2.153 -0.0510  0.3305  0.0657
   22MOL   N52721989   3.402   0.996   2.022  0.7457 -1.0837  0.3006
   22MOL   C52821990   3.413   1.100   1.932 -0.0053 -0.2588 -0.2989
   22MOL   C52921991   3.512   1.200   1.935 -0.1744 -0.3591  0.0399
   22MOL   C53021992   3.513   1.312   1.851  0.4335 -0.0769 -0.2737
   22MOL   C53121993   3.427   1.317   1.738 -0.3011  0.0326  0.0970
   22MOL   C53221994   3.446   1.423   1.635  0.0324  0.1303  0.5047
   22MOL   C53321995   3.322   1.223   1.740  0.3577  0.6526 -0.3563
   22MOL   C53421996   3.314   1.121   1.839  0.7664 -0.5651  0.0835
   22MOL   C53521997   3.497   1.098   2.227 -0.2766  0.1311  0.4636
   22MOL   C53621998   3.527   1.087   2.367  0.4035  0.1263  0.6845
   22MOL   C53721999   3.739   0.984   2.611  0.0481 -0.1226  1.3076
   22MOL   C53822000   3.849   0.980   2.701 -0.5875  0.1785 -0.0590
   22MOL   C53922001   4.080   1.055   3.078  0.2730  0.5380 -0.6241
   22MOL   C54022002   4.118   1.081   3.214  0.2394 -0.6206  0.2632
   22MOL   H54122003   4.030   0.990   3.516 -1.5762  1.0872  0.5639
   22MOL   H54222004   3.849   0.958   3.374  0.1744  0.7246  0.2919
   22MOL   H54322005   3.784   0.911   3.133  2.4044 -3.8167 -1.5720
   22MOL   H54422006   4.032   0.967   2.858 -1.5073  0.5827 -1.1932
   22MOL   H54522007   3.714   0.820   2.960 -0.1665  1.7205  1.5345
   22MOL   H54622008   3.510   0.841   2.809  1.6987 -2.1641  1.2850
   22MOL   H54722009   3.423   0.898   2.608 -0.6746  0.8073 -0.8794
   22MOL   H54822010   3.419   0.772   2.418 -0.8499 -0.0198  1.3841
   22MOL   H54922011   3.371   0.794   2.166  1.7576 -0.2395 -0.1708
   22MOL   H55022012   3.350   0.916   1.990 -0.3199 -0.5083  0.5725
   22MOL   H55122013   3.601   1.184   1.993  0.0596 -0.8963 -0.4560
   22MOL   H55222014   3.590   1.387   1.861  0.7571 -0.5445  0.7038
   22MOL   H55322015   3.498   1.505   1.684  1.6767 -1.0272  0.7405
   22MOL   H55422016   3.350   1.450   1.593  0.7824 -0.1790 -1.4374
   22MOL   H55522017   3.247   1.226   1.663  1.1116  3.8305 -1.0324
   22MOL   H55622018   3.230   1.058   1.814 -0.1860 -0.1146  2.0835
   22MOL   H55722019   3.518   1.191   2.176 -0.3725 -0.2593 -0.2871
   22MOL   H55822020   3.555   1.173   2.426 -0.7016  1.3244 -0.5016
   22MOL   H55922021   3.747   1.033   2.515 -3.2326  0.7675  1.4219
   22MOL   H56022022   3.940   1.027   2.667 -1.3808  3.3586  2.0371
   22MOL   H56122023   4.140   1.101   3.001 -0.8286  1.0338 -1.1966
   22MOL   H56222024   4.211   1.132   3.234  0.5243 -2.4176  3.9406
   22MOL   N56322025   3.525   1.371   1.532  0.5162  0.4374 -0.0944
   22MOL   C56422026   3.515   1.433   1.404  0.0134  0.0628  0.1267
   22MOL   C56522027   3.493   1.572   1.390  0.2903  0.0943 -0.4031
   22MOL   C56622028   3.478   1.633   1.266 -0.0902  0.5100  0.3109
   22MOL   C56722029   3.494   1.549   1.145 -0.3143 -0.1022  0.8452
   22MOL   N56822030   3.476   1.587   1.012 -0.1414  0.1323  0.2133
   22MOL   C56922031   3.516   1.704   0.947 -0.1821  0.4027  0.0323
   22MOL   C57022032   3.509   1.709   0.809  0.3200 -0.8156  0.2965
   22MOL   C57122033   3.567   1.814   0.737  0.3169  0.3967  0.4521
   22MOL   C57222034   3.633   1.923   0.800 -0.6064 -0.7745  0.4346
   22MOL   N57322035   3.705   2.013   0.719 -0.8395 -0.0841  0.1665
   22MOL   C57422036   3.756   2.136   0.758 -0.2904  0.4008 -0.1871
   22MOL   C57522037   3.679   2.218   0.847 -0.5322 -0.4477 -0.1248
   22MOL   C57622038   3.730   2.342   0.884 -0.2657 -0.2455 -0.0503
   22MOL   C57722039   3.853   2.388   0.834  0.8047 -0.3284  0.3612
   22MOL   N57822040   3.898   2.519   0.862  0.2754 -0.4167  0.5427
   22MOL   C57922041   4.022   2.548   0.923 -0.4430  0.1868 -0.7441
   22MOL   C58022042   4.121   2.460   0.979 -0.1757 -0.3505  0.2347
   22MOL   C58122043   4.225   2.511   1.055  0.1781 -0.0283 -0.5357
   22MOL   C58222044   4.250   2.644   1.067  0.6509  0.3616  0.3196
   22MOL   C58322045   4.372   2.686   1.149  0.3696 -0.1559  0.7332
   22MOL   C58422046   4.168   2.733   0.994  0.8434 -0.3480  0.7652
   22MOL   C58522047   4.052   2.688   0.921 -0.3604 -0.1531 -1.1760
   22MOL   C58622048   3.940   2.303   0.765 -0.9151  0.3878  0.8799
   22MOL   C58722049   3.889   2.173   0.725  0.0762 -0.8012  0.3198
   22MOL   C58822050   3.632   1.927   0.944  0.1166 -0.5308 -0.3095
   22MOL   C58922051   3.572   1.818   1.014  0.4620 -0.0031 -0.4655
   22MOL   C59022052   3.529   1.414   1.158  0.1807 -0.4338  0.7434
   22MOL   C59122053   3.535   1.358   1.288 -0.2771  0.4054 -0.6261
   22MOL   H59222054   3.523   1.270   1.531  3.1490  0.3596 -1.2965
   22MOL   H59322055   3.478   1.636   1.475  2.2670  0.4306 -0.2894
   22MOL   H59422056   3.431   1.730   1.257  0.4284  0.8605  1.3196
   22MOL   H59522057   3.493   1.514   0.945  1.6389 -0.0614  0.8279
   22MOL   H59622058   3.469   1.632   0.745 -0.4051 -1.8254  1.9546
   22MOL   H59722059   3.565   1.802   0.629 -0.0834  0.1351  0.4895
   22MOL   H59822060   3.710   1.984   0.622  0.4727  1.3318 -0.2067
   22MOL   H59922061   3.580   2.189   0.881 -0.3321 -0.3248  0.5706
   22MOL   H60022062   3.671   2.405   0.949  0.1075  1.3563 -1.2378
   22MOL   H60122063   3.829   2.592   0.866  1.3055  0.5145  2.3502
   22MOL   H60222064   4.104   2.353   0.983 -0.4737 -0.3538 -0.8591
   22MOL   H60322065   4.294   2.439   1.095 -0.9580 -0.7910  0.0768
   22MOL   H60422066   4.353   2.648   1.249 -0.3453 -0.0189  0.6483
   22MOL   H60522067   4.373   2.794   1.165 -3.1802  0.1096 -0.4028
   22MOL   H60622068   4.199   2.836   1.008 -0.4550  0.3639 -1.3836
   22MOL   H60722069   3.985   2.766   0.887 -0.5728  0.9005  1.5234
   22MOL   H60822070   4.045   2.329   0.760 -0.3306 -2.3628 -1.9744
   22MOL   H60922071   3.949   2.099   0.673  0.0672 -1.1959  0.8601
   22MOL   H61022072   3.691   2.001   0.997  0.4055  0.2483 -1.6797
   22MOL   H61122073   3.574   1.816   1.122 -0.3013  0.9824 -0.4306
   22MOL   H61222074   3.554   1.348   1.076  1.8082  1.9211 -0.7207
   22MOL   H61322075   3.551   1.252   1.299  0.4049  0.2462 -2.9589
   22MOL   N61422076   4.495   2.637   1.088  0.3043  0.5400 -0.5763
   22MOL   C61522077   4.573   2.547   1.159  0.3182  0.6486  0.8047
   22MOL   C61622078   4.528   2.459   1.255  0.6628  0.2826 -0.2036
   22MOL   C61722079   4.621   2.383   1.324 -0.0972  0.0440 -0.7706
   22MOL   C61822080   4.753   2.381   1.289 -1.0026  0.6593 -0.0299
   22MOL   N61922081   4.845   2.312   1.363  0.5074 -0.3972  0.5394
   22MOL   C62022082   4.840   2.175   1.384  0.2575 -0.0428  0.4561
   22MOL   C62122083   4.735   2.092   1.342 -0.0605  0.1642  1.0208
   22MOL   C62222084   4.734   1.953   1.364 -0.2523 -0.5405  0.3372
   22MOL   C62322085   4.835   1.892   1.430 -0.0717  0.4697  0.0307
   22MOL   N62422086   4.845   1.752   1.428 -0.2077 -0.4794 -0.4862
   22MOL   C62522087   4.886   1.669   1.536 -0.4814 -0.4834 -0.6189
   22MOL   C62622088   4.916   1.707   1.671  0.3439 -0.2815  0.2857
   22MOL   C62722089   4.942   1.614   1.773  0.3839  0.6055 -0.2710
   22MOL   C62822090   4.923   1.480   1.736 -1.1638 -0.9168 -0.8923
   22MOL   N62922091   4.916   1.388   1.840  0.4100  0.4556  0.1045
   22MOL   C63022092   4.834   1.278   1.842  0.1101 -0.0678 -0.3655
   22MOL   C63122093   4.886   1.151   1.873 -0.1946  0.3482 -0.1036
   22MOL   C63222094   4.799   1.041   1.881  0.1271  0.4289  0.3052
   22MOL   C63322095   4.658   1.056   1.857 -0.7149 -0.5463  0.1153
   22MOL   C63422096   4.565   0.935   1.857 -0.2881 -0.8932  0.4312
   22MOL   C63522097   4.609   1.187   1.826 -0.3288  1.0857  0.1357
   22MOL   C63622098   4.696   1.297   1.816 -0.4706  0.5448 -0.4968
   22MOL   C63722099   4.905   1.434   1.606  0.1292  0.4435  0.5307
   22MOL   C63822100   4.890   1.528   1.506 -0.3464 -1.3113  0.5076
   22MOL   C63922101   4.946   1.972   1.468  0.3279 -0.4655  0.0441
   22MOL   C64022102   4.947   2.117   1.454 -0.2293  0.1719 -0.1519
   22MOL   C64122103   4.797   2.459   1.179 -0.0814 -0.2452 -0.4111
   22MOL   C64222104   4.707   2.551   1.122  0.2915  0.0667 -0.6668
   22MOL   H64322105   4.535   2.689   1.012 -1.0285  0.1418 -1.5726
   22MOL   H64422106   4.425   2.438   1.283  1.3065 -3.0805 -0.1472
   22MOL   H64522107   4.574   2.337   1.411 -0.0926  0.1925 -0.6904
   22MOL   H64622108   4.937   2.352   1.375  0.4720 -0.1144 -0.1105
   22MOL   H64722109   4.647   2.127   1.290  1.0352  0.8962 -0.3653
   22MOL   H64822110   4.649   1.902   1.321 -0.5890  0.8935 -0.7446
   22MOL   H64922111   4.819   1.703   1.344  0.4977  0.3109 -1.1751
   22MOL   H65022112   4.894   1.807   1.706 -0.6071  1.0224 -3.7876
   22MOL   H65122113   4.943   1.639   1.878 -0.1007  1.9474 -0.5700
   22MOL   H65222114   4.932   1.431   1.930  0.3235 -1.6226  1.1568
   22MOL   H65322115   4.991   1.129   1.889  0.5922  2.7257 -1.6435
   22MOL   H65422116   4.846   0.945   1.893 -0.3078 -0.0314 -1.5746
   22MOL   H65522117   4.615   0.840   1.872 -0.0389 -0.6313  1.3083
   22MOL   H65622118   4.540   0.933   1.751 -0.5953 -2.8192  0.5373
   22MOL   H65722119   4.505   1.193   1.799 -0.2139 -0.4947 -0.7059
   22MOL   H65822120   4.660   1.398   1.804  0.1769  0.6883 -1.3070
   22MOL   H65922121   4.890   1.334   1.569  2.1801  0.5422 -0.6622
   22MOL   H66022122   4.879   1.482   1.409 -0.1411  0.7367 -0.5122
   22MOL   H66122123   5.038   1.931   1.507  1.6161 -0.7817 -3.1728
   22MOL   H66222124   5.023   2.182   1.495  2.1655 -2.9029  0.4443
   22MOL   H66322125   4.898   2.456   1.141  0.0194  0.8460 -0.2492
   22MOL   H66422126   4.746   2.618   1.046  2.0253 -0.6939 -0.4842
   22MOL   N66522127   4.446   0.942   1.948 -0.5069  0.2420  0.6317
   22MOL   C66622128   4.464   0.917   2.087  0.2504  0.0893 -0.0274
   22MOL   C66722129   4.551   0.823   2.137  0.1306 -0.1897 -0.6453
   22MOL   C66822130   4.541   0.782   2.269 -0.3784 -0.9714  0.3400
   22MOL   C66922131   4.455   0.845   2.351 -0.0177 -0.0319  0.7983
   22MOL   N67022132   4.468   0.815   2.489  0.7169 -0.3120  0.1379
   22MOL   C67122133   4.372   0.794   2.590 -0.1819 -0.6846  0.2227
   22MOL   C67222134   4.414   0.772   2.725 -0.0289 -0.1518 -0.8488
   22MOL   C67322135   4.326   0.721   2.815 -0.5870  0.9034  0.8131
   22MOL   C67422136   4.188   0.710   2.783  0.6726 -0.4124 -0.2732
   22MOL   N67522137   4.089   0.656   2.865 -0.2331 -0.5066 -0.1720
   22MOL   C67622138   4.109   0.574   2.972 -0.4781  0.7228 -0.3721
   22MOL   C67722139   4.122   0.434   2.961 -0.3221 -0.5284  0.0718
   22MOL   C67822140   4.134   0.353   3.071 -0.0531  0.1711  0.0152
   22MOL   C67922141   4.138   0.401   3.203 -0.0648  0.3283 -1.1529
   22MOL   N68022142   4.153   0.307   3.303  0.1212 -0.4014  0.5145
   22MOL   C68122143   4.160   0.327   3.436  0.4290 -0.5404 -0.3056
   22MOL   C68222144   4.259   0.262   3.512 -0.4867 -0.0445  0.0805
   22MOL   C68322145   4.271   0.287   3.655 -0.3047 -0.4410  0.4836
   22MOL   C68422146   4.183   0.370   3.724  0.2412  0.7252 -0.7766
   22MOL   C68522147   4.201   0.388   3.871 -0.2121  0.1175  0.6978
   22MOL   C68622148   4.088   0.439   3.649  0.9479  0.0448  0.2247
   22MOL   C68722149   4.080   0.420   3.506 -0.6433 -0.3199  0.0135
   22MOL   C68822150   4.116   0.537   3.221  0.4376  0.5633 -0.6232
   22MOL   C68922151   4.104   0.621   3.108  0.1314 -0.7667  0.3953
   22MOL   C69022152   4.142   0.752   2.656 -0.2458  0.9133 -0.0846
   22MOL   C69122153   4.238   0.774   2.553 -0.1687 -0.0174 -0.0140
   22MOL   C69222154   4.369   0.948   2.308 -0.1576 -0.7434 -0.6662
   22MOL   C69322155   4.373   0.984   2.173  0.4809  0.4777 -0.1090
   22MOL   H69422156   4.374   1.004   1.913  0.0679  0.1006 -0.8542
   22MOL   H69522157   4.635   0.776   2.088 -0.9824 -3.2797  0.2615
   22MOL   H69622158   4.607   0.710   2.314  2.2068  0.4169 -1.1341
   22MOL   H69722159   4.565   0.810   2.517  1.1862  0.2981 -1.3164
   22MOL   H69822160   4.515   0.784   2.761 -0.3224 -0.9292  0.2253
   22MOL   H69922161   4.350   0.674   2.909 -0.9692 -2.2703 -0.5960
   22MOL   H70022162   4.013   0.721   2.884  0.5568  0.4755 -0.3350
   22MOL   H70122163   4.096   0.389   2.867  0.9360 -0.5579 -0.2691
   22MOL   H70222164   4.149   0.250   3.043  1.3422  0.0487  1.1539
   22MOL   H70322165   4.190   0.219   3.272 -1.8551 -1.2909  0.5932
   22MOL   H70422166   4.315   0.187   3.458 -1.6039 -2.0092  1.5716
   22MOL   H70522167   4.348   0.234   3.711 -1.0289 -1.5270  0.4557
   22MOL   H70622168   4.256   0.300   3.905 -2.8501 -1.5741  0.7238
   22MOL   H70722169   4.116   0.402   3.938 -0.8807 -0.2061 -0.0668
   22MOL   H70822170   4.015   0.500   3.700 -1.5425 -1.7594 -1.1078
   22MOL   H70922171   4.003   0.463   3.445 -1.0421 -0.9104  0.0953
   22MOL   H71022172   4.096   0.590   3.314  0.5904 -1.9798  0.8987
   22MOL   H71122173   4.082   0.726   3.119 -1.7453 -0.9095 -1.5859
   22MOL   H71222174   4.035   0.756   2.637 -0.3598  1.0309  0.5886
   22MOL   H71322175   4.205   0.783   2.451 -2.8844 -0.2645  0.8091
   22MOL   H71422176   4.306   1.004   2.376 -1.0729 -0.4466 -1.7393
   22MOL   H71522177   4.293   1.048   2.138  0.2803  0.6299  0.6157
   22MOL   N71622178   4.291   0.505   3.903 -0.1417  0.4477 -0.3800
   22MOL   C71722179   4.381   0.481   4.008 -0.0079 -0.4971  0.5465
   22MOL   C71822180   4.361   0.387   4.105 -0.4082 -0.2506  0.1702
   22MOL   C71922181   4.449   0.364   4.210  0.0230 -0.1144 -0.0269
   22MOL   C72022182   4.569   0.433   4.208 -0.1789 -0.3838  0.1263
   22MOL   N72122183   4.668   0.420   4.306  0.2263 -0.3503 -0.2483
   22MOL   C72222184   4.710   0.310   4.383  0.3875 -0.9106  0.1045
   22MOL   C72322185   4.642   0.181   4.396  0.4816  0.0136  0.3461
   22MOL   C72422186   4.692   0.086   4.485 -0.9089 -0.1701  0.4967
   22MOL   C72522187   4.807   0.116   4.553  0.3866  0.4591  0.6233
   22MOL   N72622188   4.851   0.023   4.653 -0.5475  0.1302  0.1217
   22MOL   C72722189   4.926   0.060   4.771 -0.4912 -0.9608  0.2077
   22MOL   C72822190   4.862   0.141   4.871  0.0213 -0.3008  0.0864
   22MOL   C72922191   4.936   0.164   4.992  0.6439  0.0795 -1.0693
   22MOL   C73022192   5.064   0.121   5.014 -0.6037  0.0995  0.4326
   22MOL   N73122193   5.138   0.168   5.119 -0.5211  0.0935 -0.3258
   22MOL   C73222194   5.242   0.102   5.191 -0.3118 -0.2574  0.3482
   22MOL   C73322195   5.315   0.181   5.287 -0.9822 -0.5124 -0.2022
   22MOL   C73422196   5.413   0.118   5.367  0.3502 -0.3868  0.2391
   22MOL   C73522197   5.438   7.964   5.353 -0.2539 -1.0428 -0.1813
   22MOL   C73622198   5.549   7.890   5.433 -0.8168 -0.9532  0.2112
   22MOL   C73722199   5.358   7.890   5.262  0.0984  0.1010 -0.7017
   22MOL   C73822200   5.262   7.944   5.185  0.1145 -0.9404  1.2403
   22MOL   C73922201   5.122   0.032   4.910  0.2657 -0.1386 -0.6211
   22MOL   C74022202   5.057   0.012   4.788 -0.3874  0.4559  0.3474
   22MOL   C74122203   4.877   0.236   4.536  0.3630  0.4749 -0.7071
   22MOL   C74222204   4.828   0.329   4.452 -0.2128 -1.2078 -0.5478
   22MOL   C74322205   4.604   0.519   4.106 -0.2768 -0.4579  0.2067
   22MOL   C74422206   4.507   0.543   4.005  0.2211  0.1327  0.0422
   22MOL   H74522207   4.325   0.571   3.835  1.4387 -0.2001 -0.2558
   22MOL   H74622208   4.260   0.348   4.108 -0.3591 -0.8062 -3.3404
   22MOL   H74722209   4.412   0.317   4.300 -0.2362 -0.1642 -0.1611
   22MOL   H74822210   4.732   0.498   4.312  0.2755 -0.5014  1.2972
   22MOL   H74922211   4.554   0.153   4.340 -1.1925 -0.4506  3.1576
   22MOL   H75022212   4.638   7.975   4.494  1.2514 -1.4903  0.2459
   22MOL   H75122213   4.873   7.916   4.611 -1.3994 -0.1111  0.1785
   22MOL   H75222214   4.764   0.185   4.867  0.4090  0.5074 -0.7200
   22MOL   H75322215   4.890   0.233   5.061  0.5513 -0.0324 -1.0187
   22MOL   H75422216   5.108   0.257   5.156 -0.1441 -0.9615  2.6667
   22MOL   H75522217   5.299   0.287   5.290 -1.6595 -0.6103 -0.3695
   22MOL   H75622218   5.480   0.187   5.416  0.5828 -0.8575  0.5877
   22MOL   H75722219   5.624   7.877   5.355  1.0305  0.2606  1.7578
   22MOL   H75822220   5.518   7.788   5.458  2.2585 -2.5201 -2.1579
   22MOL   H75922221   5.374   7.784   5.255 -0.9015 -0.1103  0.1389
   22MOL   H76022222   5.208   7.872   5.125 -1.0003  0.8246  0.0654
   22MOL   H76122223   5.215   7.960   4.916  0.3624  0.0284 -0.6148
   22MOL   H76222224   5.106   7.929   4.718  2.7455  1.2794  1.6885
   22MOL   H76322225   4.966   0.255   4.596  0.9886  0.3835 -1.5976
   22MOL   H76422226   4.876   0.425   4.442 -0.4324 -0.8991  1.0991
   22MOL   H76522227   4.705   0.557   4.101 -0.7790  1.6111  3.9809
   22MOL   H76622228   4.523   0.613   3.925  0.0811 -1.0259 -1.0191
   22MOL   N76722229   5.599   7.942   5.556  0.6957 -0.4410 -0.5119
   22MOL   C76822230   5.672   0.079   5.562 -0.6965  0.1804  0.1731
   22MOL   C76922231   5.741   0.127   5.449 -0.7493 -0.8755 -0.1464
   22MOL   C77022232   5.794   0.254   5.452  0.0212  0.5729 -0.7972
   22MOL   C77122233   5.801   0.321   5.574  0.3894  0.4007 -0.3822
   22MOL   N77222234   5.855   0.453   5.575 -0.4876  0.1358  0.4967
   22MOL   C77322235   5.925   0.510   5.469  0.0206  0.1493  0.2305
   22MOL   C77422236   6.061   0.486   5.448  0.0378  0.3694 -0.3212
   22MOL   C77522237   6.131   0.557   5.351 -0.2059 -0.0808  0.4210
   22MOL   C77622238   6.067   0.656   5.279  0.1935  0.0449  0.1539
   22MOL   N77722239   6.129   0.729   5.175 -0.3312 -0.2480 -0.6007
   22MOL   C77822240   6.102   0.725   5.037  0.6886  0.3781 -0.0979
   22MOL   C77922241   5.987   0.658   4.987  0.2228 -0.0742  0.2633
   22MOL   C78022242   5.983   0.637   4.849 -0.6930  0.2895  0.4135
   22MOL   C78122243   6.081   0.691   4.760  0.0155  0.4066 -0.0106
   22MOL   N78222244   6.059   0.672   4.625 -0.6420 -0.4280  0.0141
   22MOL   C78322245   6.130   0.731   4.518  0.0030  0.2973  0.3284
   22MOL   C78422246   6.264   0.726   4.514  0.0701  0.2355 -0.5032
   22MOL   C78522247   6.336   0.799   4.416  0.5669 -0.2768 -0.3156
   22MOL   C78622248   6.265   0.859   4.309 -0.1947 -0.0720 -0.3968
   22MOL   C78722249   6.349   0.903   4.188 -0.1753  0.1534 -0.4987
   22MOL   C78822250   6.124   0.857   4.312  0.3873  0.0241 -0.4368
   22MOL   C78922251   6.060   0.796   4.423  0.1307  0.5151  0.4341
   22MOL   C79022252   6.188   0.773   4.808  0.2830 -0.6814 -0.2807
   22MOL   C79122253   6.191   0.788   4.948  0.5795 -0.1374  0.8068
   22MOL   C79222254   5.929   0.682   5.304 -0.0166  0.3039 -0.0597
   22MOL   C79322255   5.861   0.612   5.404 -0.2033 -0.3484 -0.6233
   22MOL   C79422256   5.738   0.270   5.692  0.0003 -0.2125  0.6509
   22MOL   C79522257   5.670   0.148   5.686 -0.0355 -0.2939 -0.0448
   22MOL   H79622258   5.571   7.893   5.640  1.3197  1.3098  0.7462
   22MOL   H79722259   5.745   0.074   5.355  2.2826 -0.9350 -0.0345
   22MOL   H79822260   5.840   0.288   5.361 -0.7954  0.2834 -1.3177
   22MOL   H79922261   5.873   0.494   5.666  1.7011 -0.0589  0.1632
   22MOL   H80022262   6.114   0.412   5.504 -2.3108  0.0431  1.5501
   22MOL   H80122263   6.232   0.530   5.328 -0.4350 -0.3763 -0.2385
   22MOL   H80222264   6.211   0.779   5.205  0.5536 -0.7077 -2.2343
   22MOL   H80322265   5.916   0.608   5.051  1.8210 -3.9706 -0.8969
   22MOL   H80422266   5.898   0.584   4.808 -2.1187  3.0393 -0.3242
   22MOL   H80522267   5.965   0.662   4.590  0.0542  0.3615 -2.1981
   22MOL   H80622268   6.323   0.673   4.587  0.1702  0.9554 -0.0574
   22MOL   H80722269   6.443   0.786   4.419  0.8659  2.3234  1.5122
   22MOL   H80822270   6.381   0.811   4.140  3.4252  1.2487 -0.3705
   22MOL   H80922271   6.439   0.947   4.231  0.7933 -3.0605  0.8827
   22MOL   H81022272   6.064   0.904   4.235 -2.4109  0.1221  1.7315
   22MOL   H81122273   5.952   0.798   4.432  0.2394 -0.1264  1.9368
   22MOL   H81222274   6.249   0.835   4.744 -1.0014 -0.4008 -1.2542
   22MOL   H81322275   6.273   0.844   4.990  1.1577 -0.4854  0.1486
   22MOL   H81422276   5.881   0.761   5.249  0.8771  1.5005  0.8344
   22MOL   H81522277   5.754   0.614   5.422 -0.0827 -1.3681  0.3128
   22MOL   H81622278   5.734   0.328   5.782  1.2481 -0.1194  0.6563
   22MOL   H81722279   5.622   0.113   5.776 -1.1220 -0.5094 -0.7090
   22MOL   N81822280   6.282   0.966   4.076  0.3782 -0.2860 -0.1880
   22MOL   C81922281   6.244   1.098   4.087 -1.0482 -0.0261  0.4258
   22MOL   C82022282   6.317   1.196   4.159 -0.4811  0.4509  0.0153
   22MOL   C82122283   6.255   1.325   4.173 -0.1436 -0.3054 -0.0677
   22MOL   C82222284   6.132   1.356   4.116 -0.0350 -0.5483 -0.0382
   22MOL   N82322285   6.069   1.478   4.133 -0.4621 -0.3490 -1.0760
   22MOL   C82422286   5.932   1.499   4.168 -0.5316 -0.6528  0.8031
   22MOL   C82522287   5.861   1.394   4.219 -0.1836  0.3989 -0.0865
   22MOL   C82622288   5.734   1.423   4.273  0.2397  0.6360  0.9981
   22MOL   C82722289   5.669   1.544   4.263 -0.3892  0.0248  0.2491
   22MOL   N82822290   5.540   1.569   4.319 -0.0481 -0.3461 -0.3943
   22MOL   C82922291   5.522   1.617   4.447 -0.3415  0.3825 -0.2101
   22MOL   C83022292   5.389   1.650   4.482 -1.2336 -0.5797 -0.7446
   22MOL   C83122293   5.363   1.688   4.616 -0.0175  0.3852 -0.6816
   22MOL   C83222294   5.466   1.680   4.709  0.4174 -0.4103  0.0485
   22MOL   N83322295   5.443   1.718   4.841 -0.2668 -0.3644 -0.0249
   22MOL   C83422296   5.330   1.776   4.903 -0.0268 -0.2269  0.0126
   22MOL   C83522297   5.278   1.901   4.861  0.5247 -0.2443  0.7010
   22MOL   C83622298   5.171   1.959   4.938 -0.6470  0.9299 -0.3344
   22MOL   C83722299   5.114   1.895   5.053  0.0090 -0.9761  0.4199
   22MOL   C83822300   5.000   1.955   5.128  0.0861  0.4793 -0.2942
   22MOL   C83922301   5.170   1.777   5.090 -0.4497  0.2303 -0.0435
   22MOL   C84022302   5.279   1.715   5.024 -0.6595 -0.3924 -0.0969
   22MOL   C84122303   5.598   1.641   4.677 -0.1846 -0.0857 -0.4106
   22MOL   C84222304   5.623   1.610   4.543 -0.4528 -0.0498 -0.2500
   22MOL   C84322305   5.741   1.650   4.206 -0.5880  0.1586  0.3553
   22MOL   C84422306   5.875   1.633   4.166  0.6011 -0.1825  0.0494
   22MOL   C84522307   6.072   1.254   4.038  0.2068 -0.2652 -0.8666
   22MOL   C84622308   6.126   1.130   4.012  0.0791 -0.2026 -0.4048
   22MOL   H84722309   6.211   0.905   4.038 -0.4962  0.4646  0.2378
   22MOL   H84822310   6.406   1.172   4.216 -0.9343 -0.5555  0.3132
   22MOL   H84922311   6.311   1.397   4.231 -1.8201  0.7977  0.2347
   22MOL   H85022312   6.122   1.561   4.109  0.0248 -0.1737  0.5651
   22MOL   H85122313   5.907   1.297   4.230  2.8486  1.5112 -2.2984
   22MOL   H85222314   5.680   1.342   4.319  1.7199  0.7700  3.0306
   22MOL   H85322315   5.465   1.510   4.286  1.0779 -0.8269 -2.1688
   22MOL   H85422316   5.304   1.652   4.415 -1.5142 -0.8252 -0.3994
   22MOL   H85522317   5.261   1.707   4.643  0.2366  2.4194 -1.0467
   22MOL   H85622318   5.514   1.685   4.905 -1.3741 -0.1700  1.3378
   22MOL   H85722319   5.321   1.965   4.784  2.3017 -2.5013 -0.2407
   22MOL   H85822320   5.137   2.058   4.914 -1.7155  0.4246 -0.9566
   22MOL   H85922321   4.909   1.897   5.112  0.0017  0.9764 -1.7081
   22MOL   H86022322   4.993   2.047   5.069 -2.0040 -0.3531 -1.4041
   22MOL   H86122323   5.134   1.725   5.178 -0.0445 -0.9122 -0.5423
   22MOL   H86222324   5.325   1.625   5.062  1.4612 -0.0859 -1.8137
   22MOL   H86322325   5.673   1.643   4.756  1.3200  2.3419 -1.8372
   22MOL   H86422326   5.725   1.588   4.516  1.1693  1.0831  4.4576
   22MOL   H86522327   5.707   1.752   4.201 -0.3442  0.2468  0.4858
   22MOL   H86622328   5.920   1.722   4.126  1.4727 -0.1650  1.0534
   22MOL   H86722329   5.982   1.271   3.981 -0.9401 -0.0679  0.9736
   22MOL   H86822330   6.076   1.059   3.948  1.3600 -0.9345 -0.6042
   22MOL   N86922331   5.026   1.968   5.275  0.0141  0.6588  0.3697
   22MOL   C87022332   4.933   2.030   5.355 -0.8636 -0.7127 -0.6280
   22MOL   C87122333   4.799   2.045   5.310 -0.7200  0.6455 -0.1211
   22MOL   C87222334   4.708   2.109   5.395  0.0834 -0.9452 -0.7532
   22MOL   C87322335   4.747   2.165   5.522 -0.0744 -0.5631  0.8074
   22MOL   N87422336   4.646   2.220   5.611 -0.6644  0.4034 -0.2804
   22MOL   C87522337   4.661   2.345   5.672  1.5000 -0.1108 -0.0659
   22MOL   C87622338   4.754   2.446   5.628 -0.9549  0.4155 -0.1859
   22MOL   C87722339   4.764   2.571   5.702  0.2621  0.0146  0.0448
   22MOL   C87822340   4.681   2.588   5.818  0.0461 -0.0290 -0.5119
   22MOL   N87922341   4.697   2.697   5.901 -0.3681 -0.3026 -0.0512
   22MOL   C88022342   4.804   2.789   5.892 -0.0029  0.5710  0.2838
   22MOL   C88122343   4.805   2.886   5.791  0.5188  0.6334 -0.5372
   22MOL   C88222344   4.908   2.977   5.790  0.5030  0.5137  0.4080
   22MOL   C88322345   5.020   2.963   5.875  0.1864 -0.6042  1.0249
   22MOL   N88422346   5.122   3.056   5.872 -0.0485 -0.2012 -0.5907
   22MOL   C88522347   5.192   3.109   5.767 -0.0012  0.0292  0.0564
   22MOL   C88622348   5.189   3.062   5.634 -0.3329  0.4790 -0.2565
   22MOL   C88722349   5.267   3.118   5.524  0.1973  0.5056 -0.1471
   22MOL   C88822350   5.342   3.229   5.551  0.2471 -0.0344 -0.1390
   22MOL   C88922351   5.423   3.286   5.434  0.0460  0.2561  0.0581
   22MOL   C89022352   5.338   3.282   5.681  0.2266  0.4715  0.7681
   22MOL   C89122353   5.264   3.227   5.785  0.2309  0.8166 -0.6843
   22MOL   C89222354   5.016   2.869   5.973  0.0162 -0.1780  0.9107
   22MOL   C89322355   4.911   2.775   5.980  0.2221 -0.2658 -0.1022
   22MOL   C89422356   4.586   2.494   5.854  0.0674  0.5766 -0.9426
   22MOL   C89522357   4.577   2.372   5.784  0.4287 -0.3325 -1.1424
   22MOL   C89622358   4.879   2.151   5.567  0.2029 -0.1438 -0.0565
   22MOL   C89722359   4.967   2.079   5.481 -0.2265 -0.9096  1.3225
   22MOL   H89822360   5.125   1.981   5.292  0.0743 -2.2968  2.5066
   22MOL   H89922361   4.758   1.995   5.223 -0.9279  0.0627  0.3039
   22MOL   H90022362   4.604   2.101   5.367 -0.1338 -0.4452 -0.0995
   22MOL   H90122363   4.552   2.185   5.601 -0.3170 -0.4802 -0.4336
   22MOL   H90222364   4.794   2.414   5.533  1.0313 -1.6127  1.2965
   22MOL   H90322365   4.841   2.642   5.677  2.0549 -1.4223  1.3344
   22MOL   H90422366   4.648   2.695   5.990  0.9901  0.9624  0.7387
   22MOL   H90522367   4.721   2.908   5.727 -0.3391  0.0636  0.3720
   22MOL   H90622368   4.912   3.064   5.726  1.8894 -0.8046 -1.3470
   22MOL   H90722369   5.136   3.101   5.961 -0.8444  0.9508 -1.0300
   22MOL   H90822370   5.126   2.977   5.614  0.3316  0.1843 -1.1006
   22MOL   H90922371   5.266   3.090   5.419 -0.4414  0.2962 -0.0873
   22MOL   H91022372   5.494   3.224   5.380 -2.1982 -1.4176 -1.0604
   22MOL   H91122373   5.484   3.360   5.486 -1.0525  1.2076  0.0093
   22MOL   H91222374   5.397   3.367   5.711  0.8847 -0.0374  0.9364
   22MOL   H91322375   5.279   3.253   5.889 -0.7737 -0.7122 -0.1453
   22MOL   H91422376   5.088   2.850   6.053 -0.4814 -2.1327  0.9355
   22MOL   H91522377   4.912   2.698   6.055  0.4702 -1.8106 -1.6632
   22MOL   H91622378   4.532   2.516   5.945  2.7739  1.0642  0.5776
   22MOL   H91722379   4.514   2.298   5.832  0.5284  1.1630  1.3479
   22MOL   H91822380   4.906   2.199   5.660  0.8833 -0.3779 -0.1290
   22MOL   H91922381   5.070   2.067   5.510  0.8877 -2.4916 -2.9161
   22MOL   N92022382   5.340   3.355   5.337 -0.2765  0.2267  0.1466
   22MOL   C92122383   5.372   3.464   5.259 -0.2496  0.2762  0.4414
   22MOL   C92222384   5.507   3.509   5.249  0.9898  0.7412 -0.4935
   22MOL   C92322385   5.531   3.618   5.164 -0.2384  0.3097  1.0425
   22MOL   C92422386   5.429   3.682   5.090  0.2243  0.4848 -0.7020
   22MOL   N92522387   5.455   3.794   5.013 -0.4296 -0.0251  0.4517
   22MOL   C92622388   5.573   3.866   5.006 -1.0221 -0.0134 -0.1832
   22MOL   C92722389   5.638   3.913   5.122  0.5128  0.5389  0.1773
   22MOL   C92822390   5.754   3.982   5.116  0.4345  0.0632 -0.2318
   22MOL   C92922391   5.820   3.998   4.994  0.6254  1.3749  0.3441
   22MOL   N93022392   5.940   4.064   4.993  0.0239 -0.1017  0.1909
   22MOL   C93122393   6.058   4.025   4.938  0.8170 -0.0075 -0.1756
   22MOL   C93222394   6.072   3.894   4.890  0.5101 -0.0926  0.6710
   22MOL   C93322395   6.197   3.850   4.836 -0.0551 -0.6500  0.0900
   22MOL   C93422396   6.307   3.941   4.832 -0.3313 -0.3230  0.4596
   22MOL   N93522397   6.434   3.898   4.786 -0.6022  0.4043  0.0857
   22MOL   C93622398   6.478   3.766   4.765  0.1314  0.0272 -0.3768
   22MOL   C93722399   6.556   3.731   4.653 -0.6779  0.1384  0.4845
   22MOL   C93822400   6.600   3.597   4.643 -0.1215 -0.0967 -0.0993
   22MOL   C93922401   6.571   3.500   4.743  0.2414  0.3864  0.7963
   22MOL   C94022402   6.638   3.361   4.746 -0.5647  0.6600  0.2300
   22MOL   C94122403   6.488   3.532   4.854  0.5507 -0.2270  0.3852
   22MOL   C94222404   6.441   3.666   4.859 -0.1613  0.5563  0.1745
   22MOL   C94322405   6.290   4.078   4.867  0.2994  0.1047  0.0747
   22MOL   C94422406   6.167   4.118   4.928  0.3070  0.0289  0.4408
   22MOL   C94522407   5.759   3.951   4.874  0.2777 -0.1517 -0.2296
   22MOL   C94622408   5.630   3.898   4.883  0.0046  0.2883  0.1203
   22MOL   C94722409   5.304   3.628   5.103  0.0790  0.2494  0.1257
   22MOL   C94822410   5.272   3.519   5.180 -0.4626  0.1645  1.0094
   22MOL   H94922411   5.250   3.309   5.330  1.2835 -2.7002 -1.9666
   22MOL   H95022412   5.585   3.447   5.289  1.8991  1.4933 -1.0797
   22MOL   H95122413   5.634   3.644   5.146 -0.2680  1.4482  2.4146
   22MOL   H95222414   5.368   3.829   4.976 -0.2253 -0.2844 -0.2788
   22MOL   H95322415   5.595   3.894   5.220  1.0082 -0.4725  0.2062
   22MOL   H95422416   5.803   4.016   5.206  0.0942  2.3577 -0.8805
   22MOL   H95522417   5.955   4.155   5.035  0.9262  0.4349 -1.2516
   22MOL   H95622418   5.990   3.824   4.896 -0.1034  0.6681  1.2262
   22MOL   H95722419   6.205   3.746   4.810  1.7259 -0.7430  0.9231
   22MOL   H95822420   6.510   3.959   4.761 -1.4114  0.8289 -1.4419
   22MOL   H95922421   6.587   3.803   4.579 -1.0035 -0.4524 -0.2345
   22MOL   H96022422   6.670   3.568   4.565  0.4433 -0.3646  0.5031
   22MOL   H96122423   6.589   3.301   4.669  0.5450 -0.5092  0.4233
   22MOL   H96222424   6.616   3.300   4.834 -0.3087  1.2278  0.6932
   22MOL   H96322425   6.467   3.462   4.932 -2.5012  0.9757  0.7247
   22MOL   H96422426   6.381   3.697   4.943 -0.3733  3.7911 -1.0895
   22MOL   H96522427   6.370   4.148   4.844 -0.4869  0.7799 -0.6159
   22MOL   H96622428   6.143   4.219   4.960  0.4907  0.3410 -0.4059
   22MOL   H96722429   5.787   3.983   4.774  0.2200  0.7808  0.0522
   22MOL   H96822430   5.580   3.870   4.791 -1.0207 -0.3505  0.8678
   22MOL   H96922431   5.227   3.672   5.042 -2.1217 -0.9427  1.9951
   22MOL   H97022432   5.168   3.491   5.189 -0.2366 -1.2867 -0.6514
   22MOL   N97122433   6.785   3.382   4.728  0.2785 -0.4902  0.0510
   22MOL   C97222434   6.849   3.358   4.606 -0.7081 -0.2830  0.6169
   22MOL   C97322435   6.793   3.281   4.504  0.2590 -0.1188  0.5160
   22MOL   C97422436   6.864   3.262   4.380 -0.0902  0.1788 -0.3300
   22MOL   C97522437   6.995   3.310   4.367 -0.1844 -0.5924  0.4974
   22MOL   N97622438   7.077   3.295   4.253 -0.3540 -0.4481 -0.2336
   22MOL   C97722439   7.046   3.232   4.133 -0.0627 -0.1814 -0.0808
   22MOL   C97822440   7.137   3.143   4.073  0.3588 -0.0726 -0.0802
   22MOL   C97922441   7.091   3.069   3.960 -0.3682  0.3884  0.1126
   22MOL   C98022442   6.961   3.087   3.907  0.1998 -0.1024  0.0518
   22MOL   N98122443   6.911   3.027   3.794  0.1460 -0.1212  0.8869
   22MOL   C98222444   6.940   2.895   3.750  0.7325 -0.0738  0.5235
   22MOL   C98322445   6.927   2.884   3.609  0.3160 -0.0207 -0.5746
   22MOL   C98422446   6.938   2.755   3.549  0.0186 -0.4486  0.6136
   22MOL   C98522447   6.976   2.645   3.629 -0.4222 -0.0130 -0.2176
   22MOL   N98622448   7.010   2.521   3.569  0.0889 -0.0184  0.9321
   22MOL   C98722449   6.996   2.484   3.436 -0.7036  0.2057 -0.4182
   22MOL   C98822450   6.876   2.511   3.373 -0.3595 -0.2874  0.2630
   22MOL   C98922451   6.865   2.490   3.229  0.6148 -0.0913  0.0522
   22MOL   C99022452   6.966   2.427   3.159 -0.3593 -0.1335  1.0093
   22MOL   C99122453   6.943   2.404   3.009  0.2222 -0.3488  0.1513
   22MOL   C99222454   7.081   2.391   3.232 -0.3570 -0.4651 -0.1952
   22MOL   C99322455   7.092   2.419   3.371  0.6587  0.1323  0.4951
   22MOL   C99422456   6.994   2.658   3.766  0.3251  0.2796  0.8744
   22MOL   C99522457   6.971   2.783   3.829 -0.4908  0.0016  0.3225
   22MOL   C99622458   6.882   3.186   3.962  0.2927 -0.4127 -0.2891
   22MOL   C99722459   6.925   3.263   4.066  0.0227 -1.0318 -0.3148
   22MOL   C99822460   7.051   3.384   4.474 -0.5268  0.2885  0.3384
   22MOL   C99922461   6.979   3.410   4.590  0.2725  0.1960  0.6470
   22MOL     H122462   6.845   3.435   4.790  1.2709 -0.4519 -0.9082
   22MOL     H222463   6.697   3.233   4.506  1.0532 -1.7572  0.4732
   22MOL     H322464   6.829   3.199   4.300  0.7671 -1.7610  0.7695
   22MOL     H422465   7.173   3.275   4.278 -0.3126 -1.1066 -0.8776
   22MOL     H522466   7.237   3.125   4.112  0.5902  3.4776  1.1436
   22MOL     H622467   7.157   2.999   3.910 -1.2768  0.6494 -1.5018
   22MOL     H722468   6.837   3.077   3.747  2.4803  2.0760 -0.5941
   22MOL     H822469   6.912   2.969   3.544  0.2160  0.1769 -0.2942
   22MOL     H922470   6.936   2.755   3.441  1.4951 -0.8318  0.5762
   22MOL    H1022471   7.052   2.450   3.627  2.5296  1.3784  0.9344
   22MOL    H1122472   6.795   2.548   3.434 -0.2487  0.2493  0.0897
   22MOL    H1222473   6.767   2.503   3.185 -0.8884 -0.4607  3.1150
   22MOL    H1322474   6.910   2.492   2.954  0.2055 -0.4329  0.0242
   22MOL    H1422475   6.868   2.325   2.994  1.9441 -2.4873  2.3557
   22MOL    H1522476   7.162   2.336   3.186  0.1215 -0.0732  0.1755
   22MOL    H1622477   7.184   2.389   3.419 -0.6236 -1.5121  1.9553
   22MOL    H1722478   7.011   2.574   3.831 -0.3934 -0.5942 -0.0577
   22MOL    H1822479   6.974   2.801   3.936  0.6429  0.5761  0.2137
   22MOL    H1922480   6.779   3.197   3.930 -0.1888 -0.7401  1.1376
   22MOL    H2022481   6.860   3.340   4.104  2.1543 -0.3508  2.1402
   22MOL    H2122482   7.154   3.413   4.458 -0.4626  0.1579  0.5222
   22MOL    H2222483   7.028   3.467   4.667 -0.7005 -0.0768  1.4720
   22MOL    H2322484   7.042   2.370   2.976  0.4001 -0.2889  0.6293
   23MOL     N122485   4.064   0.205   4.232 -0.3405  0.4863  0.7591
   23MOL     C222486   3.931   0.227   4.226  0.4469 -0.3711  0.5680
   23MOL     C322487   3.856   0.290   4.329  0.4002  0.4649 -0.1042
   23MOL     C422488   3.713   0.289   4.322  0.4445  0.1399  0.1514
   23MOL     C522489   3.647   0.238   4.208  0.0765 -0.4409 -0.2866
   23MOL     N622490   3.505   0.242   4.200  0.1947  0.1966  0.5691
   23MOL     C722491   3.417   0.266   4.308  0.0941  0.0233  0.2511
   23MOL     C822492   3.434   0.211   4.436 -0.0504  0.0814 -0.5765
   23MOL     C922493   3.355   0.258   4.542  0.1538 -0.0635  0.1830
   23MOL    C1022494   3.257   0.351   4.521 -0.3028 -0.2340  0.6725
   23MOL    N1122495   3.186   0.397   4.629 -0.1136 -0.7096  0.1187
   23MOL    C1222496   3.210   0.380   4.767 -0.1075 -0.1455  0.2955
   23MOL    C1322497   3.342   0.376   4.826 -0.7615 -0.0992 -0.7911
   23MOL    C1422498   3.364   0.380   4.969  0.5703  0.0528  0.3192
   23MOL    C1522499   3.254   0.382   5.055  0.1403  0.1247  0.1683
   23MOL    N1622500   3.271   0.385   5.197 -0.1123  0.8717 -0.6385
   23MOL    C1722501   3.319   0.493   5.273  0.0316  0.1806 -0.0824
   23MOL    C1822502   3.388   0.477   5.397  0.6500 -0.6468  0.1903
   23MOL    C1922503   3.450   0.586   5.460  0.3564 -0.9571  0.1174
   23MOL    C2022504   3.437   0.711   5.405 -0.1168 -0.5501 -0.4945
   23MOL    C2122505   3.488   0.838   5.462 -0.0399  0.1162 -0.1703
   23MOL    C2222506   3.361   0.731   5.289 -0.1928  0.0444  1.4037
   23MOL    C2322507   3.305   0.622   5.218 -0.0866 -0.3985 -0.2214
   23MOL    C2422508   3.127   0.381   4.993  0.3051  0.3810  0.4436
   23MOL    C2522509   3.102   0.389   4.859 -0.3964  0.0955 -0.4549
   23MOL    C2622510   3.233   0.405   4.390 -0.3187 -0.3252  0.3641
   23MOL    C2722511   3.318   0.368   4.286 -0.2141  0.2858  0.1966
   23MOL    C2822512   3.723   0.189   4.101 -0.3714 -0.0561 -0.0831
   23MOL    C2922513   3.860   0.194   4.109 -0.8842  0.1323 -0.0949
   23MOL    H3022514   4.109   0.170   4.149  1.7127 -0.4803  2.2300
   23MOL    H3122515   3.899   0.339   4.415  0.4253  1.3336 -0.6025
   23MOL    H3222516   3.656   0.347   4.393  0.0961  0.4535 -0.3739
   23MOL    H3322517   3.470   0.238   4.106  0.1672 -1.1530  0.6341
   23MOL    H3422518   3.502   0.127   4.445  1.3154  1.2950  0.6244
   23MOL    H3522519   3.356   0.200   4.634 -0.9003  1.0521  0.9108
   23MOL    H3622520   3.090   0.424   4.611  0.1023  0.2230  0.3577
   23MOL    H3722521   3.435   0.381   4.771  1.2377 -1.6848  2.3306
   23MOL    H3822522   3.467   0.375   4.999  1.0553  3.0757 -0.6176
   23MOL    H3922523   3.209   0.326   5.251  1.4676  0.4891  0.8279
   23MOL    H4022524   3.389   0.378   5.440  1.9434 -0.4378  0.6505
   23MOL    H4122525   3.512   0.577   5.548 -0.5321 -0.9755  0.7517
   23MOL    H4222526   3.407   0.909   5.479 -0.0519 -0.3285  1.7001
   23MOL    H4322527   3.568   0.881   5.401 -0.5627  2.3156  0.6357
   23MOL    H4422528   3.363   0.833   5.253  1.4580 -0.2725  0.5712
   23MOL    H4522529   3.248   0.639   5.128  2.3127 -0.3384 -1.7801
   23MOL    H4622530   3.037   0.379   5.053  0.1245 -0.0141  0.1627
   23MOL    H4722531   2.997   0.391   4.834 -0.5262 -3.7619 -0.4710
   23MOL    H4822532   3.155   0.475   4.367 -1.1901 -1.6808 -0.9644
   23MOL    H4922533   3.300   0.423   4.195  0.5025  0.2869  0.0531
   23MOL    H5022534   3.680   0.134   4.018  1.6695 -1.5164 -0.2242
   23MOL    H5122535   3.914   0.154   4.024  1.2278  0.0021  1.2847
   23MOL    H5222536   4.118   0.244   4.309  0.4855  0.7761  0.0378
   23MOL    N5322537   3.541   0.819   5.596 -0.4464 -0.0628  0.3461
   23MOL    C5422538   3.587   0.933   5.669 -0.0559 -0.3459 -0.2802
   23MOL    C5522539   3.629   1.054   5.602 -0.2109  0.2554  0.5755
   23MOL    C5622540   3.691   1.158   5.673 -0.1886  0.5850 -0.6705
   23MOL    C5722541   3.681   1.156   5.814  0.1265 -0.5674  0.0389
   23MOL    N5822542   3.727   1.269   5.892 -0.6056  0.0580  0.1629
   23MOL    C5922543   3.814   1.368   5.849  0.3070  0.2707  0.4908
   23MOL    C6022544   3.953   1.338   5.848 -0.0562  0.7040 -0.5022
   23MOL    C6122545   4.044   1.431   5.804  0.0288 -0.2447 -0.2654
   23MOL    C6222546   4.008   1.562   5.778  0.6732  0.6717 -0.4836
   23MOL    N6322547   4.101   1.657   5.730 -0.4393 -0.4087  0.0080
   23MOL    C6422548   4.234   1.644   5.689  0.2468 -0.2356  0.5375
   23MOL    C6522549   4.274   1.560   5.589  0.6198 -0.1026 -0.8254
   23MOL    C6622550   4.409   1.572   5.547 -0.4187  0.4397 -0.1662
   23MOL    C6722551   4.506   1.643   5.617 -0.1831 -0.0355  0.4124
   23MOL    N6822552   4.642   1.649   5.580 -0.4965  0.5557  0.4095
   23MOL    C6922553   4.714   1.580   5.486 -0.3200  0.1527  0.3859
   23MOL    C7022554   4.799   1.653   5.398  0.0961 -0.3535 -0.7448
   23MOL    C7122555   4.877   1.590   5.303  0.4203  0.1077  0.0234
   23MOL    C7222556   4.862   1.451   5.283  0.3665 -0.5157 -0.1039
   23MOL    C7322557   4.943   1.374   5.178 -0.6920  0.1379 -0.4567
   23MOL    C7422558   4.773   1.375   5.360 -0.2837  0.4517 -0.2327
   23MOL    C7522559   4.706   1.439   5.464 -0.5734 -0.3185 -0.0020
   23MOL    C7622560   4.464   1.721   5.724 -0.0258  0.2375  0.2770
   23MOL    C7722561   4.324   1.724   5.756  0.4951 -0.7292 -0.2551
   23MOL    C7822562   3.873   1.599   5.790  0.3484  0.2788  0.4795
   23MOL    C7922563   3.772   1.503   5.823  0.2227  0.2099 -0.1915
   23MOL    C8022564   3.632   1.043   5.884  0.5857  0.7298  0.5431
   23MOL    C8122565   3.596   0.927   5.808 -0.2736  0.4513 -0.2439
   23MOL    H8222566   3.531   0.725   5.633 -0.9690 -1.3282 -2.7795
   23MOL    H8322567   3.601   1.067   5.498  1.4248  1.7008  0.3044
   23MOL    H8422568   3.715   1.250   5.622 -2.9981  1.7089 -0.0603
   23MOL    H8522569   3.689   1.282   5.984 -0.6928  0.2795  0.0954
   23MOL    H8622570   3.985   1.238   5.874  0.3598  0.7234 -0.9473
   23MOL    H8722571   4.145   1.398   5.782  0.8561 -0.2819  3.2803
   23MOL    H8822572   4.080   1.753   5.753  0.1381 -0.0121 -1.1186
   23MOL    H8922573   4.206   1.506   5.524 -0.9346  0.0618  0.6458
   23MOL    H9022574   4.447   1.516   5.463 -1.8640  0.4847 -0.8668
   23MOL    H9122575   4.684   1.733   5.616 -0.4576  1.1163 -0.9566
   23MOL    H9222576   4.791   1.760   5.409  1.4461 -0.4042  1.0353
   23MOL    H9322577   4.946   1.644   5.241  0.3813 -0.1551 -0.2496
   23MOL    H9422578   4.921   1.428   5.086  2.6170  0.5614 -1.0530
   23MOL    H9522579   4.899   1.275   5.172 -3.0851  1.1621 -0.5196
   23MOL    H9622580   4.764   1.267   5.357  0.1669  0.3760  0.9032
   23MOL    H9722581   4.649   1.377   5.532 -1.4141 -0.3467 -0.7183
   23MOL    H9822582   4.524   1.779   5.793  0.2941 -0.4370  0.5697
   23MOL    H9922583   4.282   1.792   5.829 -0.7382 -0.8718 -0.8194
   23MOL   H10022584   3.844   1.700   5.765  0.4561 -0.1543 -1.4933
   23MOL   H10122585   3.668   1.532   5.824 -0.1688 -1.1015 -1.3166
   23MOL   H10222586   3.628   1.037   5.992  0.8539  2.5149  0.6661
   23MOL   H10322587   3.550   0.840   5.853  0.6037  0.2203  0.2225
   23MOL   N10422588   5.082   1.366   5.215  0.8381  0.8195 -0.3483
   23MOL   C10522589   5.141   1.265   5.286  0.5339 -0.7229 -0.4461
   23MOL   C10622590   5.273   1.281   5.328 -0.3131 -0.4792  0.3221
   23MOL   C10722591   5.342   1.177   5.392  0.1898  0.2035 -0.2049
   23MOL   C10822592   5.273   1.052   5.413  0.1050 -0.3255  0.2435
   23MOL   N10922593   5.338   0.945   5.467  0.2170  0.2157 -0.1653
   23MOL   C11022594   5.461   0.947   5.537  0.8170 -0.9736 -0.0513
   23MOL   C11122595   5.482   1.054   5.637  0.6471  0.5738  0.0250
   23MOL   C11222596   5.610   1.067   5.690 -0.3897 -0.2817 -0.6675
   23MOL   C11322597   5.713   0.970   5.669  0.7579 -0.4000  0.8686
   23MOL   N11422598   5.828   0.985   5.748 -0.7795 -0.5982  0.1556
   23MOL   C11522599   5.961   0.967   5.702  0.1843 -0.0602  0.2498
   23MOL   C11622600   5.991   0.948   5.566  0.3763  0.1846 -0.2767
   23MOL   C11722601   6.121   0.911   5.516  0.3072 -0.1778  0.0707
   23MOL   C11822602   6.226   0.922   5.609 -0.2121  0.1171 -1.3160
   23MOL   N11922603   6.363   0.906   5.588  0.9699 -0.7293  0.4102
   23MOL   C12022604   6.418   0.919   5.462 -0.1594  0.5304 -0.0820
   23MOL   C12122605   6.386   0.820   5.363 -0.4859  0.3658 -0.0126
   23MOL   C12222606   6.440   0.827   5.232 -0.4061 -0.7239  0.6861
   23MOL   C12322607   6.523   0.937   5.201 -0.2877 -0.9566 -0.1052
   23MOL   C12422608   6.591   0.938   5.062  0.1078  0.0042 -0.2520
   23MOL   C12522609   6.552   1.036   5.294 -0.8821 -0.0978 -0.4200
   23MOL   C12622610   6.496   1.029   5.421  0.7829 -0.0831  0.7618
   23MOL   C12722611   6.195   0.959   5.737 -0.1187 -0.1855  0.1310
   23MOL   C12822612   6.064   0.975   5.787 -0.0536  0.7602 -0.3208
   23MOL   C12922613   5.685   0.863   5.581 -0.6388  1.0277  1.0386
   23MOL   C13022614   5.566   0.859   5.506  0.0187  0.4278  0.5355
   23MOL   C13122615   5.137   1.039   5.382 -0.0308 -0.8999  0.1831
   23MOL   C13222616   5.072   1.144   5.316  0.4450  0.2625 -0.5759
   23MOL   H13322617   5.144   1.446   5.212 -1.0972  2.3385 -2.2721
   23MOL   H13422618   5.317   1.379   5.318  1.3820 -1.3160 -0.4700
   23MOL   H13522619   5.449   1.180   5.408  0.5251 -2.0888 -1.8676
   23MOL   H13622620   5.320   0.861   5.414 -1.7615  1.0965 -0.9141
   23MOL   H13722621   5.410   1.133   5.654 -0.2053 -0.3460  0.8026
   23MOL   H13822622   5.626   1.157   5.748 -3.5312 -0.1419  0.0685
   23MOL   H13922623   5.817   1.046   5.827  3.8454 -0.1639  0.6241
   23MOL   H14022624   5.906   0.940   5.499  0.1720 -0.6233  0.0763
   23MOL   H14122625   6.143   0.894   5.412  0.4141  1.2298 -0.1497
   23MOL   H14222626   6.418   0.941   5.665  0.2424 -0.4006  0.7802
   23MOL   H14322627   6.319   0.741   5.392 -2.2295  1.4206 -1.0467
   23MOL   H14422628   6.418   0.752   5.157 -0.3939  0.1750 -0.2389
   23MOL   H14522629   6.652   0.851   5.038  0.3487 -0.4036  1.7744
   23MOL   H14622630   6.669   1.014   5.055  0.7026 -0.7486 -2.1288
   23MOL   H14722631   6.614   1.117   5.258  0.4154 -0.7676  0.2957
   23MOL   H14822632   6.507   1.112   5.490 -0.7240  1.6977 -1.0896
   23MOL   H14922633   6.283   0.972   5.797  0.6809 -0.9756 -0.8505
   23MOL   H15022634   6.037   0.989   5.891  0.6705 -1.6114  0.2099
   23MOL   H15122635   5.763   0.789   5.572 -0.6450  1.2583 -1.1346
   23MOL   H15222636   5.554   0.785   5.429 -2.0778  1.4856 -0.1950
   23MOL   H15322637   5.088   0.947   5.409 -0.1183  0.0653  3.5987
   23MOL   H15422638   4.966   1.133   5.298  0.3103  0.4070  0.1090
   23MOL   N15522639   6.501   0.959   4.954 -0.4269  0.2718 -0.6623
   23MOL   C15622640   6.551   0.991   4.828  0.1441 -0.0803 -0.2235
   23MOL   C15722641   6.681   0.982   4.787  0.7871  0.5571  0.2953
   23MOL   C15822642   6.719   1.021   4.657 -0.7477  0.2083 -0.0728
   23MOL   C15922643   6.633   1.075   4.563  0.2517 -0.1599  0.3413
   23MOL   N16022644   6.687   1.109   4.440 -0.1760  0.6490 -0.2584
   23MOL   C16122645   6.659   1.220   4.360 -0.4225 -0.3688 -0.3889
   23MOL   C16222646   6.589   1.332   4.406 -0.7065  0.4675  0.2410
   23MOL   C16322647   6.562   1.445   4.322  0.2606  0.1264  1.4332
   23MOL   C16422648   6.613   1.443   4.186 -0.3216 -0.6469 -0.3119
   23MOL   N16522649   6.586   1.551   4.102  0.0767 -0.5037  0.2766
   23MOL   C16622650   6.633   1.584   3.969 -0.4948  0.0682  0.8274
   23MOL   C16722651   6.544   1.602   3.859  0.3941  0.5096  0.2782
   23MOL   C16822652   6.586   1.609   3.723  0.2174  0.1359 -0.0332
   23MOL   C16922653   6.730   1.596   3.702 -0.5206  0.8239  0.3946
   23MOL   N17022654   6.786   1.592   3.568  0.4557 -0.5263  0.6721
   23MOL   C17122655   6.722   1.572   3.446 -0.2916  0.4087  0.4862
   23MOL   C17222656   6.655   1.452   3.418  0.4185 -1.0774 -0.1274
   23MOL   C17322657   6.577   1.447   3.297  0.4868 -0.1500  0.6030
   23MOL   C17422658   6.577   1.549   3.202 -0.1250  0.4788  0.6759
   23MOL   C17522659   6.484   1.541   3.083 -0.4097 -0.5792  0.6971
   23MOL   C17622660   6.658   1.662   3.227 -0.3476  0.7769  0.3438
   23MOL   C17722661   6.730   1.674   3.353 -0.6575  0.0054  0.5422
   23MOL   C17822662   6.817   1.590   3.812 -0.3787  0.2430  0.0917
   23MOL   C17922663   6.767   1.579   3.943 -0.2831 -0.8862 -0.9003
   23MOL   C18022664   6.687   1.330   4.141 -0.4188  0.6834 -0.6733
   23MOL   C18122665   6.710   1.226   4.232 -0.1994 -0.0662 -0.4101
   23MOL   C18222666   6.495   1.085   4.601 -0.1483  0.4337  0.5847
   23MOL   C18322667   6.457   1.037   4.732 -0.1360  0.3533 -0.3268
   23MOL   H18422668   6.402   0.966   4.975 -0.4039 -2.4731  0.6259
   23MOL   H18522669   6.767   0.949   4.844  1.5270 -0.9313 -1.6388
   23MOL   H18622670   6.825   1.016   4.637 -0.3191  0.6448  1.9301
   23MOL   H18722671   6.776   1.065   4.421 -0.7474 -0.9628  0.7099
   23MOL   H18822672   6.561   1.346   4.509  2.6451  1.0003  1.1429
   23MOL   H18922673   6.508   1.532   4.357  1.4819  1.2249  0.6186
   23MOL   H19022674   6.514   1.614   4.135  0.3266 -0.8300  1.4581
   23MOL   H19122675   6.438   1.606   3.881 -0.8405 -0.4984 -4.9292
   23MOL   H19222676   6.514   1.623   3.643 -1.1617  1.1515  1.3604
   23MOL   H19322677   6.873   1.639   3.552 -0.1544  0.6001  0.6375
   23MOL   H19422678   6.654   1.365   3.481  0.8751 -0.2594  1.0358
   23MOL   H19522679   6.521   1.358   3.273  0.8948 -0.0714 -0.6709
   23MOL   H19622680   6.404   1.613   3.101 -1.4864 -1.6196  0.1747
   23MOL   H19722681   6.444   1.443   3.057 -1.2308 -0.3007  0.8844
   23MOL   H19822682   6.662   1.748   3.161  0.9472  0.9173  0.5906
   23MOL   H19922683   6.790   1.761   3.377  0.1021  0.5524 -3.0511
   23MOL   H20022684   6.923   1.582   3.792 -0.3769 -0.3047  0.3174
   23MOL   H20122685   6.831   1.571   4.030 -0.3462 -0.1412 -0.7789
   23MOL   H20222686   6.731   1.320   4.043 -0.1970 -0.9140 -0.4199
   23MOL   H20322687   6.781   1.149   4.207 -1.1774 -1.8039  1.9425
   23MOL   H20422688   6.416   1.100   4.530 -1.3145 -1.6489  1.3596
   23MOL   H20522689   6.351   1.036   4.750 -0.3163  1.1790 -1.2378
   23MOL   N20622690   6.544   1.595   2.964  0.4253  0.0286 -0.1122
   23MOL   C20722691   6.471   1.582   2.844 -0.0475 -0.0344  0.8767
   23MOL   C20822692   6.334   1.598   2.835 -0.2763 -0.2931 -0.4420
   23MOL   C20922693   6.266   1.603   2.712 -0.7568  0.3040  0.3578
   23MOL   C21022694   6.339   1.589   2.593 -0.3967  0.0432  0.3151
   23MOL   N21122695   6.279   1.580   2.466  0.2667 -0.1461 -0.5709
   23MOL   C21222696   6.142   1.578   2.441 -0.7234 -0.1786 -0.2726
   23MOL   C21322697   6.064   1.480   2.496  0.0858  0.3678 -0.5777
   23MOL   C21422698   5.925   1.480   2.485  0.4173  0.2348 -0.5001
   23MOL   C21522699   5.860   1.580   2.412 -0.4962  0.4589  0.5695
   23MOL   N21622700   5.725   1.587   2.389  0.1142 -0.3452  0.2314
   23MOL   C21722701   5.671   1.634   2.269 -0.4823  0.0609  0.0941
   23MOL   C21822702   5.535   1.681   2.258 -1.2144  0.6877  0.0244
   23MOL   C21922703   5.478   1.723   2.140 -0.3310 -0.2587 -0.0466
   23MOL   C22022704   5.556   1.731   2.023  0.7682  0.8280 -0.4319
   23MOL   N22122705   5.508   1.785   1.906 -0.1881 -0.0277 -0.2309
   23MOL   C22222706   5.398   1.860   1.886  0.4522  0.0427  0.2349
   23MOL   C22322707   5.296   1.831   1.792  0.2567  0.7509 -0.4370
   23MOL   C22422708   5.184   1.911   1.774  1.2455  0.5798  0.2587
   23MOL   C22522709   5.169   2.026   1.849  0.2001  0.7893  0.1116
   23MOL   C22622710   5.063   2.130   1.811 -0.4589 -0.0747 -0.6408
   23MOL   C22722711   5.264   2.056   1.950 -0.1884 -0.7471 -0.3255
   23MOL   C22822712   5.371   1.974   1.965  0.2616  0.6667  0.2243
   23MOL   C22922713   5.690   1.696   2.030 -0.0032  0.9685 -0.2542
   23MOL   C23022714   5.744   1.631   2.146 -0.3993 -0.4412  0.7349
   23MOL   C23122715   5.946   1.678   2.351 -0.6211 -0.0561  0.3601
   23MOL   C23222716   6.083   1.671   2.358 -0.2171 -0.9138  0.1411
   23MOL   C23322717   6.478   1.586   2.600 -0.2272 -0.5173  0.5454
   23MOL   C23422718   6.544   1.583   2.723 -0.6757 -0.1164 -0.5179
   23MOL   H23522719   6.643   1.574   2.965  0.4412  0.1235  0.4554
   23MOL   H23622720   6.278   1.617   2.925  0.7200 -0.8569  0.3101
   23MOL   H23722721   6.161   1.627   2.706 -1.5239 -2.6774  0.8593
   23MOL   H23822722   6.317   1.656   2.412 -3.5007  1.2093 -1.4530
   23MOL   H23922723   6.110   1.393   2.541  1.9188  0.8383 -1.4880
   23MOL   H24022724   5.868   1.405   2.537 -0.2398  0.4221 -0.9402
   23MOL   H24122725   5.661   1.552   2.459 -1.5417  2.1486  0.0223
   23MOL   H24222726   5.476   1.687   2.348 -1.2444 -2.2060  0.2295
   23MOL   H24322727   5.376   1.756   2.157  0.4757  2.0384  0.6012
   23MOL   H24422728   5.530   1.728   1.826  2.2189  0.6922 -0.1324
   23MOL   H24522729   5.305   1.736   1.740 -1.8038  0.3621 -0.1338
   23MOL   H24622730   5.108   1.885   1.703  1.3359 -1.5437  0.9123
   23MOL   H24722731   5.087   2.186   1.720 -0.4285  2.9921  1.1743
   23MOL   H24822732   5.073   2.204   1.891 -2.0960 -0.3551 -0.1580
   23MOL   H24922733   5.259   2.135   2.023 -2.1178 -1.8619  0.7881
   23MOL   H25022734   5.444   1.992   2.042  0.2866  1.9577 -0.0940
   23MOL   H25122735   5.745   1.693   1.937  2.2202 -0.3764  1.0483
   23MOL   H25222736   5.842   1.586   2.140  0.1145  0.8031 -0.4648
   23MOL   H25322737   5.910   1.755   2.285  0.5550 -0.5593 -0.8848
   23MOL   H25422738   6.138   1.737   2.292 -1.0115 -0.6291 -0.2349
   23MOL   H25522739   6.530   1.582   2.506 -0.8639 -1.1814  0.2110
   23MOL   H25622740   6.652   1.594   2.725 -0.7027  0.0703  2.8543
   23MOL   N25722741   4.939   2.058   1.815 -0.5071 -0.0646 -0.0725
   23MOL   C25822742   4.819   2.123   1.770  0.0321  0.6146  0.2130
   23MOL   C25922743   4.805   2.256   1.741  0.4065 -0.1206  0.2411
   23MOL   C26022744   4.684   2.311   1.699  0.3458 -0.0331 -0.3903
   23MOL   C26122745   4.570   2.226   1.694 -0.7592  0.0417 -0.0013
   23MOL   N26222746   4.445   2.285   1.661  0.0533 -0.8169 -0.7124
   23MOL   C26322747   4.405   2.416   1.635  0.4951 -0.5251 -0.9386
   23MOL   C26422748   4.458   2.536   1.693  0.0015  0.4373 -0.2151
   23MOL   C26522749   4.399   2.664   1.670 -0.5963  0.0132  0.3037
   23MOL   C26622750   4.293   2.677   1.580  0.2026  0.8520  0.7768
   23MOL   N26722751   4.244   2.800   1.546 -0.5761 -0.5826  0.2643
   23MOL   C26822752   4.320   2.900   1.490 -0.3390 -0.2693 -0.7194
   23MOL   C26922753   4.454   2.891   1.443 -0.5192 -0.4926  0.2692
   23MOL   C27022754   4.511   2.989   1.358  0.8419  0.0025  1.1008
   23MOL   C27122755   4.439   3.110   1.331  0.8791 -0.4267  0.0426
   23MOL   N27222756   4.492   3.221   1.257 -0.3892  0.3688  0.1148
   23MOL   C27322757   4.605   3.222   1.177 -0.3124 -0.3073  0.3250
   23MOL   C27422758   4.701   3.320   1.203  0.1243  0.4487  0.4178
   23MOL   C27522759   4.814   3.326   1.118 -0.4662 -0.3819 -0.7507
   23MOL   C27622760   4.843   3.222   1.028  0.1169  0.0200 -0.0116
   23MOL   C27722761   4.969   3.222   0.934  0.6768 -0.0532  0.3487
   23MOL   C27822762   4.745   3.118   1.015 -0.0273 -0.0932  0.1498
   23MOL   C27922763   4.629   3.122   1.086  0.2265  0.0886  0.3525
   23MOL   C28022764   4.309   3.116   1.386 -0.2677 -0.1101 -0.0619
   23MOL   C28122765   4.244   3.012   1.459 -0.5771  0.2372 -0.5214
   23MOL   C28222766   4.248   2.564   1.508  0.5206  0.5125  0.3447
   23MOL   C28322767   4.296   2.434   1.547 -0.1382 -0.0886  0.8429
   23MOL   C28422768   4.583   2.091   1.722  0.3718 -0.0429  0.1648
   23MOL   C28522769   4.703   2.038   1.768 -0.8902 -0.1139  0.5171
   23MOL   H28622770   4.934   1.970   1.865 -1.0404  0.3873  0.6847
   23MOL   H28722771   4.892   2.320   1.744 -0.1588  0.6046  1.3514
   23MOL   H28822772   4.672   2.412   1.663  2.3372 -1.3741 -5.3093
   23MOL   H28922773   4.383   2.218   1.619 -1.6865  0.2142  0.1432
   23MOL   H29022774   4.534   2.523   1.769  0.6239  0.2939 -0.8629
   23MOL   H29122775   4.425   2.750   1.730  1.5428 -0.3088 -0.1163
   23MOL   H29222776   4.145   2.816   1.553 -0.9330 -2.0769 -1.0176
   23MOL   H29322777   4.518   2.805   1.460  0.0601  0.0694  0.9736
   23MOL   H29422778   4.608   2.971   1.315 -0.1291 -2.2728 -0.2585
   23MOL   H29522779   4.443   3.309   1.266  1.6770  1.5331  0.3668
   23MOL   H29622780   4.685   3.399   1.275  0.2275 -0.6187  1.6309
   23MOL   H29722781   4.878   3.411   1.135 -0.7836 -0.4098  0.6404
   23MOL   H29822782   4.943   3.301   0.863 -1.0156 -0.9114 -0.0061
   23MOL   H29922783   4.963   3.134   0.871 -1.5363 -0.1656  0.6821
   23MOL   H30022784   4.749   3.044   0.937 -0.7130 -2.3682  2.2051
   23MOL   H30122785   4.566   3.037   1.069  0.7667 -0.0540 -1.0015
   23MOL   H30222786   4.248   3.204   1.374 -0.4525 -0.4653 -1.8866
   23MOL   H30322787   4.140   3.014   1.485 -0.7216 -2.5671 -0.7836
   23MOL   H30422788   4.174   2.574   1.430 -0.2558 -0.3713  0.9504
   23MOL   H30522789   4.250   2.349   1.500  2.6548 -0.4175 -1.4689
   23MOL   H30622790   4.497   2.027   1.717  1.0672 -0.7980 -3.0188
   23MOL   H30722791   4.711   1.933   1.792  2.6158 -0.4771 -1.7901
   23MOL   N30822792   5.088   3.243   1.012 -0.0486  0.2739  0.4038
   23MOL   C30922793   5.121   3.377   1.047 -0.8255 -0.1809 -0.3467
   23MOL   C31022794   5.166   3.397   1.179 -0.1627 -0.2023 -0.3148
   23MOL   C31122795   5.184   3.527   1.219 -1.0990 -0.0397 -0.5046
   23MOL   C31222796   5.177   3.639   1.134 -0.1516  1.1559 -0.6701
   23MOL   N31322797   5.204   3.763   1.186 -0.2552  0.3218 -0.2996
   23MOL   C31422798   5.313   3.845   1.153 -0.2960  0.1712 -0.4509
   23MOL   C31522799   5.316   3.977   1.200 -0.6752 -0.5089 -0.5355
   23MOL   C31622800   5.419   4.063   1.157  0.0312  0.4366  0.0401
   23MOL   C31722801   5.523   4.019   1.075  0.4048  0.6731 -0.0383
   23MOL   N31822802   5.611   4.120   1.028  0.2481  0.4721  0.2075
   23MOL   C31922803   5.737   4.105   0.967 -0.1133  0.5881  0.2134
   23MOL   C32022804   5.777   4.202   0.870 -0.9850 -0.2084  1.0252
   23MOL   C32122805   5.902   4.191   0.809 -0.4815  0.2633 -0.1175
   23MOL   C32222806   5.989   4.084   0.845  0.2574 -0.2783 -0.4253
   23MOL   N32322807   6.111   4.071   0.771  1.1353 -0.3843 -0.0061
   23MOL   C32422808   6.191   4.183   0.732 -0.8926 -0.1212  1.2982
   23MOL   C32522809   6.201   4.304   0.804  0.1035 -0.7358 -0.3603
   23MOL   C32622810   6.287   4.411   0.765 -0.2717 -0.5756 -0.2062
   23MOL   C32722811   6.351   4.400   0.641  0.0734  0.2597  0.2198
   23MOL   C32822812   6.413   4.518   0.574 -0.0533  0.5735  0.1982
   23MOL   C32922813   6.350   4.277   0.576  0.1740  0.0809 -0.3066
   23MOL   C33022814   6.268   4.171   0.618  0.3191 -0.1971 -0.2474
   23MOL   C33122815   5.949   3.991   0.940  0.1673 -0.1602 -0.1724
   23MOL   C33222816   5.828   4.003   1.006  0.7954  0.1279 -0.1850
   23MOL   C33322817   5.539   3.880   1.049  0.5043 -0.3705  0.2702
   23MOL   C33422818   5.429   3.797   1.082 -0.4846  0.0371  0.1155
   23MOL   C33522819   5.135   3.619   1.000 -1.2353  0.1396  0.0933
   23MOL   C33622820   5.108   3.488   0.957 -0.1572 -0.0454 -0.7091
   23MOL   H33722821   5.110   3.181   1.089  2.6208  1.7915  0.9187
   23MOL   H33822822   5.161   3.322   1.256 -1.3440 -0.0573 -0.2421
   23MOL   H33922823   5.217   3.534   1.321  0.5474 -1.7229 -0.8887
   23MOL   H34022824   5.143   3.801   1.257 -0.9360 -0.0164 -0.6912
   23MOL   H34122825   5.237   4.015   1.262  1.4646 -2.0371  3.2720
   23MOL   H34222826   5.411   4.169   1.177 -0.2481  0.3406  0.4402
   23MOL   H34322827   5.560   4.208   1.033 -1.8208 -0.6662 -0.1022
   23MOL   H34422828   5.714   4.284   0.838  1.3292  0.7847 -1.1500
   23MOL   H34522829   5.919   4.252   0.722  1.6517  0.8012  0.6493
   23MOL   H34622830   6.117   3.998   0.701 -0.6784 -0.2059 -0.3867
   23MOL   H34722831   6.146   4.307   0.897 -0.8688 -2.3198 -0.8707
   23MOL   H34822832   6.288   4.513   0.801  2.4187 -0.0455 -1.5858
   23MOL   H34922833   6.430   4.593   0.652  0.2643  0.2751  0.4191
   23MOL   H35022834   6.341   4.564   0.506  0.4886 -0.4152 -1.0575
   23MOL   H35122835   6.393   4.262   0.478  1.5812  0.4439  0.2383
   23MOL   H35222836   6.274   4.074   0.570  2.2848 -0.5780  0.6962
   23MOL   H35322837   6.014   3.911   0.969 -0.6234 -0.4490  0.8329
   23MOL   H35422838   5.795   3.932   1.080 -1.2446  1.4342  0.1769
   23MOL   H35522839   5.628   3.845   0.999 -0.2066  0.2731 -1.4927
   23MOL   H35622840   5.424   3.693   1.052  0.5191 -0.3253  1.1662
   23MOL   H35722841   5.133   3.692   0.919 -0.9842 -1.5215 -1.4314
   23MOL   H35822842   5.087   3.469   0.853  2.6682 -0.2532 -1.2685
   23MOL   N35922843   6.534   4.496   0.500  0.2140  0.6849  0.0866
   23MOL   C36022844   6.609   4.605   0.458 -0.4590  0.3011  0.1435
   23MOL   C36122845   6.539   4.706   0.388 -0.3503  0.2643 -0.1713
   23MOL   C36222846   6.624   4.801   0.335  0.4259 -0.4685 -0.1225
   23MOL   C36322847   6.768   4.793   0.340 -0.0088  0.2059  0.0771
   23MOL   N36422848   6.851   4.886   0.274  0.3643  0.0323 -0.3032
   23MOL   C36522849   6.826   5.016   0.232  0.6633  0.6311  0.5373
   23MOL   C36622850   6.917   5.076   0.141  0.7454  0.9338  0.8394
   23MOL   C36722851   6.901   5.208   0.098  0.4399  0.0964  0.5515
   23MOL   C36822852   6.787   5.281   0.140  0.5442 -0.2052  0.1099
   23MOL   N36922853   6.757   5.403   0.082 -0.3020 -0.3509  0.3646
   23MOL   C37022854   6.822   5.468   7.952 -0.1301 -0.5940  0.0768
   23MOL   C37122855   6.838   5.609   7.964  0.0072  0.4527  0.6026
   23MOL   C37222856   6.895   5.675   7.856 -0.6264  0.1742  0.9188
   23MOL   C37322857   6.953   5.604   7.744 -0.3827 -0.0358 -0.1211
   23MOL   N37422858   7.018   5.670   7.633 -0.1991  0.0198 -0.4129
   23MOL   C37522859   7.015   5.804   7.610  0.1173 -0.2005 -0.2403
   23MOL   C37622860   7.069   5.905   7.698  0.5471  0.1069 -0.3389
   23MOL   C37722861   7.069   6.048   7.662 -0.4297  0.2207 -0.0265
   23MOL   C37822862   7.006   6.091   7.541 -0.9741  0.4005  0.2740
   23MOL   C37922863   6.996   6.237   7.500 -0.4759 -0.2262  0.0980
   23MOL   C38022864   6.960   5.991   7.453 -0.6862  0.5573  1.0269
   23MOL   C38122865   6.957   5.856   7.495 -0.8679 -0.1131  0.1751
   23MOL   C38222866   6.937   5.461   7.731  0.4869 -0.0666 -0.2350
   23MOL   C38322867   6.862   5.397   7.837  0.0843  0.2021 -0.5232
   23MOL   C38422868   6.697   5.228   0.234 -0.2101  0.7138  0.5656
   23MOL   C38522869   6.720   5.097   0.281  0.4477  1.3204  0.1320
   23MOL   C38622870   6.831   4.695   0.419 -0.1085  0.0864  0.2789
   23MOL   C38722871   6.751   4.598   0.474  0.3505 -0.5947 -0.8297
   23MOL   H38822872   6.594   4.415   0.514  2.3374  1.9180 -1.5332
   23MOL   H38922873   6.433   4.717   0.368  0.0717  0.9704 -2.0495
   23MOL   H39022874   6.579   4.875   0.272 -1.2613 -0.8053  0.6504
   23MOL   H39122875   6.938   4.838   0.256  0.3842  0.0330 -0.2137
   23MOL   H39222876   7.003   5.017   0.113  0.5471  2.9745 -4.6328
   23MOL   H39322877   6.976   5.253   0.035  0.4410 -0.5721  0.0647
   23MOL   H39422878   6.692   5.461   0.132 -1.7403 -0.7518 -1.0096
   23MOL   H39522879   6.797   5.662   0.067 -2.4552  1.0502 -0.9200
   23MOL   H39622880   6.911   5.780   7.880 -0.3230  0.3919 -0.2090
   23MOL   H39722881   7.034   5.603   7.559  0.2405 -2.7715  2.0925
   23MOL   H39822882   7.119   5.869   7.788 -0.4164 -2.5406 -0.8076
   23MOL   H39922883   7.107   6.115   7.737 -2.1986  0.5378  0.5927
   23MOL   H40022884   6.900   6.253   7.451 -0.2990 -0.5017 -0.3411
   23MOL   H40122885   7.063   6.249   7.415 -0.9953 -1.7288 -0.5447
   23MOL   H40222886   6.920   6.017   7.356  0.0371  1.5164  0.9870
   23MOL   H40322887   6.894   5.795   7.433  0.8294  0.1653 -1.8857
   23MOL   H40422888   6.976   5.405   7.647 -0.9447  1.2250 -1.7951
   23MOL   H40522889   6.839   5.291   7.830 -0.1524  0.3074 -1.4230
   23MOL   H40622890   6.609   5.281   0.266 -1.0008  0.5971 -1.3259
   23MOL   H40722891   6.644   5.058   0.347 -0.0033 -0.7589 -1.5674
   23MOL   H40822892   6.938   4.691   0.429 -0.2436  0.3551  2.1005
   23MOL   H40922893   6.788   4.522   0.541  1.7949  0.7017 -0.1253
   23MOL   N41022894   7.032   6.341   7.595 -0.0224  0.0334 -0.5829
   23MOL   C41122895   6.983   6.475   7.584  0.2265  0.1531 -0.1591
   23MOL   C41222896   7.080   6.574   7.604  0.4228 -0.5027 -0.0427
   23MOL   C41322897   7.035   6.706   7.591 -0.7280  0.1395  0.1589
   23MOL   C41422898   6.909   6.740   7.540  0.0317  0.8078 -0.1282
   23MOL   N41522899   6.883   6.872   7.510 -0.1043  0.0184 -0.3742
   23MOL   C41622900   6.761   6.941   7.489  0.2295  0.2259  0.7166
   23MOL   C41722901   6.658   6.920   7.583  0.4748  0.4674 -0.0280
   23MOL   C41822902   6.531   6.979   7.562  0.7853  0.2265 -0.4835
   23MOL   C41922903   6.510   7.069   7.459 -0.4205  0.0502 -0.0160
   23MOL   N42022904   6.386   7.132   7.439  0.4623 -0.2682  0.7968
   23MOL   C42122905   6.266   7.069   7.411  0.6593 -0.7441  0.4181
   23MOL   C42222906   6.258   7.024   7.275  1.2800  0.1214 -0.1099
   23MOL   C42322907   6.136   6.957   7.242 -0.3245 -0.4035 -0.0233
   23MOL   C42422908   6.043   6.922   7.344 -0.1408 -0.1980 -0.5522
   23MOL   N42522909   5.937   6.840   7.317  0.3350  0.7385 -0.3154
   23MOL   C42622910   5.930   6.708   7.263  0.0283 -0.1447 -0.4599
   23MOL   C42722911   5.823   6.624   7.292 -0.1305 -0.8351 -0.0644
   23MOL   C42822912   5.820   6.492   7.241 -0.0489 -0.0672 -0.6683
   23MOL   C42922913   5.932   6.440   7.164  0.1584  0.1124  0.0438
   23MOL   C43022914   5.938   6.293   7.124 -0.0615 -0.2741  0.0965
   23MOL   C43122915   6.038   6.524   7.135  0.2345 -0.2836 -0.5586
   23MOL   C43222916   6.034   6.655   7.181 -0.1502 -0.0982 -0.4034
   23MOL   C43322917   6.054   6.977   7.476 -0.0470  0.7678  0.4001
   23MOL   C43422918   6.170   7.048   7.508 -0.0780 -0.2246 -0.5075
   23MOL   C43522919   6.616   7.099   7.373  0.0404  0.7536 -0.3043
   23MOL   C43622920   6.736   7.028   7.377  0.0722 -0.0378  0.2225
   23MOL   C43722921   6.809   6.643   7.520 -0.1478  0.8667  0.8038
   23MOL   C43822922   6.849   6.509   7.548 -0.5061  0.0518 -0.0582
   23MOL   H43922923   7.124   6.324   7.633  0.4396  0.9127 -1.2966
   23MOL   H44022924   7.179   6.560   7.645  0.3127  1.3760  0.9098
   23MOL   H44122925   7.107   6.781   7.621 -1.1495  0.6628 -0.1218
   23MOL   H44222926   6.962   6.933   7.490 -0.5916  0.3642 -1.2697
   23MOL   H44322927   6.683   6.852   7.662 -1.1849  0.8651  0.8503
   23MOL   H44422928   6.453   6.952   7.631 -0.6323 -0.9491 -2.4851
   23MOL   H44522929   6.400   7.197   7.363  1.0218  0.0221  1.1369
   23MOL   H44622930   6.326   7.045   7.194  0.9637  1.3038 -0.0786
   23MOL   H44722931   6.119   6.918   7.143 -0.8913 -2.2312  0.7644
   23MOL   H44822932   5.868   6.841   7.391 -1.4910  2.4533 -1.9761
   23MOL   H44922933   5.741   6.655   7.356  1.1154  1.1185  0.6111
   23MOL   H45022934   5.745   6.420   7.271  2.8740 -2.6708  0.6647
   23MOL   H45122935   6.028   6.264   7.070 -0.8959  0.0755 -1.4892
   23MOL   H45222936   5.856   6.281   7.053 -0.7237 -3.6545  1.3226
   23MOL   H45322937   6.126   6.480   7.090  1.0677 -0.8410  1.5710
   23MOL   H45422938   6.116   6.718   7.151  2.0482 -0.0376  5.1261
   23MOL   H45522939   5.975   6.958   7.548  0.8618  0.3784  1.2966
   23MOL   H45622940   6.176   7.082   7.610  0.2436 -2.8984  0.4107
   23MOL   H45722941   6.606   7.181   7.304 -0.4120  0.0832 -1.0484
   23MOL   H45822942   6.819   7.040   7.308 -0.2510 -2.7528 -0.6880
   23MOL   H45922943   6.715   6.665   7.473  0.0717  0.9595  0.4090
   23MOL   H46022944   6.772   6.433   7.540 -1.5148  0.9077  1.3976
   23MOL   N46122945   5.912   6.191   7.230 -0.2088  0.3160 -0.0991
   23MOL   C46222946   5.983   6.193   7.348  0.5991  0.6072 -0.6460
   23MOL   C46322947   5.920   6.129   7.457  0.3427  0.0029  0.1575
   23MOL   C46422948   5.979   6.101   7.579  0.4398  0.0505 -0.4984
   23MOL   C46522949   6.109   6.141   7.596  0.9249 -0.2853 -0.6771
   23MOL   N46622950   6.182   6.114   7.714 -0.4454 -0.2186  0.3161
   23MOL   C46722951   6.141   6.047   7.831  1.1038  0.0123  0.3068
   23MOL   C46822952   6.232   5.967   7.903  0.0580 -0.9166  0.4398
   23MOL   C46922953   6.205   5.910   0.048  0.2037 -0.1184 -0.1771
   23MOL   C47022954   6.083   5.939   0.114  0.0207 -1.2196 -0.3949
   23MOL   N47122955   6.061   5.882   0.240 -0.1197  0.0075  0.0081
   23MOL   C47222956   6.140   5.903   0.354 -0.2711 -0.0970 -0.8355
   23MOL   C47322957   6.246   6.003   0.342 -0.1554 -0.5482 -0.5057
   23MOL   C47422958   6.320   6.040   0.460  0.1585  0.6036 -0.1422
   23MOL   C47522959   6.310   5.960   0.577  0.8731  0.5955  0.2071
   23MOL   N47622960   6.382   5.984   0.695 -0.4699 -0.2952  0.0934
   23MOL   C47722961   6.495   6.061   0.714  0.5295  0.1979  0.3561
   23MOL   C47822962   6.505   6.146   0.826  0.0421 -0.2129  0.5622
   23MOL   C47922963   6.611   6.242   0.821 -0.2866 -0.5313  0.1470
   23MOL   C48022964   6.708   6.240   0.715 -0.3066 -0.2122  0.4833
   23MOL   C48122965   6.810   6.351   0.712 -0.0401  0.5770 -0.6929
   23MOL   C48222966   6.707   6.136   0.620  0.1733 -0.2251 -0.4445
   23MOL   C48322967   6.597   6.048   0.620 -0.5374 -0.1909 -0.4272
   23MOL   C48422968   6.202   5.867   0.581  0.3798  0.0506  0.2310
   23MOL   C48522969   6.122   5.832   0.471 -0.0973 -0.2373  0.3958
   23MOL   C48622970   5.989   6.018   0.045  0.2825 -0.7906 -0.2422
   23MOL   C48722971   6.018   6.074   7.902 -0.0646 -0.0550  0.3278
   23MOL   C48822972   6.178   6.204   7.491 -0.5832  0.2723 -0.2907
   23MOL   C48922973   6.115   6.234   7.370 -0.2321  0.1453  0.4018
   23MOL   H49022974   5.818   6.154   7.232  0.1873 -0.7014  0.2801
   23MOL   H49122975   5.818   6.099   7.436  0.6957 -0.0190 -1.6111
   23MOL   H49222976   5.932   6.037   7.653 -0.8915 -2.7356 -3.6469
   23MOL   H49322977   6.283   6.107   7.704 -0.4259  0.8949 -0.3589
   23MOL   H49422978   6.330   5.949   7.861  0.4302  3.0894 -0.6247
   23MOL   H49522979   6.278   5.848   0.098  0.1926 -1.0358 -1.2497
   23MOL   H49622980   5.969   5.842   0.252 -0.7437  1.1050 -1.0158
   23MOL   H49722981   6.270   6.050   0.248  0.2248 -1.9344 -1.1211
   23MOL   H49822982   6.383   6.126   0.468 -0.9194  1.4572 -0.6618
   23MOL   H49922983   6.349   5.939   0.779  1.2005  0.1303  0.9997
   23MOL   H50022984   6.422   6.165   0.893  0.6537  2.8195  0.5240
   23MOL   H50122985   6.626   6.313   0.901 -1.1776 -0.3780  0.1862
   23MOL   H50222986   6.903   6.331   0.660  0.9277  2.7179  0.1753
   23MOL   H50322987   6.840   6.373   0.814 -2.0783 -1.3985  0.4006
   23MOL   H50422988   6.778   6.142   0.540  0.6211  2.1241  0.0854
   23MOL   H50522989   6.585   5.965   0.552  0.2606 -1.1685  0.6069
   23MOL   H50622990   6.187   5.802   0.666  0.3300 -0.0053  0.1806
   23MOL   H50722991   6.042   5.760   0.478 -1.4776  1.3231  0.8472
   23MOL   H50822992   5.896   6.045   0.093  1.0089  0.0631  0.7090
   23MOL   H50922993   5.945   6.132   7.848 -1.5739 -0.9585  1.3790
   23MOL   H51022994   6.285   6.219   7.498 -0.1657 -2.2137 -0.6680
   23MOL   H51122995   6.174   6.280   7.292 -0.7915 -2.2500 -1.4833
   23MOL   N51222996   6.766   6.477   0.644 -0.7801 -0.0854 -0.6703
   23MOL   C51322997   6.716   6.483   0.515  0.1288  0.2624 -0.1333
   23MOL   C51422998   6.631   6.596   0.486  1.0417  0.3677  0.3883
   23MOL   C51522999   6.587   6.609   0.350 -0.2500 -0.0717 -1.0518
   23MOL   C51623000   6.628   6.518   0.252 -0.1929  0.4603 -0.6461
   23MOL   N51723001   6.574   6.539   0.125 -0.5849 -0.5678  0.7582
   23MOL   C51823002   6.603   6.456   0.014  0.9757  0.5669  0.4584
   23MOL   C51923003   6.732   6.434   7.941 -0.1649  0.1835 -0.3873
   23MOL   C52023004   6.756   6.344   7.838  0.2983  0.5234 -0.6107
   23MOL   C52123005   6.651   6.271   7.780  0.1782 -0.5204  0.3025
   23MOL   N52223006   6.674   6.181   7.680 -0.2362 -0.0115 -0.5028
   23MOL   C52323007   6.606   6.062   7.671  0.7281 -0.0007 -0.8099
   23MOL   C52423008   6.630   5.956   7.759  1.1650 -0.2237  0.0322
   23MOL   C52523009   6.565   5.832   7.751 -0.3642 -0.5833 -0.2913
   23MOL   C52623010   6.463   5.820   7.659  0.4049  0.0112  0.2553
   23MOL   N52723011   6.370   5.712   7.670  0.1078 -0.3529 -0.5161
   23MOL   C52823012   6.381   5.576   7.713  0.2477 -0.1703 -0.4968
   23MOL   C52923013   6.500   5.509   7.737  0.3511 -0.0266  0.0508
   23MOL   C53023014   6.504   5.373   7.777 -0.2012  0.0008 -0.9921
   23MOL   C53123015   6.373   5.310   7.806  0.2010 -0.2130  0.1557
   23MOL   C53223016   6.364   5.163   7.855  0.2851 -0.3025 -0.2450
   23MOL   C53323017   6.254   5.378   7.777 -0.6130 -0.2720  0.0795
   23MOL   C53423018   6.257   5.508   7.734 -0.4343  0.0565  0.4723
   23MOL   C53523019   6.429   5.924   7.577  0.6264 -0.0618 -0.1569
   23MOL   C53623020   6.501   6.047   7.580  0.6331  0.2015  0.0297
   23MOL   C53723021   6.520   6.291   7.830 -0.2764 -0.1630  0.0135
   23MOL   C53823022   6.497   6.378   7.940 -0.5084  0.2978 -0.1335
   23MOL   C53923023   6.711   6.408   0.286  0.3056 -0.1197  0.8796
   23MOL   C54023024   6.754   6.387   0.419  1.0818 -0.3180 -0.0678
   23MOL   H54123025   6.754   6.563   0.697 -1.1231 -1.7699  2.0713
   23MOL   H54223026   6.597   6.665   0.562  0.3619  2.4552 -1.7431
   23MOL   H54323027   6.526   6.692   0.316  1.2273  1.0597 -0.9752
   23MOL   H54423028   6.496   6.602   0.114 -1.6266 -1.8722  0.6643
   23MOL   H54523029   6.818   6.480   0.005 -1.9678  0.0319  3.3460
   23MOL   H54623030   6.856   6.328   7.801  0.5855 -0.5773  0.6338
   23MOL   H54723031   6.774   6.173   7.665 -0.0257 -0.1418  0.9040
   23MOL   H54823032   6.707   5.951   7.834 -0.4100 -0.2619  1.6767
   23MOL   H54923033   6.595   5.764   7.829  1.2852 -0.3462 -0.7031
   23MOL   H55023034   6.278   5.734   7.634  0.3866  1.3478 -0.2506
   23MOL   H55123035   6.589   5.567   7.717 -1.2813  2.4975 -0.1268
   23MOL   H55223036   6.598   5.321   7.789  0.6370  1.4545 -1.0503
   23MOL   H55323037   6.393   5.087   7.782  0.0858 -1.3786  0.7723
   23MOL   H55423038   6.262   5.146   7.892  0.9277 -0.6755  1.4026
   23MOL   H55523039   6.161   5.324   7.780  0.7666 -2.6995  0.4498
   23MOL   H55623040   6.165   5.563   7.720  0.2042  2.0265  3.4199
   23MOL   H55723041   6.337   5.916   7.521  1.3400  1.5213 -1.6361
   23MOL   H55823042   6.485   6.131   7.514 -1.4572 -1.1478 -1.2249
   23MOL   H55923043   6.439   6.230   7.792 -0.8124  0.7225 -0.2817
   23MOL   H56023044   6.397   6.382   7.981 -0.9655 -0.8010 -1.0963
   23MOL   H56123045   6.742   6.335   0.213  1.4881 -0.5602  1.8132
   23MOL   H56223046   6.830   6.311   0.429  1.8515  0.1360 -2.2128
   23MOL   N56323047   6.454   5.136   7.971 -0.1564 -0.4240 -0.0386
   23MOL   C56423048   6.499   5.004   7.981 -1.4415 -0.3821 -1.1742
   23MOL   C56523049   6.635   4.977   7.950  0.9091 -0.0275  0.4711
   23MOL   C56623050   6.673   4.843   7.937  0.7682  0.1808  0.7648
   23MOL   C56723051   6.582   4.745   7.971  0.1723  0.9544 -0.2718
   23MOL   N56823052   6.637   4.621   7.960 -0.0033 -0.1401 -0.3827
   23MOL   C56923053   6.625   4.503   0.051  0.2715 -0.7128 -0.8996
   23MOL   C57023054   6.735   4.404   0.051  0.4025 -0.4328 -0.6734
   23MOL   C57123055   6.715   4.277   0.112  0.5940  0.6001  0.0143
   23MOL   C57223056   6.600   4.249   0.188  0.1981 -0.0373  0.5680
   23MOL   N57323057   6.584   4.122   0.252 -0.7156  0.5714  0.1343
   23MOL   C57423058   6.481   4.028   0.259  0.7169 -0.2720 -0.7089
   23MOL   C57523059   6.475   3.927   0.356  0.1928 -0.3072  0.0100
   23MOL   C57623060   6.378   3.820   0.338 -0.1513 -0.0886 -0.0188
   23MOL   C57723061   6.276   3.833   0.240  0.0605  0.1075 -0.4803
   23MOL   N57823062   6.176   3.734   0.230  0.1249 -0.3327 -0.4600
   23MOL   C57923063   6.098   3.698   0.129 -0.7087 -0.9291  0.2754
   23MOL   C58023064   6.117   3.736   7.976  0.6444 -0.2104 -0.0960
   23MOL   C58123065   6.045   3.684   7.866 -0.0393 -0.2057 -0.2202
   23MOL   C58223066   5.941   3.585   7.892  0.4380  0.3478  0.7361
   23MOL   C58323067   5.877   3.506   7.780 -0.3224  0.6680  0.2290
   23MOL   C58423068   5.916   3.556   0.046  0.2994 -0.9588 -0.2065
   23MOL   C58523069   5.994   3.610   0.152 -0.4338 -0.2022  0.2299
   23MOL   C58623070   6.274   3.953   0.167 -0.1052  0.6148 -0.0568
   23MOL   C58723071   6.387   4.033   0.161  0.4876 -0.0562 -0.1562
   23MOL   C58823072   6.496   4.347   0.188  0.9440  0.1891  0.4138
   23MOL   C58923073   6.509   4.471   0.122 -0.2767  0.1671 -0.5718
   23MOL   C59023074   6.445   4.776   0.014  0.3209  0.0326 -0.1284
   23MOL   C59123075   6.403   4.910   0.019  0.4496 -0.3519 -0.0787
   23MOL   H59223076   6.526   5.205   0.002  0.3989 -0.9876 -0.1258
   23MOL   H59323077   6.698   5.064   7.936 -0.7748  1.0300 -0.7766
   23MOL   H59423078   6.773   4.812   7.910  1.0751  1.5684  0.2770
   23MOL   H59523079   6.724   4.628   7.908  0.6265  1.6080  0.8610
   23MOL   H59623080   6.825   4.423   7.977  1.9446  2.8747  2.7014
   23MOL   H59723081   6.788   4.198   0.100 -2.3680 -2.6894  2.5420
   23MOL   H59823082   6.668   4.080   0.291 -0.8373 -1.2331 -1.4205
   23MOL   H59923083   6.547   3.923   0.436 -0.5806 -1.8767  0.6402
   23MOL   H60023084   6.378   3.735   0.404  0.3731 -1.0551 -1.2321
   23MOL   H60123085   6.182   3.660   0.297  1.1563  0.0767 -0.0878
   23MOL   H60223086   6.201   3.801   7.953  1.1398 -1.0525 -0.6924
   23MOL   H60323087   6.066   3.720   7.766 -2.1215 -0.6613 -0.8445
   23MOL   H60423088   5.772   3.535   7.771 -0.6014  0.1999  1.7715
   23MOL   H60523089   5.865   3.400   7.804 -1.4187  0.5644 -0.7105
   23MOL   H60623090   5.846   3.477   0.068  0.3414 -1.0242 -0.3061
   23MOL   H60723091   5.983   3.574   0.253 -2.2285 -0.6188 -0.1010
   23MOL   H60823092   6.190   3.970   0.101 -1.7965 -2.6540  1.1487
   23MOL   H60923093   6.397   4.112   0.088 -0.3380  0.0753 -0.1309
   23MOL   H61023094   6.402   4.325   0.236  1.5441  0.2357  1.6365
   23MOL   H61123095   6.425   4.537   0.135 -0.0447  0.3870 -0.1974
   23MOL   H61223096   6.375   4.694   0.026 -1.2583  1.3279 -0.3442
   23MOL   H61323097   6.297   4.926   0.033  0.5505 -0.9330  1.5153
   23MOL   N61423098   5.946   3.525   7.648  0.2320 -0.3644  0.4919
   23MOL   C61523099   5.910   3.622   7.559  0.3481 -0.5534 -0.0736
   23MOL   C61623100   5.971   3.623   7.430 -0.1550  0.5215 -0.1979
   23MOL   C61723101   5.937   3.715   7.328 -0.7779  0.3524 -0.4176
   23MOL   C61823102   5.841   3.811   7.359  0.1321  0.1294  0.1000
   23MOL   N61923103   5.815   3.914   7.267 -0.6490 -0.3161  0.1130
   23MOL   C62023104   5.881   3.952   7.154  0.2829 -0.3708 -0.5044
   23MOL   C62123105   5.902   3.858   7.049  0.7895 -0.3957  0.0864
   23MOL   C62223106   5.969   3.896   6.933 -0.3210 -0.0515  0.2946
   23MOL   C62323107   6.012   4.028   6.913 -0.5262  0.2612 -0.2197
   23MOL   N62423108   6.072   4.063   6.788 -1.7296  0.2033 -1.2310
   23MOL   C62523109   6.116   4.187   6.741  0.0854  0.4147 -0.1132
   23MOL   C62623110   6.034   4.301   6.752 -0.0052 -0.1052 -0.2221
   23MOL   C62723111   6.077   4.429   6.709  0.6878  1.0803  0.0621
   23MOL   C62823112   6.199   4.438   6.638 -0.0213  0.3469 -0.2522
   23MOL   N62923113   6.239   4.561   6.581 -0.0321 -0.5424 -0.1785
   23MOL   C63023114   6.375   4.599   6.561 -0.1788  0.5921  0.2655
   23MOL   C63123115   6.398   4.709   6.477  0.0476  0.2118 -0.8027
   23MOL   C63223116   6.535   4.748   6.450  0.0351  0.2130  0.3944
   23MOL   C63323117   6.641   4.675   6.507 -0.5946  0.3246  0.4639
   23MOL   C63423118   6.783   4.721   6.485  0.5773 -0.1466 -0.1513
   23MOL   C63523119   6.612   4.568   6.595 -0.0247 -0.1783  0.1417
   23MOL   C63623120   6.484   4.529   6.616 -0.5560  0.4921  0.3684
   23MOL   C63723121   6.274   4.321   6.612  0.1448 -0.1041  0.3136
   23MOL   C63823122   6.228   4.193   6.660  0.6225 -0.2903 -0.5066
   23MOL   C63923123   5.982   4.121   7.013 -0.2715 -0.2001 -0.1604
   23MOL   C64023124   5.930   4.083   7.136 -0.1321 -0.0268 -0.4310
   23MOL   C64123125   5.783   3.820   7.486  0.6491  0.9587 -0.2266
   23MOL   C64223126   5.815   3.727   7.586  0.0971  0.6695  0.3716
   23MOL   H64323127   6.020   3.461   7.624  0.0383  0.8230 -3.7952
   23MOL   H64423128   6.052   3.559   7.397  0.0996  0.3594  0.7362
   23MOL   H64523129   5.987   3.693   7.235  2.3410 -1.3017  1.5360
   23MOL   H64623130   5.781   3.998   7.311  1.3713  0.3433  0.4374
   23MOL   H64723131   5.864   3.758   7.054 -0.2339 -0.0604 -0.8056
   23MOL   H64823132   6.000   3.816   6.866  0.5257  0.4012  0.1364
   23MOL   H64923133   6.100   3.982   6.734 -1.0591 -1.0844  1.0106
   23MOL   H65023134   5.939   4.295   6.803  1.2119  1.4994  2.2911
   23MOL   H65123135   6.017   4.516   6.732  0.4291  0.7248  0.7281
   23MOL   H65223136   6.172   4.635   6.598 -1.9404 -1.7146 -2.3873
   23MOL   H65323137   6.314   4.759   6.432 -0.9050  0.0623  0.7874
   23MOL   H65423138   6.544   4.834   6.385 -0.0033  1.4405  1.9741
   23MOL   H65523139   6.846   4.652   6.542  1.1738 -0.0076 -0.6409
   23MOL   H65623140   6.798   4.814   6.541  0.2632  0.4964 -1.1379
   23MOL   H65723141   6.684   4.512   6.653  1.7636  1.8700 -0.0511
   23MOL   H65823142   6.474   4.448   6.686  1.5149  1.0741  1.3690
   23MOL   H65923143   6.363   4.319   6.550  0.4628 -0.3696  0.7739
   23MOL   H66023144   6.289   4.107   6.636  2.0220  0.7594 -0.7663
   23MOL   H66123145   6.015   4.222   6.994  0.4665 -0.9173 -2.9394
   23MOL   H66223146   5.912   4.161   7.208  0.9471  1.1273 -1.3664
   23MOL   H66323147   5.711   3.895   7.513  0.4286  0.5275  0.3998
   23MOL   H66423148   5.771   3.741   7.683 -1.6556 -1.7577 -0.0302
   23MOL   N66523149   6.814   4.729   6.340 -0.2667  0.4632 -0.2706
   23MOL   C66623150   6.819   4.863   6.295  0.8332  0.1517  0.3343
   23MOL   C66723151   6.720   4.920   6.206 -0.4077  0.0334  0.1707
   23MOL   C66823152   6.730   5.052   6.180 -0.7139  0.1187  0.5974
   23MOL   C66923153   6.839   5.132   6.213 -0.3274 -0.0257  0.7389
   23MOL   N67023154   6.856   5.259   6.164 -0.5197 -0.1257 -0.1199
   23MOL   C67123155   6.766   5.360   6.191 -0.0120  0.5900  0.4117
   23MOL   C67223156   6.659   5.349   6.281  0.3939 -0.2032 -0.7119
   23MOL   C67323157   6.566   5.449   6.283 -0.5857  0.0701 -0.4900
   23MOL   C67423158   6.574   5.569   6.211  0.1921  0.1031  0.2257
   23MOL   N67523159   6.484   5.674   6.222  0.0569  0.3475 -0.5474
   23MOL   C67623160   6.359   5.672   6.289 -0.1680 -0.2660 -0.2528
   23MOL   C67723161   6.253   5.592   6.244  0.6649  0.1692  0.2451
   23MOL   C67823162   6.130   5.590   6.311 -0.7180 -0.4386  1.0497
   23MOL   C67923163   6.112   5.667   6.425  0.0382  0.1156 -0.2789
   23MOL   N68023164   6.003   5.647   6.509 -0.3760 -0.4059 -0.6697
   23MOL   C68123165   5.931   5.529   6.523 -0.7659  0.0891  0.4638
   23MOL   C68223166   5.988   5.404   6.497 -0.3457  0.0937 -0.1611
   23MOL   C68323167   5.900   5.294   6.514 -0.1576 -0.1969 -0.4710
   23MOL   C68423168   5.761   5.307   6.539 -0.0240  0.9056  0.0439
   23MOL   C68523169   5.661   5.195   6.538  0.1482  0.4981  0.2378
   23MOL   C68623170   5.710   5.435   6.561  0.4791  0.3772 -0.2663
   23MOL   C68723171   5.796   5.548   6.551 -0.1583  0.0216  0.0559
   23MOL   C68823172   6.208   5.757   6.469  0.1784  0.0794 -0.6505
   23MOL   C68923173   6.331   5.756   6.400  0.7199  0.1866  0.2584
   23MOL   C69023174   6.683   5.581   6.123  0.5256 -0.1270  1.2401
   23MOL   C69123175   6.776   5.473   6.108 -0.1739  0.4465 -0.0485
   23MOL   C69223176   6.936   5.079   6.295 -0.1230 -0.1234  0.3551
   23MOL   C69323177   6.924   4.945   6.339  0.6056 -0.0772 -0.3767
   23MOL   H69423178   6.747   4.679   6.283  1.2693 -0.8057 -0.9900
   23MOL   H69523179   6.629   4.868   6.179 -0.7335  1.0650 -0.7601
   23MOL   H69623180   6.644   5.089   6.126  0.3593  1.6358 -0.1085
   23MOL   H69723181   6.948   5.298   6.174 -0.2191 -0.7503 -0.4393
   23MOL   H69823182   6.635   5.257   6.332 -2.1947  0.3409 -0.8614
   23MOL   H69923183   6.475   5.434   6.337  0.8470 -2.3746  1.3382
   23MOL   H70023184   6.525   5.766   6.218  1.0292 -0.0468  0.2010
   23MOL   H70123185   6.260   5.535   6.153  1.2553  1.1220 -0.3098
   23MOL   H70223186   6.049   5.529   6.275 -1.3197  1.0093 -0.0917
   23MOL   H70323187   5.997   5.716   6.582  0.6769 -0.0975 -0.8661
   23MOL   H70423188   6.092   5.396   6.467  0.1278  1.7555  0.9290
   23MOL   H70523189   5.934   5.192   6.500 -2.6583 -1.0312 -0.7413
   23MOL   H70623190   5.567   5.237   6.571  0.1321  2.2135 -1.8983
   23MOL   H70723191   5.692   5.119   6.610 -1.1567  0.2983  0.6040
   23MOL   H70823192   5.607   5.446   6.592 -0.5508 -3.8583 -1.7616
   23MOL   H70923193   5.768   5.648   6.578 -0.8777 -0.6639  1.9225
   23MOL   H71023194   6.198   5.824   6.553  2.1317  0.8464 -0.9936
   23MOL   H71123195   6.404   5.829   6.432 -0.1812  1.3003 -0.2089
   23MOL   H71223196   6.678   5.666   6.056  2.6658 -1.6594 -0.9710
   23MOL   H71323197   6.851   5.486   6.031  0.1568  0.6750  0.3088
   23MOL   H71423198   7.017   5.142   6.330  1.3548 -1.5377 -0.4320
   23MOL   H71523199   7.004   4.909   6.403  0.7154  1.6259  0.4862
   23MOL   N71623200   5.652   5.145   6.401 -0.1863  0.0839  0.1920
   23MOL   C71723201   5.618   5.014   6.366  0.2825  0.4821  0.0538
   23MOL   C71823202   5.550   4.931   6.459  0.5811  0.1272 -0.2314
   23MOL   C71923203   5.516   4.794   6.424 -0.1227 -0.1254 -0.0720
   23MOL   C72023204   5.540   4.749   6.295 -0.0492  0.2131 -0.4460
   23MOL   N72123205   5.495   4.621   6.251  0.2085 -0.3703 -0.0855
   23MOL   C72223206   5.400   4.542   6.319 -0.1506 -0.2154 -0.1234
   23MOL   C72323207   5.294   4.590   6.403  0.0876 -0.5645 -0.6804
   23MOL   C72423208   5.206   4.502   6.474  0.1373 -0.5588  0.6884
   23MOL   C72523209   5.219   4.365   6.456  0.0427  0.2279  0.0093
   23MOL   N72623210   5.126   4.283   6.518 -0.1692  0.1688  0.2576
   23MOL   C72723211   5.046   4.182   6.470  0.5668 -0.3799  0.2142
   23MOL   C72823212   4.939   4.135   6.558  0.0416 -0.0441 -0.2667
   23MOL   C72923213   4.845   4.038   6.515  0.2877 -1.1394 -0.1520
   23MOL   C73023214   4.862   3.989   6.385  0.4550 -0.3745  0.4355
   23MOL   N73123215   4.767   3.892   6.337 -0.2807  0.3628 -1.0550
   23MOL   C73223216   4.674   3.909   6.233  0.0270  0.2395 -0.0174
   23MOL   C73323217   4.607   3.794   6.189 -0.0367 -0.5242 -0.4606
   23MOL   C73423218   4.499   3.802   6.094 -0.0444  0.2891  0.4136
   23MOL   C73523219   4.453   3.927   6.055 -0.1464 -0.4425  0.6449
   23MOL   C73623220   4.324   3.943   5.987 -0.0828 -0.5352 -0.0058
   23MOL   C73723221   4.533   4.041   6.087  0.8457  0.3566  0.0946
   23MOL   C73823222   4.635   4.032   6.179  0.1167  0.2668 -0.0561
   23MOL   C73923223   4.963   4.033   6.297 -0.1309  0.1433  0.2305
   23MOL   C74023224   5.060   4.128   6.341 -0.1829 -0.1629 -0.2587
   23MOL   C74123225   5.319   4.317   6.369  0.4009  0.3984  0.0572
   23MOL   C74223226   5.404   4.405   6.300 -0.0895  0.3162 -0.7771
   23MOL   C74323227   5.606   4.827   6.206  0.6549 -0.0839 -0.8117
   23MOL   C74423228   5.645   4.963   6.237  0.2126 -0.2741  0.1362
   23MOL   H74523229   5.667   5.214   6.329  0.0967  1.6062  1.6886
   23MOL   H74623230   5.505   4.961   6.553  1.6755 -1.0755  0.6945
   23MOL   H74723231   5.476   4.731   6.502 -0.0637 -0.5458 -0.3796
   23MOL   H74823232   5.543   4.588   6.169  1.0088 -1.2424  0.7191
   23MOL   H74923233   5.273   4.694   6.417  1.6754 -0.6799  3.1094
   23MOL   H75023234   5.118   4.535   6.528 -0.4787  0.5447 -0.9237
   23MOL   H75123235   5.132   4.282   6.618  1.1026 -1.0245  0.1822
   23MOL   H75223236   4.917   4.183   6.652  2.0177 -2.1032  1.3037
   23MOL   H75323237   4.770   4.005   6.585 -2.4911 -3.7620 -4.1202
   23MOL   H75423238   4.774   3.796   6.365 -3.2134  0.1530 -0.8403
   23MOL   H75523239   4.638   3.698   6.227 -0.5282 -1.1726 -1.6843
   23MOL   H75623240   4.453   3.712   6.056  3.0157 -0.3485 -2.1016
   23MOL   H75723241   4.241   3.912   6.051 -0.0680 -2.0614 -0.7100
   23MOL   H75823242   4.324   3.868   5.908  0.6098 -1.0892  0.5178
   23MOL   H75923243   4.505   4.136   6.043 -1.8206 -1.8191 -3.1211
   23MOL   H76023244   4.681   4.126   6.208  1.1732 -0.0508 -0.6972
   23MOL   H76123245   4.959   4.008   6.192 -1.7421  0.6108  0.1620
   23MOL   H76223246   5.130   4.161   6.265  0.2496  1.8055  0.9507
   23MOL   H76323247   5.330   4.211   6.358 -0.6949 -0.0493  2.9979
   23MOL   H76423248   5.473   4.367   6.226  1.0325  1.5610 -0.3974
   23MOL   H76523249   5.621   4.773   6.113 -1.2938 -2.1581  0.0188
   23MOL   H76623250   5.705   5.018   6.165  0.3520 -1.4817 -0.6922
   23MOL   N76723251   4.291   4.075   5.941 -0.7496  0.0320 -0.0892
   23MOL   C76823252   4.358   4.132   5.827  0.2072  1.0999  0.6586
   23MOL   C76923253   4.429   4.053   5.728  0.0450  0.4993  0.2913
   23MOL   C77023254   4.497   4.110   5.617  0.6555 -0.0138  0.0691
   23MOL   C77123255   4.503   4.250   5.600  0.3197 -0.0859 -0.3266
   23MOL   N77223256   4.568   4.303   5.490  0.0760 -0.3374 -0.5636
   23MOL   C77323257   4.666   4.401   5.503  0.7801 -0.2804  0.8414
   23MOL   C77423258   4.698   4.468   5.389  0.2574  0.3680 -0.4252
   23MOL   C77523259   4.789   4.580   5.392 -0.2909 -0.1849  0.1596
   23MOL   C77623260   4.852   4.618   5.516  0.2101  0.0666  0.5904
   23MOL   N77723261   4.948   4.722   5.526 -0.5125 -0.2184  0.3003
   23MOL   C77823262   5.039   4.761   5.428  0.5120  0.0079  1.2001
   23MOL   C77923263   5.104   4.662   5.346  0.5038 -0.1173  0.0824
   23MOL   C78023264   5.199   4.708   5.253  0.0663  0.5302 -0.6507
   23MOL   C78123265   5.230   4.842   5.242 -0.0233 -1.1799  0.2482
   23MOL   N78223266   5.329   4.876   5.153  0.5326  0.0548 -0.0218
   23MOL   C78323267   5.379   5.000   5.113  0.0033 -0.6924 -0.0254
   23MOL   C78423268   5.516   5.020   5.111 -0.2464  0.1458 -0.2460
   23MOL   C78523269   5.571   5.146   5.083 -0.2392  0.6590  0.0840
   23MOL   C78623270   5.488   5.245   5.030  0.0634 -0.3587 -0.1679
   23MOL   C78723271   5.554   5.380   4.997  0.4574 -0.1124  0.1428
   23MOL   C78823272   5.348   5.225   5.027 -0.2129 -0.5330  0.6819
   23MOL   C78923273   5.294   5.103   5.073 -0.9014  0.1112 -0.1707
   23MOL   C79023274   5.156   4.936   5.319  0.1171  0.5971 -0.3351
   23MOL   C79123275   5.064   4.894   5.419  0.3179 -1.3686  0.6507
   23MOL   C79223276   4.821   4.546   5.632 -0.1292 -0.4868 -0.1675
   23MOL   C79323277   4.731   4.438   5.625  0.1918  0.3867  0.0658
   23MOL   C79423278   4.431   4.328   5.692 -0.0402  1.1697  0.0397
   23MOL   C79523279   4.361   4.270   5.803  0.0048  0.3072 -0.4574
   23MOL   H79623280   4.250   4.146   6.001 -1.9917 -0.9886  0.2846
   23MOL   H79723281   4.431   3.945   5.734  0.4402  0.6088  2.4967
   23MOL   H79823282   4.530   4.043   5.539  0.0661  0.7405 -0.8355
   23MOL   H79923283   4.564   4.249   5.405  0.7782 -0.2320 -0.6658
   23MOL   H80023284   4.656   4.442   5.293 -0.9837 -0.5465  0.3459
   23MOL   H80123285   4.803   4.642   5.305  0.3244  0.0734  0.4382
   23MOL   H80223286   4.938   4.797   5.593 -0.4637  0.3118 -0.2822
   23MOL   H80323287   5.075   4.559   5.360 -0.2383  0.3563  2.2116
   23MOL   H80423288   5.245   4.634   5.189  0.6574 -0.7372  1.1909
   23MOL   H80523289   5.387   4.795   5.136 -0.1165 -0.2787 -0.7073
   23MOL   H80623290   5.586   4.944   5.141 -0.5060  1.0032  2.6696
   23MOL   H80723291   5.677   5.164   5.091 -0.0071 -0.5610 -0.0783
   23MOL   H80823292   5.658   5.391   5.028  0.5350  1.0465 -0.5157
   23MOL   H80923293   5.500   5.453   5.057 -1.3707  0.4894 -2.1399
   23MOL   H81023294   5.284   5.309   5.006 -0.9402 -1.0133  0.9391
   23MOL   H81123295   5.188   5.084   5.073 -1.2007  1.1362  4.1141
   23MOL   H81223296   5.184   5.040   5.304  1.4963  0.1626 -0.8156
   23MOL   H81323297   5.014   4.965   5.483 -1.8110 -1.5063 -0.8108
   23MOL   H81423298   4.877   4.570   5.722  0.1348  0.1627 -0.5073
   23MOL   H81523299   4.703   4.387   5.716  1.0896  1.0657  0.7300
   23MOL   H81623300   4.425   4.435   5.682 -1.3923  0.8827 -2.5301
   23MOL   H81723301   4.306   4.342   5.862  1.7054  0.4669  0.9722
   23MOL   N81823302   5.532   5.450   4.874  0.0649  0.7473 -0.4040
   23MOL   C81923303   5.642   5.488   4.799  0.7400 -0.0964 -0.1627
   23MOL   C82023304   5.641   5.602   4.720  0.5253  0.9632  0.1590
   23MOL   C82123305   5.756   5.626   4.635 -0.1264  0.5700 -0.5584
   23MOL   C82223306   5.863   5.535   4.624 -0.4820  0.3101  0.3025
   23MOL   N82323307   5.972   5.564   4.539  0.3883  0.2980  0.2851
   23MOL   C82423308   6.094   5.501   4.540  0.4221 -0.2809  0.6468
   23MOL   C82523309   6.104   5.374   4.482  0.6706  0.3391 -0.0102
   23MOL   C82623310   6.230   5.318   4.465 -0.2889 -0.0788 -0.6296
   23MOL   C82723311   6.343   5.390   4.506  0.0162  0.3517  0.6258
   23MOL   N82823312   6.468   5.330   4.488  0.4179 -0.3068  0.1713
   23MOL   C82923313   6.586   5.400   4.445  0.0578 -0.4460 -0.3114
   23MOL   C83023314   6.589   5.526   4.384  0.2920 -1.7816  0.1471
   23MOL   C83123315   6.708   5.582   4.344  0.5615 -0.0939  0.0151
   23MOL   C83223316   6.832   5.514   4.362  0.4102 -0.2000  0.1461
   23MOL   N83323317   6.961   5.551   4.313 -0.1805 -0.1576 -0.5094
   23MOL   C83423318   7.025   5.667   4.344 -0.3801 -0.3452  0.1359
   23MOL   C83523319   6.964   5.780   4.400  0.3209 -0.1506 -0.9474
   23MOL   C83623320   7.031   5.901   4.424  0.9276 -0.1557  0.3212
   23MOL   C83723321   7.170   5.908   4.384  0.5894  0.5405  0.2637
   23MOL   C83823322   7.252   6.031   4.405 -0.0431 -0.1636  0.3210
   23MOL   C83923323   7.226   5.798   4.317  0.1465  0.3617  0.6577
   23MOL   C84023324   7.153   5.678   4.303 -1.0130 -0.0052 -0.5653
   23MOL   C84123325   6.836   5.390   4.423 -0.0393 -0.7833  0.1677
   23MOL   C84223326   6.712   5.333   4.461  0.4154  0.8684 -0.3906
   23MOL   C84323327   6.327   5.520   4.570 -0.4883  0.3560 -0.0964
   23MOL   C84423328   6.201   5.579   4.591  0.8373  0.1802  0.0792
   23MOL   C84523329   5.868   5.432   4.712  0.1304 -0.8185 -0.9324
   23MOL   C84623330   5.757   5.406   4.801  0.7059  0.5306  0.6906
   23MOL   H84723331   5.448   5.506   4.867  0.9103  2.0146 -0.5725
   23MOL   H84823332   5.560   5.673   4.728 -0.3739 -0.1172  0.7979
   23MOL   H84923333   5.753   5.716   4.576 -1.8500 -0.0175 -1.3935
   23MOL   H85023334   5.976   5.652   4.489  0.9286 -0.2024 -0.5619
   23MOL   H85123335   6.021   5.317   4.443  2.8476 -1.8111 -1.5900
   23MOL   H85223336   6.230   5.219   4.423  0.0573 -0.8999  1.2442
   23MOL   H85323337   6.474   5.229   4.484  0.4222 -0.2347 -2.2758
   23MOL   H85423338   6.505   5.595   4.381  1.4559 -0.3258  0.2853
   23MOL   H85523339   6.699   5.680   4.300 -0.4430  0.3195  1.1172
   23MOL   H85623340   7.023   5.473   4.299 -0.5264 -0.1293 -2.3109
   23MOL   H85723341   6.861   5.791   4.433  0.1992  0.0202 -1.3865
   23MOL   H85823342   6.992   5.983   4.481  0.0672 -0.1778 -0.2198
   23MOL   H85923343   7.208   6.105   4.472  1.5204  0.7340  0.3879
   23MOL   H86023344   7.254   6.087   4.311 -2.4416  2.4193  1.7424
   23MOL   H86123345   7.326   5.797   4.277 -0.0299 -0.3501  0.2194
   23MOL   H86223346   7.189   5.587   4.257 -0.0211 -1.3464  2.7131
   23MOL   H86323347   6.929   5.340   4.444  0.6146  0.9677  1.5831
   23MOL   H86423348   6.712   5.238   4.513  0.7747  1.3523  0.5229
   23MOL   H86523349   6.415   5.576   4.600 -0.0855  0.4588 -1.4217
   23MOL   H86623350   6.186   5.673   4.642 -0.4480  0.4467 -0.7458
   23MOL   H86723351   5.954   5.366   4.716  2.0903  1.6646 -1.1096
   23MOL   H86823352   5.765   5.312   4.854  1.3464  1.2761  1.9512
   23MOL   N86923353   7.395   6.009   4.439 -0.5200  1.0264 -0.3958
   23MOL   C87023354   7.505   6.004   4.354 -0.0772 -0.6107 -0.8003
   23MOL   C87123355   7.497   6.075   4.230 -0.5059  0.0375  0.1418
   23MOL   C87223356   7.610   6.071   4.143  0.0968 -0.8687 -0.0268
   23MOL   C87323357   7.733   6.021   4.185  0.5861  0.2185  0.4421
   23MOL   N87423358   7.845   6.021   4.102 -0.1532 -0.3532 -0.3595
   23MOL   C87523359   7.854   6.025   3.965  0.5293 -0.0720 -0.0346
   23MOL   C87623360   7.766   5.969   3.872  0.1526 -0.5240 -0.2871
   23MOL   C87723361   7.797   5.974   3.736 -0.6592 -0.0025  0.2956
   23MOL   C87823362   7.916   6.030   3.687 -0.1001 -0.2118  0.5013
   23MOL   N87923363   7.940   6.023   3.550  0.2037  0.1834 -0.8487
   23MOL   C88023364   0.037   5.913   3.505 -0.3520 -0.8514  0.4933
   23MOL   C88123365   0.079   5.914   3.371 -0.3477 -0.0745 -0.6778
   23MOL   C88223366   0.175   5.818   3.329 -0.2559  0.3145 -0.7640
   23MOL   C88323367   0.218   5.717   3.413  0.4987  0.1160 -0.4341
   23MOL   N88423368   0.316   5.628   3.381  0.6441 -0.4377 -0.0501
   23MOL   C88523369   0.414   5.642   3.282 -0.1571  0.5630  0.6073
   23MOL   C88623370   0.434   5.536   3.191  0.5158  0.0982 -0.6770
   23MOL   C88723371   0.532   5.543   3.093 -0.5693  0.1844  0.0447
   23MOL   C88823372   0.607   5.658   3.083  0.3800  0.4559 -0.0412
   23MOL   C88923373   0.691   5.682   2.961  0.6812  0.4134 -0.6884
   23MOL   C89023374   0.580   5.763   3.170  0.1203 -0.1966 -0.5413
   23MOL   C89123375   0.488   5.757   3.272  0.1426 -0.5632 -0.1987
   23MOL   C89223376   0.165   5.706   3.547  0.3863 -0.6276  0.9192
   23MOL   C89323377   0.084   5.812   3.590 -0.1376  0.0120 -0.9924
   23MOL   C89423378   0.019   6.091   3.779 -0.5000 -0.2902 -0.7348
   23MOL   C89523379   7.973   6.085   3.914 -0.3439 -0.0608  0.1756
   23MOL   C89623380   7.734   5.950   4.309 -0.2403 -0.1724  0.2787
   23MOL   C89723381   7.621   5.936   4.390  0.4310  0.3938  0.3584
   23MOL   H89823382   7.421   5.970   4.528  1.3083  0.0471 -1.3197
   23MOL   H89923383   7.407   6.128   4.202 -0.5987 -1.0810 -1.7486
   23MOL   H90023384   7.598   6.125   4.050 -0.5680 -1.6991 -0.4255
   23MOL   H90123385   7.932   6.004   4.151 -0.4188  0.2894  0.3393
   23MOL   H90223386   7.675   5.920   3.903 -1.2341  0.7904 -2.2142
   23MOL   H90323387   7.725   5.936   3.665 -0.0615 -0.8491  0.1301
   23MOL   H90423388   7.895   6.079   3.479 -1.3713  1.7316  1.2986
   23MOL   H90523389   0.044   5.992   3.305 -1.3547  0.1760  0.1189
   23MOL   H90623390   0.210   5.816   3.226 -1.0437  0.2102 -1.0323
   23MOL   H90723391   0.301   5.546   3.438 -2.0390  0.2221  0.2544
   23MOL   H90823392   0.367   5.452   3.188 -1.4953  1.4781  2.6371
   23MOL   H90923393   0.554   5.468   3.019 -0.6964  0.9942 -0.8267
   23MOL   H91023394   0.633   5.702   2.871  0.9889  1.1853 -0.7144
   23MOL   H91123395   0.750   5.591   2.951  1.0314  0.4546  0.9102
   23MOL   H91223396   0.627   5.860   3.155  2.3543 -1.5068 -2.2454
   23MOL   H91323397   0.464   5.850   3.322 -3.2794 -0.1597 -2.4241
   23MOL   H91423398   0.204   5.624   3.606  2.6435  0.6241  1.2162
   23MOL   H91523399   0.054   5.807   3.694 -0.3220  1.5020 -0.9701
   23MOL   H91623400   0.104   6.152   3.752 -2.3438  1.2017 -3.3810
   23MOL   H91723401   0.065   6.125   3.982  0.3414  0.6066 -0.9420
   23MOL   H91823402   7.824   5.909   4.353 -0.8209 -0.3354  1.3519
   23MOL   H91923403   7.617   5.882   4.483 -1.0021 -1.6406 -0.8277
   23MOL   N92023404   0.792   5.785   2.963 -0.2979 -0.8639 -0.0729
   23MOL   C92123405   0.897   5.789   3.060  0.5350  0.1591  0.7208
   23MOL   C92223406   0.916   5.691   3.165 -0.2847 -0.3336 -0.0214
   23MOL   C92323407   1.012   5.707   3.269 -0.4627  0.2205  0.0472
   23MOL   C92423408   1.096   5.816   3.274  0.2959  0.1190 -0.7024
   23MOL   N92523409   1.189   5.841   3.378 -0.2842  0.0568 -0.3533
   23MOL   C92623410   1.282   5.746   3.437 -0.3029  0.2635  0.4840
   23MOL   C92723411   1.372   5.796   3.534  0.1391 -1.0988 -0.5834
   23MOL   C92823412   1.470   5.708   3.585 -0.0099  0.5206  0.0345
   23MOL   C92923413   1.478   5.573   3.544 -0.0899  0.2958 -0.4581
   23MOL   N93023414   1.569   5.484   3.603  0.1005  0.6573 -0.5760
   23MOL   C93123415   1.625   5.506   3.731 -0.7858  0.3199  0.2131
   23MOL   C93223416   1.764   5.490   3.750  0.6735 -0.2217  0.1331
   23MOL   C93323417   1.824   5.519   3.871 -0.0906  0.4768 -0.6935
   23MOL   C93423418   1.749   5.545   3.981  0.4718 -0.2471 -0.5056
   23MOL   N93523419   1.817   5.573   4.101 -0.4046  0.2395  0.5244
   23MOL   C93623420   1.944   5.534   4.146  0.4803 -0.4638  0.5755
   23MOL   C93723421   2.039   5.633   4.177 -0.4168  0.1504  0.5306
   23MOL   C93823422   2.161   5.602   4.237 -0.5459 -0.3828 -0.1075
   23MOL   C93923423   2.188   5.465   4.260 -0.1034  0.8078 -0.0506
   23MOL   C94023424   2.316   5.424   4.333 -0.3057  0.1453 -0.7404
   23MOL   C94123425   2.096   5.368   4.234  0.1240  0.4318  0.4702
   23MOL   C94223426   1.970   5.403   4.182 -0.0473  0.1542  0.0813
   23MOL   C94323427   1.614   5.560   3.961 -0.5729 -0.3625 -0.8829
   23MOL   C94423428   1.550   5.532   3.845  0.5947 -0.5144 -0.4147
   23MOL   C94523429   1.385   5.528   3.449 -0.0229  0.4515  0.4972
   23MOL   C94623430   1.283   5.611   3.398 -0.0684  0.3219 -0.0677
   23MOL   C94723431   1.087   5.914   3.169  0.4528  0.2652 -0.0601
   23MOL   C94823432   0.984   5.906   3.063  0.5312 -0.6995 -0.3940
   23MOL   H94923433   0.819   5.827   2.875 -1.0249 -1.7094 -0.7161
   23MOL   H95023434   0.857   5.602   3.153 -0.2158 -0.3705 -0.0834
   23MOL   H95123435   1.025   5.632   3.346 -1.4855 -0.8967 -0.8593
   23MOL   H95223436   1.213   5.938   3.393  2.0409 -0.7610  1.6049
   23MOL   H95323437   1.369   5.900   3.562 -0.6603 -1.3191  0.1797
   23MOL   H95423438   1.548   5.744   3.650  0.3607  3.5115 -1.9835
   23MOL   H95523439   1.535   5.391   3.585 -2.6230  1.7708 -1.4281
   23MOL   H95623440   1.823   5.455   3.666 -0.7644  0.4212 -1.1750
   23MOL   H95723441   1.932   5.515   3.878 -0.2150  1.3258  2.2057
   23MOL   H95823442   1.790   5.665   4.134 -0.7478 -0.4429  2.1745
   23MOL   H95923443   2.009   5.736   4.163 -1.7887 -0.4461 -1.1181
   23MOL   H96023444   2.235   5.673   4.271  2.2130 -2.8135 -0.8089
   23MOL   H96123445   2.320   5.316   4.347  1.1643  0.3049  0.1159
   23MOL   H96223446   2.319   5.473   4.431  1.4942 -0.2855 -0.5667
   23MOL   H96323447   2.109   5.265   4.262 -1.7212 -0.1332 -0.6501
   23MOL   H96423448   1.890   5.332   4.166  0.4486 -0.5912  0.8566
   23MOL   H96523449   1.547   5.582   4.043  0.5542 -1.3573  0.3096
   23MOL   H96623450   1.445   5.553   3.832  0.9322  1.5037 -0.0494
   23MOL   H96723451   1.384   5.425   3.415 -1.3193 -0.3406  2.8130
   23MOL   H96823452   1.219   5.570   3.322 -2.5036 -0.1259  2.1555
   23MOL   H96923453   1.160   5.994   3.162  0.9639 -0.3824 -2.7352
   23MOL   H97023454   0.967   5.975   2.983 -0.3739  0.5439  0.8452
   23MOL   N97123455   2.431   5.462   4.262  0.2819  0.2041  0.4321
   23MOL   C97223456   2.537   5.516   4.333 -0.9756 -0.5226 -0.0017
   23MOL   C97323457   2.600   5.616   4.258 -0.2382 -0.4584  0.2084
   23MOL   C97423458   2.714   5.686   4.302  0.4577  0.2200 -0.6191
   23MOL   C97523459   2.769   5.649   4.423 -0.7024  0.2133 -0.5335
   23MOL   N97623460   2.873   5.723   4.482  0.5838  0.7268 -0.1446
   23MOL   C97723461   2.953   5.822   4.424  1.0574 -0.7177  0.3261
   23MOL   C97823462   3.038   5.800   4.314 -0.5710  0.3270 -0.5980
   23MOL   C97923463   3.105   5.906   4.252  0.4462 -0.4965  0.5060
   23MOL   C98023464   3.098   6.033   4.304  0.2843 -0.3153 -0.1903
   23MOL   N98123465   3.169   6.130   4.234 -0.2158 -0.4767 -0.2363
   23MOL   C98223466   3.208   6.261   4.280  0.2819  0.1525 -0.1366
   23MOL   C98323467   3.249   6.353   4.174  1.0895 -0.2253 -0.1739
   23MOL   C98423468   3.292   6.481   4.204  0.2930 -0.3143 -0.0832
   23MOL   C98523469   3.316   6.524   4.336  0.0541 -0.0294 -0.1961
   23MOL   N98623470   3.367   6.652   4.355 -0.0822  0.6710 -0.5388
   23MOL   C98723471   3.364   6.735   4.470 -0.5810  0.5808  0.2748
   23MOL   C98823472   3.247   6.740   4.555  0.6444  0.3702  0.2490
   23MOL   C98923473   3.236   6.826   4.663  0.1538  0.0405 -0.3127
   23MOL   C99023474   3.340   6.919   4.688  0.0581 -0.5249  0.4617
   23MOL   C99123475   3.341   7.000   4.813  0.4536 -0.5610 -0.2497
   23MOL   C99223476   3.458   6.923   4.603 -0.4601 -0.9444  0.5003
   23MOL   C99323477   3.462   6.832   4.493 -0.4811  0.3466  0.4554
   23MOL   C99423478   3.274   6.437   4.443 -0.2075  0.3871  0.3417
   23MOL   C99523479   3.228   6.304   4.413 -0.6129  0.3457 -0.7261
   23MOL   C99623480   3.018   6.061   4.415 -0.1189 -0.0000  0.4735
   23MOL   C99723481   2.947   5.952   4.473 -0.1477 -0.0106 -0.3364
   23MOL   C99823482   2.722   5.536   4.487  0.2003  0.9115  0.1225
   23MOL   C99923483   2.605   5.469   4.443  0.2056  0.2316  0.8569
   23MOL     H123484   2.420   5.499   4.168  0.6084 -0.8631 -0.0401
   23MOL     H223485   2.565   5.639   4.158  2.3974 -1.4439 -0.9743
   23MOL     H323486   2.753   5.767   4.243  0.5241  0.0666 -0.7857
   23MOL     H423487   2.854   5.720   4.581  1.2397  2.0446  0.0354
   23MOL     H523488   3.051   5.701   4.273 -1.2925  0.0941 -0.2757
   23MOL     H623489   3.166   5.886   4.165 -0.9510 -0.8365 -0.4033
   23MOL     H723490   3.188   6.104   4.138 -0.7947  0.5105 -0.6346
   23MOL     H823491   3.244   6.328   4.069  2.0793 -1.7480  0.1179
   23MOL     H923492   3.326   6.540   4.120  0.2458 -0.4134 -0.1703
   23MOL    H1023493   3.383   6.704   4.270 -0.2285  0.4784 -0.6851
   23MOL    H1123494   3.160   6.683   4.528  0.7680 -0.6140  1.8657
   23MOL    H1223495   3.139   6.836   4.708 -0.2564  0.1729 -1.2015
   23MOL    H1323496   3.369   6.944   4.902  2.2036 -1.4091 -1.3106
   23MOL    H1423497   3.236   7.028   4.827  1.2988  2.4961  0.1797
   23MOL    H1523498   3.538   6.989   4.630 -1.6543  0.6521  0.1994
   23MOL    H1623499   3.546   6.846   4.426 -0.4150 -0.8784  0.2732
   23MOL    H1723500   3.284   6.472   4.544 -2.1043  0.2271  0.6102
   23MOL    H1823501   3.214   6.246   4.503  3.4986  0.9733  0.4182
   23MOL    H1923502   3.011   6.160   4.458  1.7865  0.7308 -0.8036
   23MOL    H2023503   2.898   5.981   4.564  2.6362  2.3906  0.4694
   23MOL    H2123504   2.766   5.507   4.581  1.5983 -0.7625 -1.0080
   23MOL    H2223505   2.576   5.381   4.498  2.3734 -1.9402 -1.3097
   23MOL    H2323506   3.407   7.086   4.820  0.7618 -0.8657  0.6337
   24MOL     N123507   1.103   6.056   1.138 -0.3654  0.1828  0.1934
   24MOL     C223508   1.205   6.063   1.234  0.0139  0.2295 -0.4423
   24MOL     C323509   1.171   6.047   1.375 -0.0486 -0.0706  0.6866
   24MOL     C423510   1.273   6.047   1.469  0.4544  0.0583  0.3509
   24MOL     C523511   1.406   6.054   1.432 -0.2051  0.3369 -0.5381
   24MOL     N623512   1.505   6.056   1.530  0.8112 -0.4159  0.5818
   24MOL     C723513   1.633   5.999   1.530 -0.1825 -0.2312  0.0227
   24MOL     C823514   1.668   5.893   1.443  0.4380  0.2871 -0.3174
   24MOL     C923515   1.789   5.819   1.457 -0.4937 -0.4239 -0.3933
   24MOL    C1023516   1.879   5.858   1.557  0.5207  0.0577 -0.4474
   24MOL    N1123517   2.001   5.793   1.586 -0.3806 -0.2818 -0.1482
   24MOL    C1223518   2.041   5.674   1.524  0.8842  0.2617 -0.3566
   24MOL    C1323519   1.956   5.563   1.504  0.2302  0.0894 -0.0605
   24MOL    C1423520   2.010   5.445   1.458  0.8496  0.4134  0.3726
   24MOL    C1523521   2.146   5.441   1.421  0.3875  0.0540 -0.0433
   24MOL    N1623522   2.199   5.316   1.372  0.5346 -0.8187 -0.2614
   24MOL    C1723523   2.319   5.292   1.301  0.1582 -0.2259  0.5042
   24MOL    C1823524   2.378   5.383   1.215  0.0850  0.4057 -0.0678
   24MOL    C1923525   2.489   5.344   1.141  0.2801 -0.1334 -1.0897
   24MOL    C2023526   2.540   5.213   1.147  0.2375 -0.0183 -0.2094
   24MOL    C2123527   2.646   5.171   1.046  0.2385  0.3028 -0.2753
   24MOL    C2223528   2.486   5.119   1.232 -0.4241  0.2812 -0.3482
   24MOL    C2323529   2.378   5.159   1.305  0.3270  0.0713 -0.2470
   24MOL    C2423530   2.228   5.548   1.436  0.1046  0.0904 -0.0497
   24MOL    C2523531   2.183   5.664   1.496  0.2927  0.1328  0.0596
   24MOL    C2623532   1.854   5.974   1.634  0.7489 -0.1363  0.2739
   24MOL    C2723533   1.734   6.047   1.615  0.4324 -0.0062  0.0220
   24MOL    C2823534   1.440   6.082   1.299  0.3134 -0.0198 -0.2076
   24MOL    C2923535   1.337   6.077   1.201  0.6731 -0.8977  0.0364
   24MOL    H3023536   1.118   6.064   1.038  1.6063  0.0933  0.4612
   24MOL    H3123537   1.065   6.051   1.395  0.2030  1.9721  1.6974
   24MOL    H3223538   1.232   6.059   1.568 -1.1905 -3.3731  0.1810
   24MOL    H3323539   1.490   6.087   1.625 -0.6877  1.2126 -0.1553
   24MOL    H3423540   1.598   5.851   1.372  0.2526  2.4246 -1.4538
   24MOL    H3523541   1.802   5.729   1.398 -1.9770 -1.1095  0.2763
   24MOL    H3623542   2.062   5.833   1.655  0.5884  0.0461 -1.1886
   24MOL    H3723543   1.851   5.566   1.526  0.1386 -0.2960 -0.4465
   24MOL    H3823544   1.941   5.364   1.438  1.4206  0.5636 -2.4445
   24MOL    H3923545   2.169   5.234   1.422 -0.3429 -0.5168 -0.2820
   24MOL    H4023546   2.325   5.476   1.198 -1.7107 -0.6557 -0.2805
   24MOL    H4123547   2.529   5.415   1.071  1.9457 -0.1234 -0.1658
   24MOL    H4223548   2.664   5.068   1.076  3.5231  0.5212 -1.3348
   24MOL    H4323549   2.738   5.229   1.052 -0.3043  0.9219  3.0742
   24MOL    H4423550   2.516   5.016   1.243  0.3392  0.5582  0.2206
   24MOL    H4523551   2.340   5.089   1.378 -0.3410  0.0134 -0.6430
   24MOL    H4623552   2.330   5.551   1.401  0.0273  1.6337 -0.1839
   24MOL    H4723553   2.259   5.739   1.514  0.3167  0.4619 -1.3512
   24MOL    H4823554   1.924   5.998   1.713 -1.8689 -0.3190  2.7510
   24MOL    H4923555   1.715   6.140   1.667  1.2226 -1.0542  2.2194
   24MOL    H5023556   1.543   6.088   1.266  0.3589  3.2311  0.2934
   24MOL    H5123557   1.364   6.097   1.099  1.1809  0.0370  0.3444
   24MOL    H5223558   1.008   6.041   1.168 -0.1736 -1.4181  0.0226
   24MOL    N5323559   2.583   5.183   0.918  0.0524  0.0858 -0.2170
   24MOL    C5423560   2.651   5.236   0.803  0.6441 -0.0224 -0.1003
   24MOL    C5523561   2.789   5.224   0.776  0.0530 -0.3151  0.3533
   24MOL    C5623562   2.844   5.276   0.661  0.0554  1.0656 -0.4682
   24MOL    C5723563   2.756   5.328   0.563 -0.0451 -0.1238  0.1741
   24MOL    N5823564   2.810   5.370   0.441  0.5849  0.4453 -0.2163
   24MOL    C5923565   2.760   5.342   0.315 -0.7343  0.7117 -0.4535
   24MOL    C6023566   2.663   5.244   0.288 -0.0843  0.4227  0.4364
   24MOL    C6123567   2.616   5.225   0.159 -0.0742 -0.2259 -0.3363
   24MOL    C6223568   2.663   5.303   0.055  0.0403  0.1928 -0.3664
   24MOL    N6323569   2.615   5.282   7.910  0.2156  1.2744  0.3223
   24MOL    C6423570   2.615   5.372   7.810  0.2884  0.3780  0.8890
   24MOL    C6523571   2.657   5.339   7.684 -0.8341  0.0698 -0.1844
   24MOL    C6623572   2.664   5.436   7.586  0.3165  0.2460  0.3687
   24MOL    C6723573   2.625   5.569   7.610  0.7223  0.4227 -0.3445
   24MOL    N6823574   2.663   5.671   7.521 -0.7077  0.3672  0.7671
   24MOL    C6923575   2.650   5.663   7.382  0.0504 -0.1375 -0.4137
   24MOL    C7023576   2.724   5.751   7.304  0.0621 -0.1363 -0.0020
   24MOL    C7123577   2.716   5.744   7.163  0.0904 -0.0937  0.0514
   24MOL    C7223578   2.621   5.657   7.105 -0.5822 -0.0194 -0.2886
   24MOL    C7323579   2.585   5.671   6.957 -0.9195  0.0530  0.0600
   24MOL    C7423580   2.550   5.569   7.184 -0.2503  0.6971 -1.3701
   24MOL    C7523581   2.555   5.578   7.327 -0.0098  0.5974  0.2979
   24MOL    C7623582   2.567   5.604   7.733  0.0838 -0.0710  1.2318
   24MOL    C7723583   2.570   5.504   7.836  0.2656 -0.5326  0.2041
   24MOL    C7823584   2.759   5.403   0.078  0.1818 -0.1713  0.0887
   24MOL    C7923585   2.807   5.420   0.205 -0.9031 -0.5322 -0.6867
   24MOL    C8023586   2.615   5.337   0.587  0.6285  0.2371 -0.6475
   24MOL    C8123587   2.566   5.297   0.708  0.4980 -0.0809 -0.6134
   24MOL    H8223588   2.483   5.181   0.935  0.0711 -0.6525 -0.1699
   24MOL    H8323589   2.847   5.178   0.855  1.0793 -1.3910 -0.9893
   24MOL    H8423590   2.947   5.253   0.637  0.0885  0.9647 -0.2328
   24MOL    H8523591   2.903   5.403   0.461 -0.2354  3.4234 -1.0377
   24MOL    H8623592   2.622   5.191   0.373 -2.2742  0.8039 -0.3502
   24MOL    H8723593   2.547   5.143   0.147  0.0014 -0.4118  0.5039
   24MOL    H8823594   2.608   5.184   7.886  0.1742  1.2162  0.5742
   24MOL    H8923595   2.688   5.237   7.664 -1.5974 -0.0053 -0.9823
   24MOL    H9023596   2.694   5.414   7.485 -0.3148  0.4563  0.1308
   24MOL    H9123597   2.681   5.764   7.556  0.6753 -0.0090  1.0636
   24MOL    H9223598   2.788   5.829   7.342  1.7233 -1.5542  0.1667
   24MOL    H9323599   2.771   5.816   7.105 -1.9573 -0.2041 -2.0790
   24MOL    H9423600   2.632   5.586   6.907  0.2668 -0.1567  1.4951
   24MOL    H9523601   2.633   5.758   6.911  0.0229 -0.8986 -0.7799
   24MOL    H9623602   2.476   5.502   7.143 -0.0316 -0.7572  0.5123
   24MOL    H9723603   2.486   5.517   7.383 -1.6737  0.9448 -1.3106
   24MOL    H9823604   2.548   5.709   7.749  0.7729  0.1558  0.5563
   24MOL    H9923605   2.530   5.537   7.931  1.5173  0.9969  0.1975
   24MOL   H10023606   2.796   5.461   7.978 -1.1682  2.1280  1.0418
   24MOL   H10123607   2.878   5.500   0.225 -1.8342  0.0189  0.5116
   24MOL   H10223608   2.548   5.381   0.514  1.2190 -1.3035 -2.1384
   24MOL   H10323609   2.461   5.305   0.734  0.5315  1.5012 -0.8810
   24MOL   N10423610   2.443   5.677   6.938 -0.0074  0.4333 -0.3216
   24MOL   C10523611   2.389   5.686   6.806 -0.0524  1.0187  1.1640
   24MOL   C10623612   2.459   5.742   6.700 -0.0739  0.1882 -0.3429
   24MOL   C10723613   2.407   5.745   6.573 -0.6068  0.3289  0.0017
   24MOL   C10823614   2.282   5.685   6.545 -0.1511 -0.9915  0.5059
   24MOL   N10923615   2.233   5.696   6.414  0.2093  0.3450  0.0042
   24MOL   C11023616   2.315   5.680   6.298  0.4537 -0.3802  0.0320
   24MOL   C11123617   2.403   5.576   6.290  0.2384  1.0415  1.0378
   24MOL   C11223618   2.484   5.560   6.173 -0.1845 -0.4648 -0.5442
   24MOL   C11323619   2.465   5.642   6.066  0.4817 -0.9111  0.2549
   24MOL   N11423620   2.541   5.632   5.950  0.5329  0.3491  0.7590
   24MOL   C11523621   2.586   5.513   5.894  0.4335  0.1447  0.0085
   24MOL   C11623622   2.700   5.514   5.821 -0.4816  0.7472  0.1847
   24MOL   C11723623   2.749   5.397   5.762  0.4803  0.5013 -0.0614
   24MOL   C11823624   2.663   5.283   5.762 -0.0325  0.0092 -0.1231
   24MOL   N11923625   2.706   5.166   5.695 -0.5162 -0.4516  0.1172
   24MOL   C12023626   2.833   5.105   5.682  0.1055 -0.1787  1.0591
   24MOL   C12123627   2.910   5.119   5.570  0.3368 -0.4095  0.4298
   24MOL   C12223628   3.031   5.052   5.559  0.2374  0.7148  0.1019
   24MOL   C12323629   3.083   4.981   5.669  0.1243  0.3081 -0.4818
   24MOL   C12423630   3.223   4.915   5.655  0.1337 -1.2074 -0.3560
   24MOL   C12523631   3.015   4.986   5.794 -0.3037  0.0040  0.1200
   24MOL   C12623632   2.891   5.052   5.799 -0.1326 -0.3845 -0.1964
   24MOL   C12723633   2.549   5.275   5.840  0.4823  0.4082 -0.3249
   24MOL   C12823634   2.507   5.396   5.902  0.5946 -0.0631 -1.1438
   24MOL   C12923635   2.373   5.752   6.077 -0.1301  0.6831  0.1728
   24MOL   C13023636   2.290   5.765   6.192 -0.2226  0.1835  0.2780
   24MOL   C13123637   2.214   5.624   6.650  0.6192 -0.2954  0.2292
   24MOL   C13223638   2.265   5.622   6.780  0.0461  0.3281  0.3593
   24MOL   H13323639   2.392   5.677   7.026 -0.8674  1.9906 -0.8009
   24MOL   H13423640   2.559   5.778   6.716  0.1715 -1.1005  1.2262
   24MOL   H13523641   2.467   5.783   6.493 -1.2899  1.7366  0.1423
   24MOL   H13623642   2.133   5.689   6.400  0.4454 -1.1424 -1.0907
   24MOL   H13723643   2.415   5.511   6.376  0.7671  0.8583  0.8282
   24MOL   H13823644   2.553   5.477   6.174 -0.8878 -1.0639 -0.8690
   24MOL   H13923645   2.562   5.716   5.898  0.0822  0.1561  0.2694
   24MOL   H14023646   2.760   5.603   5.807  1.9506 -0.9103 -0.2885
   24MOL   H14123647   2.843   5.393   5.708  0.5759 -0.2888  0.1629
   24MOL   H14223648   2.647   5.088   5.721  0.5427 -1.0494  0.7610
   24MOL   H14323649   2.871   5.164   5.480 -2.1280 -0.4519  1.4402
   24MOL   H14423650   3.091   5.043   5.470 -0.7062  0.8768 -0.5621
   24MOL   H14523651   3.301   4.985   5.685 -0.9933 -0.0268 -0.1338
   24MOL   H14623652   3.239   4.915   5.548 -1.4863 -0.9962 -0.6161
   24MOL   H14723653   3.047   4.928   5.880 -0.2718  2.6356  1.9239
   24MOL   H14823654   2.838   5.053   5.893  0.6743  0.3118  0.2480
   24MOL   H14923655   2.497   5.182   5.856 -0.0886  0.4966 -1.6101
   24MOL   H15023656   2.421   5.380   5.967  1.7691 -1.8594 -0.0095
   24MOL   H15123657   2.347   5.813   5.993  1.1299 -0.0058 -0.7327
   24MOL   H15223658   2.229   5.853   6.209  1.5162  1.2940  0.9999
   24MOL   H15323659   2.118   5.579   6.626  0.9367  1.1672 -4.4175
   24MOL   H15423660   2.220   5.558   6.854  0.2831 -0.5070 -0.2167
   24MOL   N15523661   3.225   4.785   5.713 -0.8142  0.6106  0.4886
   24MOL   C15623662   3.340   4.704   5.692 -0.2789 -0.2745 -0.3979
   24MOL   C15723663   3.471   4.753   5.679 -0.5821 -0.2846 -0.9213
   24MOL   C15823664   3.581   4.670   5.661 -0.7860  0.0058  0.6743
   24MOL   C15923665   3.568   4.531   5.658 -0.3617 -0.2690 -0.0928
   24MOL   N16023666   3.671   4.438   5.664 -0.0580  0.3480 -0.0680
   24MOL   C16123667   3.808   4.469   5.635  0.3709 -0.4192  0.3740
   24MOL   C16223668   3.908   4.410   5.717  0.1545  0.3213  0.5843
   24MOL   C16323669   4.038   4.423   5.690 -0.1914 -0.2914 -0.6227
   24MOL   C16423670   4.077   4.518   5.596 -0.3100 -0.8345  0.1865
   24MOL   N16523671   4.215   4.534   5.579  0.3311  1.2119 -0.1712
   24MOL   C16623672   4.284   4.651   5.573  0.2484 -0.7051  0.3729
   24MOL   C16723673   4.235   4.770   5.627 -0.0345  0.0764  0.0739
   24MOL   C16823674   4.314   4.888   5.632 -0.5444  0.0913  0.2014
   24MOL   C16923675   4.439   4.884   5.571  0.4516  0.5097  0.6144
   24MOL   N17023676   4.532   4.988   5.573 -0.3196  0.1842 -0.1337
   24MOL   C17123677   4.541   5.097   5.666  0.3891  0.6696 -0.6672
   24MOL   C17223678   4.590   5.223   5.621  0.8119  0.8699 -0.5118
   24MOL   C17323679   4.601   5.331   5.705  0.1044 -0.0148  0.1505
   24MOL   C17423680   4.583   5.309   5.842  0.6396 -0.0747 -0.2745
   24MOL   C17523681   4.631   5.413   5.943  0.6549 -0.0677 -0.2369
   24MOL   C17623682   4.532   5.186   5.892 -0.1429  0.1258 -0.2686
   24MOL   C17723683   4.516   5.077   5.804  0.1335  0.0958  0.3289
   24MOL   C17823684   4.478   4.772   5.496  1.1009 -0.1094  0.0116
   24MOL   C17923685   4.407   4.652   5.509  0.6125 -0.2828  0.7950
   24MOL   C18023686   3.985   4.591   5.518  0.0601 -0.5311  0.1506
   24MOL   C18123687   3.850   4.558   5.527  0.6029  1.1604 -0.3680
   24MOL   C18223688   3.437   4.479   5.671  0.1014 -0.1730 -0.1861
   24MOL   C18323689   3.321   4.564   5.695 -0.7268  0.0297  0.6640
   24MOL   H18423690   3.135   4.738   5.713  0.5482 -2.0676 -0.9724
   24MOL   H18523691   3.468   4.861   5.690 -1.2544 -0.3469 -0.4626
   24MOL   H18623692   3.677   4.720   5.654  0.8451 -2.7343  2.6948
   24MOL   H18723693   3.637   4.356   5.712  2.6258 -2.3785 -2.6344
   24MOL   H18823694   3.888   4.332   5.790  0.2694 -0.9899 -0.7753
   24MOL   H18923695   4.114   4.358   5.730  0.3133  0.7495  0.1343
   24MOL   H19023696   4.270   4.449   5.576 -0.8869  0.3891  0.8015
   24MOL   H19123697   4.147   4.775   5.688  0.9065  2.5082  1.3131
   24MOL   H19223698   4.281   4.967   5.697 -0.8443  1.2618 -1.3351
   24MOL   H19323699   4.570   5.010   5.482 -0.4543 -0.8134 -0.4377
   24MOL   H19423700   4.633   5.232   5.522  0.4525 -1.6496 -0.9408
   24MOL   H19523701   4.637   5.426   5.669 -1.3681  1.2456  1.9585
   24MOL   H19623702   4.722   5.375   5.987  0.9790  0.5910 -0.3336
   24MOL   H19723703   4.555   5.423   6.020  0.8887  0.0942 -0.0292
   24MOL   H19823704   4.525   5.172   5.999  1.7765 -2.6117 -0.4260
   24MOL   H19923705   4.469   4.985   5.835 -0.9598  0.1971 -0.9822
   24MOL   H20023706   4.578   4.777   5.456  1.0369 -0.6566 -0.2164
   24MOL   H20123707   4.440   4.558   5.468  0.5441  0.3776 -0.8145
   24MOL   H20223708   4.014   4.657   5.438 -1.2068 -2.9900 -2.3985
   24MOL   H20323709   3.772   4.606   5.469  0.6890  0.9524 -0.6576
   24MOL   H20423710   3.422   4.372   5.667  1.0214 -0.3628  1.0724
   24MOL   H20523711   3.223   4.521   5.711 -0.3369 -1.6178 -1.2509
   24MOL   N20623712   4.643   5.549   5.887 -0.3457  0.1957  0.2206
   24MOL   C20723713   4.766   5.606   5.856 -0.2996  0.7123 -0.2139
   24MOL   C20823714   4.780   5.743   5.885  0.2280  0.6887  0.5711
   24MOL   C20923715   4.906   5.800   5.871 -0.1362 -0.7134  0.0842
   24MOL   C21023716   5.016   5.729   5.821 -0.5733  0.2658  1.0175
   24MOL   N21123717   5.149   5.779   5.809  0.4223 -0.8983 -0.3440
   24MOL   C21223718   5.197   5.904   5.831  0.6497 -0.0947  0.1863
   24MOL   C21323719   5.173   5.974   5.948 -0.5043 -0.0623  0.4347
   24MOL   C21423720   5.234   6.101   5.977  0.0821 -0.5067  0.3893
   24MOL   C21523721   5.331   6.147   5.881  0.2563  0.6517  0.1394
   24MOL   N21623722   5.397   6.267   5.899  0.6890 -0.1286 -0.4175
   24MOL   C21723723   5.344   6.372   5.975  0.1227  0.7127 -0.5245
   24MOL   C21823724   5.213   6.409   5.959  0.0709  0.1937 -0.6908
   24MOL   C21923725   5.163   6.519   6.036 -0.0615 -0.5189 -0.1018
   24MOL   C22023726   5.245   6.595   6.122  0.9314 -0.1699 -0.1624
   24MOL   N22123727   5.187   6.698   6.195 -0.1199  0.5589  0.2073
   24MOL   C22223728   5.221   6.746   6.314  0.3352 -0.7937 -0.6326
   24MOL   C22323729   5.286   6.667   6.413 -1.2744 -0.0670 -0.2314
   24MOL   C22423730   5.302   6.720   6.543  0.2025 -0.4114 -0.2438
   24MOL   C22523731   5.272   6.857   6.571  0.1042 -0.1586 -0.6914
   24MOL   C22623732   5.301   6.913   6.711 -0.4547 -0.3974  0.0166
   24MOL   C22723733   5.213   6.935   6.472 -0.6114 -1.0329 -0.1714
   24MOL   C22823734   5.180   6.875   6.348  0.3213  0.9596 -0.2930
   24MOL   C22923735   5.378   6.559   6.127 -0.2476  0.4946 -0.2070
   24MOL   C23023736   5.429   6.448   6.058  0.3348  0.0768 -0.1032
   24MOL   C23123737   5.355   6.074   5.765 -0.2698  0.1471 -0.4676
   24MOL   C23223738   5.297   5.948   5.741  0.5849 -0.4146 -0.0576
   24MOL   C23323739   4.993   5.596   5.787 -0.5688 -0.1310 -0.0758
   24MOL   C23423740   4.874   5.527   5.802 -0.6153 -0.0102  0.3721
   24MOL   H23523741   4.576   5.615   5.924 -3.6521 -1.7404 -2.0326
   24MOL   H23623742   4.690   5.801   5.904  1.0912  2.1437  0.2823
   24MOL   H23723743   4.917   5.903   5.902  0.8801 -0.6179 -0.5740
   24MOL   H23823744   5.214   5.709   5.774  1.2031 -0.9557  1.1894
   24MOL   H23923745   5.121   5.922   6.026  0.3020 -2.7026 -0.7301
   24MOL   H24023746   5.221   6.144   6.076 -0.2674  2.3906 -0.8550
   24MOL   H24123747   5.489   6.276   5.859  1.4853  2.1185  1.7937
   24MOL   H24223748   5.146   6.344   5.905 -1.3655  1.2830 -0.2698
   24MOL   H24323749   5.058   6.540   6.027 -0.5873 -3.2243 -0.7665
   24MOL   H24423750   5.096   6.728   6.164  0.4395  1.7495 -0.3353
   24MOL   H24523751   5.302   6.562   6.399  1.1911 -0.4006  4.2130
   24MOL   H24623752   5.341   6.652   6.618  1.0759  0.7095  0.3322
   24MOL   H24723753   5.387   6.858   6.749 -0.1220  0.7427  0.9409
   24MOL   H24823754   5.212   6.888   6.769 -1.4812  0.9487 -0.9401
   24MOL   H24923755   5.183   7.033   6.505 -2.1531 -1.9336  1.1632
   24MOL   H25023756   5.143   6.940   6.270 -0.4982  0.8982  0.0354
   24MOL   H25123757   5.449   6.611   6.191 -0.5707 -0.9912  1.4058
   24MOL   H25223758   5.534   6.423   6.062 -0.1417 -2.3100 -1.4243
   24MOL   H25323759   5.438   6.102   5.700  1.4197  0.9823  1.9678
   24MOL   H25423760   5.323   5.906   5.645  2.4828 -0.8511  0.6356
   24MOL   H25523761   5.076   5.537   5.749 -0.6310 -0.3332  0.1030
   24MOL   H25623762   4.865   5.422   5.779 -2.6273 -0.0118  1.0255
   24MOL   N25723763   5.330   7.055   6.718  0.0815  0.0249  0.5899
   24MOL   C25823764   5.336   7.108   6.850  0.2889  0.1128  0.1010
   24MOL   C25923765   5.439   7.200   6.871 -0.0378 -0.5983 -0.1480
   24MOL   C26023766   5.448   7.269   6.997 -0.4301  0.0340 -0.4709
   24MOL   C26123767   5.345   7.242   7.098  0.3206  0.1127  0.0102
   24MOL   N26223768   5.344   7.302   7.223  0.3279  0.3515 -0.5388
   24MOL   C26323769   5.387   7.421   7.270  0.3630 -0.2191  0.4059
   24MOL   C26423770   5.416   7.534   7.191  0.3224 -0.1325 -0.6737
   24MOL   C26523771   5.461   7.652   7.256 -0.1970  0.2837  0.6571
   24MOL   C26623772   5.482   7.662   7.392  0.0446 -0.1333 -0.6165
   24MOL   N26723773   5.536   7.770   7.464  0.1193  0.1378  0.3440
   24MOL   C26823774   5.534   7.902   7.431 -0.3855 -1.1365 -0.5367
   24MOL   C26923775   5.447   7.960   7.329  0.1461  0.1929  0.2538
   24MOL   C27023776   5.458   0.121   7.295  0.1809  0.7493 -0.8008
   24MOL   C27123777   5.556   0.198   7.357  0.2959  0.3815 -0.2501
   24MOL   N27223778   5.606   0.319   7.312 -0.5784 -0.3457 -0.2804
   24MOL   C27323779   5.568   0.397   7.200 -0.5144 -0.3607 -0.4754
   24MOL   C27423780   5.660   0.434   7.100 -0.2437 -0.3778 -0.6567
   24MOL   C27523781   5.628   0.524   7.005 -0.0116 -1.1759 -0.2232
   24MOL   C27623782   5.495   0.553   6.987 -0.0781 -0.2962  0.2402
   24MOL   C27723783   5.443   0.656   6.877 -0.0930  0.3976 -0.4630
   24MOL   C27823784   5.396   0.510   7.075 -0.0805  0.1424 -0.3764
   24MOL   C27923785   5.435   0.439   7.188  0.3777  0.3206  0.4853
   24MOL   C28023786   5.644   0.137   7.446  0.3040 -0.5671 -0.6322
   24MOL   C28123787   5.634   0.003   7.493 -0.0577 -0.1092 -0.2180
   24MOL   C28223788   5.451   7.550   7.470  0.3579 -0.6046 -0.2173
   24MOL   C28323789   5.404   7.432   7.411  0.0799 -0.3887 -0.4333
   24MOL   C28423790   5.245   7.142   7.074 -0.4150 -0.3664 -0.5199
   24MOL   C28523791   5.245   7.075   6.954 -0.1613  0.9642 -0.2937
   24MOL   H28623792   5.392   7.090   6.647 -2.2208 -0.3439 -1.6586
   24MOL   H28723793   5.512   7.217   6.793 -1.8332  0.8161 -1.5577
   24MOL   H28823794   5.524   7.342   7.018 -0.1310 -0.3971 -0.0316
   24MOL   H28923795   5.315   7.233   7.292  0.1648 -0.7676 -1.7147
   24MOL   H29023796   5.407   7.529   7.084 -1.6023  0.0849 -0.5264
   24MOL   H29123797   5.505   7.722   7.187  0.4854 -2.9870 -2.3522
   24MOL   H29223798   5.587   7.733   7.542 -0.0122  0.8558  0.7740
   24MOL   H29323799   5.377   7.910   7.264 -1.4184  1.0771  1.2564
   24MOL   H29423800   5.393   0.152   7.214 -0.3595  1.9157  0.0693
   24MOL   H29523801   5.697   0.350   7.341 -0.5761 -0.6565  0.0519
   24MOL   H29623802   5.764   0.404   7.097  0.0698  0.7547 -1.2446
   24MOL   H29723803   5.710   0.551   6.940 -1.0618 -0.8878 -1.4538
   24MOL   H29823804   5.348   0.613   6.848 -1.2848  2.1141  0.7454
   24MOL   H29923805   5.505   0.653   6.787  0.8125  1.0059  0.1270
   24MOL   H30023806   5.293   0.537   7.058 -0.8761 -1.7440  1.2265
   24MOL   H30123807   5.365   0.412   7.265  1.6119 -0.3009  1.4130
   24MOL   H30223808   5.717   0.194   7.502 -0.1956 -0.6619  0.1340
   24MOL   H30323809   5.709   7.950   7.563  0.1218  0.7807  0.0445
   24MOL   H30423810   5.455   7.563   7.577 -0.6269  1.2095 -0.3712
   24MOL   H30523811   5.368   7.351   7.472 -0.0343  0.3904  0.5540
   24MOL   H30623812   5.171   7.119   7.149  1.2741  0.9978  1.6572
   24MOL   H30723813   5.154   7.021   6.930 -0.7754  1.6191  0.4873
   24MOL   N30823814   5.420   0.789   6.929 -0.0984  0.2410  0.3380
   24MOL   C30923815   5.523   0.872   6.973  0.4522  0.0218  0.1468
   24MOL   C31023816   5.664   0.854   6.945 -0.6641  0.0593 -0.3767
   24MOL   C31123817   5.753   0.932   7.010 -0.4035  0.6077  0.4025
   24MOL   C31223818   5.718   1.038   7.099 -0.5623  0.3664  0.5034
   24MOL   N31323819   5.804   1.127   7.160 -0.1416  0.3209 -0.3236
   24MOL   C31423820   5.941   1.116   7.180  0.0930 -0.8544  1.4016
   24MOL   C31523821   6.025   1.231   7.181  0.0205  1.1584  0.1031
   24MOL   C31623822   6.165   1.215   7.204 -0.3966  0.0936 -0.1368
   24MOL   C31723823   6.216   1.082   7.199  0.1451  0.8919  0.1786
   24MOL   N31823824   6.354   1.067   7.229  0.1446 -0.3040 -0.1453
   24MOL   C31923825   6.443   0.981   7.166 -0.5478  0.1814 -0.9831
   24MOL   C32023826   6.548   0.919   7.234  0.3418  0.3732 -0.2021
   24MOL   C32123827   6.628   0.830   7.159 -0.2167 -0.2897  0.2024
   24MOL   C32223828   6.606   0.815   7.019  0.1261 -0.1113 -0.0670
   24MOL   N32323829   6.673   0.712   6.953 -0.0278 -0.4515 -0.0179
   24MOL   C32423830   6.726   0.721   6.829  0.1901 -0.2002 -0.1233
   24MOL   C32523831   6.770   0.601   6.772 -0.0823 -0.1572 -0.2905
   24MOL   C32623832   6.841   0.599   6.652 -0.5848  0.1441 -0.2576
   24MOL   C32723833   6.863   0.719   6.580  0.0006  0.4944  0.5960
   24MOL   C32823834   6.937   0.705   6.447 -0.1470 -0.2206 -0.0305
   24MOL   C32923835   6.807   0.837   6.628  0.6197 -0.2417 -0.0040
   24MOL   C33023836   6.739   0.844   6.750  0.0959 -0.6936 -0.8214
   24MOL   C33123837   6.511   0.882   6.951  0.3490 -0.2786  0.1783
   24MOL   C33223838   6.428   0.963   7.026  0.1216 -0.2784 -0.5223
   24MOL   C33323839   6.135   0.967   7.194  0.2102  0.4253 -0.1208
   24MOL   C33423840   5.995   0.987   7.202 -0.1245 -0.6406 -0.4773
   24MOL   C33523841   5.585   1.054   7.123 -0.4114 -0.1633 -0.4138
   24MOL   C33623842   5.492   0.971   7.062  0.9650  0.0838 -0.2428
   24MOL   H33723843   5.329   0.791   6.972  0.3961 -0.8104  1.4776
   24MOL   H33823844   5.693   0.778   6.874 -0.3118 -0.1256 -0.0323
   24MOL   H33923845   5.852   0.914   6.971  0.1960 -0.0635  2.1856
   24MOL   H34023846   5.767   1.209   7.207 -0.8615 -0.8550  1.2071
   24MOL   H34123847   5.989   1.333   7.180  1.4733  1.7420  2.4454
   24MOL   H34223848   6.229   1.301   7.205  0.0010 -0.1168 -3.3375
   24MOL   H34323849   6.386   1.134   7.298  0.0022  1.8271 -2.0657
   24MOL   H34423850   6.560   0.927   7.341 -2.2078  0.5038  0.0993
   24MOL   H34523851   6.701   0.776   7.218  0.5769 -0.1428 -0.6341
   24MOL   H34623852   6.692   0.627   7.005 -0.8521  0.1445  1.2580
   24MOL   H34723853   6.758   0.510   6.830 -2.3316  0.1965 -0.1514
   24MOL   H34823854   6.879   0.511   6.601 -1.5753  0.9297 -2.3937
   24MOL   H34923855   6.930   0.804   6.402 -5.1782  0.3760  1.8387
   24MOL   H35023856   6.882   0.631   6.388 -0.6910 -0.5054  0.8225
   24MOL   H35123857   6.825   0.927   6.571  1.7734 -0.6127 -0.2518
   24MOL   H35223858   6.697   0.937   6.784  2.2811 -0.7106  2.0844
   24MOL   H35323859   6.496   0.875   6.844  0.4307 -3.5578  0.3488
   24MOL   H35423860   6.347   1.016   6.976 -0.2477 -0.5585 -0.2231
   24MOL   H35523861   6.178   0.869   7.186 -0.0791  0.3390 -0.5911
   24MOL   H35623862   5.938   0.897   7.219 -1.1810  0.2709  0.9557
   24MOL   H35723863   5.543   1.132   7.184  0.8216 -0.2432  0.5333
   24MOL   H35823864   5.390   1.001   7.082  0.5711 -0.4839 -1.3794
   24MOL   N35923865   7.074   0.662   6.469 -0.1257 -0.3092  0.2031
   24MOL   C36023866   7.178   0.664   6.369 -0.4316 -0.1756  0.2362
   24MOL   C36123867   7.305   0.604   6.400 -0.2734  1.1506  0.4666
   24MOL   C36223868   7.409   0.608   6.305  0.4040 -0.1894 -0.1668
   24MOL   C36323869   7.387   0.646   6.173 -0.4195  0.1012 -0.3276
   24MOL   N36423870   7.492   0.637   6.084  0.3411 -0.0219  0.2853
   24MOL   C36523871   7.579   0.532   6.069  0.1058 -0.2864 -0.2779
   24MOL   C36623872   7.556   0.432   5.975  0.0991  0.0464  0.0165
   24MOL   C36723873   7.641   0.320   5.960  0.5772  0.7643  0.1218
   24MOL   C36823874   7.760   0.312   6.029 -0.0027  0.3157 -0.1655
   24MOL   N36923875   7.840   0.200   6.011  0.3603  0.0895 -0.2396
   24MOL   C37023876   7.906   0.168   5.894  1.1113 -0.9092  0.4788
   24MOL   C37123877   7.847   0.159   5.764 -0.2682  0.2388  0.4456
   24MOL   C37223878   7.916   0.105   5.655  0.2950  0.4196  0.0264
   24MOL   C37323879   0.067   0.075   5.669  0.7590  0.2422 -0.3539
   24MOL   N37423880   0.131   0.029   5.560 -0.0119 -0.6389  0.1033
   24MOL   C37523881   0.081   0.018   5.425 -0.0614  0.2650 -0.1502
   24MOL   C37623882   0.024   0.128   5.359 -0.2598 -0.4828 -0.1143
   24MOL   C37723883   7.967   0.124   5.223 -0.8727  0.4278  0.0130
   24MOL   C37823884   0.012   0.012   5.147  0.0339  0.5194 -0.0343
   24MOL   C37923885   7.950   0.006   5.006  0.5594 -0.5956  0.6175
   24MOL   C38023886   0.065   7.878   5.213 -0.4018 -0.6188  0.2077
   24MOL   C38123887   0.105   7.881   5.351 -0.8453  0.2950 -0.1640
   24MOL   C38223888   0.128   0.081   5.792  0.5226 -0.0350  0.1429
   24MOL   C38323889   0.058   0.135   5.902 -0.0524  0.5117 -0.1264
   24MOL   C38423890   7.783   0.410   6.128 -0.0530 -0.1547  0.9849
   24MOL   C38523891   7.698   0.520   6.148  0.5862  0.5933 -0.1002
   24MOL   C38623892   7.261   0.710   6.141 -0.7800 -0.9287  0.2527
   24MOL   C38723893   7.163   0.727   6.243 -0.0444 -0.1150  0.1987
   24MOL   H38823894   7.093   0.610   6.553 -1.4609  0.9203  1.2816
   24MOL   H38923895   7.324   0.554   6.493 -1.2350 -0.1959 -0.0494
   24MOL   H39023896   7.506   0.569   6.334  1.0023  0.9019 -0.6712
   24MOL   H39123897   7.473   0.690   6.000 -1.1477  0.3330  0.8410
   24MOL   H39223898   7.467   0.424   5.915  1.3082 -2.7647 -1.4720
   24MOL   H39323899   7.615   0.232   5.905  0.2037  1.2685 -0.5171
   24MOL   H39423900   7.894   0.174   6.092 -1.7667  0.6876  1.4094
   24MOL   H39523901   7.744   0.182   5.739 -0.0045  1.0067  0.0447
   24MOL   H39623902   7.861   0.093   5.563 -0.2885  1.5469  0.2311
   24MOL   H39723903   0.222   7.974   5.580 -0.0155 -0.1434  1.0449
   24MOL   H39823904   0.004   0.221   5.412 -1.1519 -1.0817  0.6102
   24MOL   H39923905   7.922   0.206   5.171 -1.1781 -0.6009 -1.3759
   24MOL   H40023906   7.970   0.102   4.959 -0.2812 -1.3007 -1.2596
   24MOL   H40123907   7.841   0.003   5.003  0.6141 -4.1628 -0.2653
   24MOL   H40223908   0.091   7.790   5.156 -1.2249  1.1511 -3.0373
   24MOL   H40323909   0.146   7.787   5.386 -2.8888  0.3811  2.5872
   24MOL   H40423910   0.231   0.052   5.805  0.3035 -0.7093  0.4317
   24MOL   H40523911   0.115   0.157   5.991 -1.7615 -0.7010  1.3017
   24MOL   H40623912   7.875   0.404   6.186 -0.1407  0.6093  1.2155
   24MOL   H40723913   7.724   0.596   6.220 -2.4887  0.7438  0.9302
   24MOL   H40823914   7.239   0.750   6.044 -0.7395  2.1019  1.4457
   24MOL   H40923915   7.071   0.779   6.221  1.8251  2.7342 -1.1559
   24MOL   N41023916   0.021   7.884   4.919 -0.2488  0.1023  0.1004
   24MOL   C41123917   0.004   7.882   4.777  0.1442  0.2658 -0.2818
   24MOL   C41223918   0.095   7.799   4.707 -0.1972 -0.2940 -0.5185
   24MOL   C41323919   0.081   7.786   4.566  0.1647 -0.1554 -0.4417
   24MOL   C41423920   7.963   7.857   4.498 -0.6445  0.2786 -0.0666
   24MOL   N41523921   7.954   7.827   4.361  0.1600  0.0893  0.6509
   24MOL   C41623922   7.844   7.828   4.275 -0.7221 -0.6934  0.0657
   24MOL   C41723923   7.851   7.849   4.136  0.0800  0.0777  0.6311
   24MOL   C41823924   7.736   7.866   4.055 -0.2182  0.7022 -0.2202
   24MOL   C41923925   7.607   7.864   4.118  0.3372  0.2819  0.2669
   24MOL   N42023926   7.496   7.866   4.038  0.0423  0.4184 -0.5156
   24MOL   C42123927   7.482   7.822   3.906  0.1474 -0.7165 -0.1181
   24MOL   C42223928   7.396   7.896   3.820  0.0437  0.6254  0.3830
   24MOL   C42323929   7.394   7.859   3.683  0.5776  0.0165  0.3240
   24MOL   C42423930   7.463   7.750   3.638 -0.2476 -0.7463  0.5314
   24MOL   N42523931   7.450   7.716   3.505  0.2289  0.0550 -0.0142
   24MOL   C42623932   7.450   7.588   3.452 -0.7071 -0.3279  0.1089
   24MOL   C42723933   7.406   7.472   3.519 -0.0803  0.3169  1.1809
   24MOL   C42823934   7.424   7.348   3.458 -0.5038 -0.1162  0.2523
   24MOL   C42923935   7.487   7.342   3.335  0.2180  0.2417  0.4344
   24MOL   C43023936   7.530   7.202   3.291  0.3781 -0.2337 -0.1284
   24MOL   C43123937   7.531   7.453   3.260 -0.0986  0.0553  0.9043
   24MOL   C43223938   7.515   7.583   3.326  0.7797  0.6149  0.3572
   24MOL   C43323939   7.541   7.671   3.726  0.0191 -0.3009  0.5743
   24MOL   C43423940   7.549   7.710   3.858  0.1306  0.6827  0.0944
   24MOL   C43523941   7.598   7.847   4.257 -0.0282  0.2672  0.2339
   24MOL   C43623942   7.715   7.825   4.335  0.1257  0.0313 -0.2782
   24MOL   C43723943   7.893   7.955   4.568 -0.2839  0.2185  0.2065
   24MOL   C43823944   7.891   7.961   4.711 -0.2643  0.3931 -0.4474
   24MOL   H43923945   0.099   7.841   4.966 -2.1129 -0.1088  3.1589
   24MOL   H44023946   0.180   7.748   4.750  0.0784 -1.9540 -2.8998
   24MOL   H44123947   0.146   7.727   4.504  0.2582  1.4077 -1.8663
   24MOL   H44223948   0.047   7.770   4.324  0.2927  0.4948  0.2981
   24MOL   H44323949   7.949   7.860   4.091  0.0506 -1.0198  0.2855
   24MOL   H44423950   7.754   7.871   3.949 -1.5554  1.9969 -0.3891
   24MOL   H44523951   7.415   7.904   4.085  0.1233 -0.9503  0.7984
   24MOL   H44623952   7.333   7.978   3.849  0.4695  0.7366  1.0023
   24MOL   H44723953   7.341   7.917   3.609  1.1330 -2.0437 -1.7292
   24MOL   H44823954   7.446   7.789   3.435 -0.1674 -0.5516 -0.6329
   24MOL   H44923955   7.380   7.474   3.624  0.4179  3.5879  1.2656
   24MOL   H45023956   7.409   7.265   3.525 -0.2415  0.8245  1.4871
   24MOL   H45123957   7.580   7.207   3.194 -0.5855  0.6879 -0.5941
   24MOL   H45223958   7.438   7.146   3.277  0.5587 -0.8232  0.9986
   24MOL   H45323959   7.580   7.446   3.164  1.1636 -0.5655  1.5792
   24MOL   H45423960   7.550   7.670   3.273  0.9450  0.5294  0.3259
   24MOL   H45523961   7.581   7.574   3.700  1.7659 -0.3481  3.1725
   24MOL   H45623962   7.620   7.651   3.914 -1.1136  0.2259  1.2185
   24MOL   H45723963   7.503   7.846   4.308  0.1098  1.9534  0.5502
   24MOL   H45823964   7.714   7.810   4.442  1.3371  0.0317 -0.2586
   24MOL   H45923965   7.833   0.044   4.514 -0.2772  0.9823  1.1849
   24MOL   H46023966   7.824   0.049   4.758 -0.9528  0.0397 -0.8983
   24MOL   N46123967   7.610   7.129   3.393  0.3356 -0.3140 -0.2098
   24MOL   C46223968   7.707   7.204   3.459 -0.1047  1.2555  0.6564
   24MOL   C46323969   7.830   7.198   3.402 -0.2913 -0.4264 -0.2311
   24MOL   C46423970   7.944   7.248   3.472 -0.3210  0.8714  0.0228
   24MOL   C46523971   7.927   7.319   3.593  0.3021  0.2897  0.7448
   24MOL   N46623972   0.054   7.373   3.660 -0.3840 -0.2422  0.0682
   24MOL   C46723973   0.057   7.402   3.797 -0.1232 -0.9495 -0.0649
   24MOL   C46823974   0.112   7.525   3.848 -0.0706 -0.0510 -0.4118
   24MOL   C46923975   0.108   7.561   3.981 -0.6738 -0.1915  0.3904
   24MOL   C47023976   0.053   7.476   4.077 -0.6828 -0.3930 -0.2968
   24MOL   N47123977   0.065   7.500   4.214  0.3076 -0.1950  0.1688
   24MOL   C47223978   7.941   7.480   4.299  0.6728  0.1021  0.0498
   24MOL   C47323979   7.965   7.447   4.435  0.0358 -0.4020 -0.2211
   24MOL   C47423980   7.862   7.434   4.525  0.1591 -1.0551  0.0316
   24MOL   C47523981   7.729   7.452   4.483 -0.1636  1.0391 -0.7560
   24MOL   N47623982   7.625   7.447   4.577 -0.1594 -0.4311 -0.1216
   24MOL   C47723983   7.629   7.508   4.704  0.6616  0.8066  0.7308
   24MOL   C47823984   7.542   7.458   4.801 -0.5336  0.5521 -0.6254
   24MOL   C47923985   7.517   7.529   4.917  0.1509 -0.0297 -0.0302
   24MOL   C48023986   7.563   7.662   4.935  1.1410 -0.3948  0.3987
   24MOL   C48123987   7.502   7.746   5.044  0.2074  0.4492  0.6428
   24MOL   C48223988   7.662   7.708   4.839 -0.0363 -0.6178  0.6271
   24MOL   C48323989   7.687   7.631   4.727  0.4872  0.2215 -0.4259
   24MOL   C48423990   7.696   7.476   4.349 -0.2985  0.1205  0.4131
   24MOL   C48523991   7.804   7.495   4.265 -0.6047  0.6530  0.3029
   24MOL   C48623992   7.980   7.354   4.033  0.1742 -0.0781  0.4642
   24MOL   C48723993   7.980   7.324   3.893 -0.0336 -0.3769  0.0630
   24MOL   C48823994   7.798   7.324   3.647  0.9711 -0.0583 -0.7827
   24MOL   C48923995   7.686   7.258   3.586  0.3377  0.0755 -0.3915
   24MOL   H49023996   7.638   7.039   3.356 -0.7891 -0.2275 -1.3159
   24MOL   H49123997   7.840   7.151   3.305 -2.9360 -0.2502 -0.6167
   24MOL   H49223998   0.060   7.247   3.426  1.0346  2.4788  2.7422
   24MOL   H49323999   0.127   7.416   3.605 -1.0028  0.0106 -0.5494
   24MOL   H49424000   0.155   7.586   3.770 -0.7317 -3.1002 -3.2497
   24MOL   H49524001   0.157   7.652   4.010  0.5475 -0.4936 -0.6852
   24MOL   H49624002   0.158   7.484   4.248  0.4156  0.1745  0.0507
   24MOL   H49724003   0.083   7.446   4.476  0.6679 -1.7781 -1.7761
   24MOL   H49824004   7.888   7.428   4.630 -1.5910  3.1744  0.8141
   24MOL   H49924005   7.532   7.435   4.540 -0.5266  1.2873  0.2146
   24MOL   H50024006   7.487   7.365   4.788  1.2838 -0.5849 -0.3701
   24MOL   H50124007   7.446   7.493   4.990  0.4972  1.7234  1.2133
   24MOL   H50224008   7.476   7.671   5.119  1.0118  0.9199  1.4108
   24MOL   H50324009   7.409   7.788   5.006  0.3484  0.8374  0.7209
   24MOL   H50424010   7.703   7.808   4.845  0.8973 -0.9605  0.1222
   24MOL   H50524011   7.750   7.669   4.648  0.4387  2.5236  0.6205
   24MOL   H50624012   7.602   7.516   4.316  0.5910  2.9250  1.1468
   24MOL   H50724013   7.783   7.529   4.165 -1.6267 -0.7327  0.0286
   24MOL   H50824014   7.950   7.276   4.102 -0.3825 -0.1017  0.2024
   24MOL   H50924015   7.947   7.231   3.848 -1.1073  0.3823 -0.7421
   24MOL   H51024016   7.785   7.368   3.745  2.0409  0.8472 -1.0384
   24MOL   H51124017   7.589   7.262   3.635  1.3047  0.8503  1.5070
   24MOL   N51224018   7.603   7.838   5.104 -0.1227 -0.5138 -0.3247
   24MOL   C51324019   7.584   7.861   5.242  0.2055 -0.1528 -0.0859
   24MOL   C51424020   7.687   7.840   5.338 -0.2804  0.5664 -0.6865
   24MOL   C51524021   7.669   7.865   5.472  0.2667 -1.0417  0.0964
   24MOL   C51624022   7.542   7.894   5.525 -0.0160  0.7607 -0.6197
   24MOL   N51724023   7.519   7.884   5.662  0.1413 -0.0981  0.8264
   24MOL   C51824024   7.437   7.967   5.737  0.3353 -0.0457 -0.8772
   24MOL   C51924025   7.369   0.099   5.692 -0.0287  0.0501 -0.1204
   24MOL   C52024026   7.313   0.186   5.779 -0.1112 -0.3994  0.3575
   24MOL   C52124027   7.317   0.160   5.915 -0.8299  0.4909 -0.2930
   24MOL   N52224028   7.254   0.235   6.012  0.1370 -0.1212  0.9780
   24MOL   C52324029   7.119   0.236   6.055 -0.1212 -0.1807  0.2492
   24MOL   C52424030   7.086   0.323   6.166  0.8515 -0.9901 -0.1052
   24MOL   C52524031   6.955   0.317   6.215  0.1235  0.3424 -0.1542
   24MOL   C52624032   6.854   0.238   6.157 -0.1369  0.1521 -0.5567
   24MOL   N52724033   6.722   0.220   6.210  0.4596 -0.6731  0.2570
   24MOL   C52824034   6.673   0.282   6.326 -0.3895  0.3191  0.4352
   24MOL   C52924035   6.597   0.205   6.414  0.2283  0.7936 -0.1414
   24MOL   C53024036   6.533   0.266   6.524 -0.4852 -0.3719  0.4581
   24MOL   C53124037   6.545   0.408   6.546 -0.4060  0.3304  0.5892
   24MOL   C53224038   6.470   0.477   6.660 -0.2912  0.5367 -0.1270
   24MOL   C53324039   6.623   0.482   6.449  0.2204  0.7815  0.3250
   24MOL   C53424040   6.685   0.423   6.340  0.4368 -0.0264 -0.2677
   24MOL   C53524041   6.895   0.151   6.051 -0.0069  1.0021 -0.3177
   24MOL   C53624042   7.023   0.151   5.999 -0.1083  0.0291  0.0213
   24MOL   C53724043   7.371   0.041   5.959 -0.2915 -0.0022  0.3733
   24MOL   C53824044   7.430   7.933   5.870  0.3393 -0.4695 -0.7884
   24MOL   C53924045   7.433   7.914   5.437 -0.0258  0.1116 -0.5947
   24MOL   C54024046   7.458   7.890   5.301  0.1977  0.0944  0.0483
   24MOL   H54124047   7.699   7.815   5.083  0.0083  0.2058 -0.5181
   24MOL   H54224048   7.786   7.823   5.298 -0.4646  1.5295 -1.5554
   24MOL   H54324049   7.747   7.823   5.534  1.0115 -0.8410 -0.7044
   24MOL   H54424050   7.599   7.853   5.716  0.9056 -1.8627 -1.2451
   24MOL   H54524051   7.369   0.126   5.587 -2.1099 -0.1216 -0.1791
   24MOL   H54624052   7.280   0.279   5.735  0.8595 -0.2684 -0.0895
   24MOL   H54724053   7.327   0.287   6.060  1.6741 -1.9847  0.7325
   24MOL   H54824054   7.151   0.393   6.217 -1.0401  0.3069  0.5700
   24MOL   H54924055   6.948   0.371   6.309 -0.9844 -1.0469  0.5898
   24MOL   H55024056   6.677   0.131   6.197 -0.1954 -0.7634  2.8319
   24MOL   H55124057   6.578   0.099   6.404 -0.3215  0.7156  1.4658
   24MOL   H55224058   6.486   0.196   6.592 -0.0721 -1.2317 -0.1378
   24MOL   H55324059   6.421   0.561   6.613 -1.1862  0.2698  0.3167
   24MOL   H55424060   6.529   0.527   6.737  0.7928  0.7124 -1.0739
   24MOL   H55524061   6.635   0.590   6.455 -1.7955  1.1555 -1.8543
   24MOL   H55624062   6.748   0.480   6.275  1.3034 -0.4650  0.1738
   24MOL   H55724063   6.823   0.077   6.019  1.5591 -0.8375  0.3775
   24MOL   H55824064   7.041   0.092   5.911  2.1480  2.0979 -0.9802
   24MOL   H55924065   7.366   0.008   6.062 -1.9752  1.1922  0.6860
   24MOL   H56024066   7.457   7.836   5.907  0.1969  0.5909  2.2515
   24MOL   H56124067   7.332   7.931   5.469  0.6633  0.4869  1.4523
   24MOL   H56224068   7.383   7.920   5.230 -0.3494 -2.0675 -0.3245
   24MOL   N56324069   6.362   0.393   6.714 -0.1391 -0.2074  0.0408
   24MOL   C56424070   6.273   0.463   6.795  0.0384 -0.1880  0.1993
   24MOL   C56524071   6.290   0.595   6.840 -0.1417  0.5580  0.5107
   24MOL   C56624072   6.205   0.657   6.932  0.0631 -0.3445 -0.1630
   24MOL   C56724073   6.093   0.582   6.982 -0.1807 -0.1293 -0.0684
   24MOL   N56824074   6.013   0.646   7.071  0.3522  0.0114  0.1303
   24MOL   C56924075   5.953   0.590   7.181 -0.1085 -0.0978  0.8483
   24MOL   C57024076   6.012   0.483   7.247 -0.1996 -0.3271 -0.3065
   24MOL   C57124077   5.967   0.460   7.380 -0.6208  0.6260 -0.1268
   24MOL   C57224078   5.864   0.542   7.440 -0.5297 -0.1198  0.0774
   24MOL   N57324079   5.837   0.525   7.579  0.2151  0.5559  0.7241
   24MOL   C57424080   5.710   0.541   7.639  0.8187 -0.0307 -0.3216
   24MOL   C57524081   5.594   0.525   7.568  0.3174 -0.2500  0.4967
   24MOL   C57624082   5.471   0.539   7.629  0.4727  0.5442  0.1467
   24MOL   C57724083   5.461   0.562   7.768 -0.1973  0.1624 -0.4437
   24MOL   N57824084   5.336   0.555   7.836 -0.0774 -0.1753  0.1439
   24MOL   C57924085   5.305   0.599   7.965 -0.6666 -0.0050  0.2646
   24MOL   C58024086   5.350   0.727   0.020  0.0382  0.2821 -0.1448
   24MOL   C58124087   5.305   0.774   0.144 -0.0883  0.3485 -0.4638
   24MOL   C58224088   5.221   0.692   0.230 -0.6089 -0.2813  0.3938
   24MOL   C58324089   5.179   0.739   0.371  0.7626 -0.3557 -0.1496
   24MOL   C58424090   5.181   0.567   0.188  0.4277  0.3916 -1.1024
   24MOL   C58524091   5.224   0.519   0.069 -0.0358 -0.5952  0.1774
   24MOL   C58624092   5.577   0.587   7.837 -0.6001  0.5372 -0.4934
   24MOL   C58724093   5.705   0.574   7.773  0.0787  0.0143  0.0045
   24MOL   C58824094   5.796   0.637   7.362  0.0358 -0.9741  0.0853
   24MOL   C58924095   5.848   0.670   7.240 -0.5360  0.0140 -0.3938
   24MOL   C59024096   6.062   0.455   6.929 -0.5711  1.4152 -0.4202
   24MOL   C59124097   6.152   0.397   6.838 -0.3298 -0.3174  0.1136
   24MOL   H59224098   6.336   0.312   6.659 -0.7108  0.7720 -1.1736
   24MOL   H59324099   6.377   0.656   6.818  1.5045 -1.6783  0.6611
   24MOL   H59424100   6.220   0.756   6.973 -0.5588 -0.1268 -0.4623
   24MOL   H59524101   6.008   0.746   7.059 -0.8360 -0.2720 -2.0648
   24MOL   H59624102   6.100   0.442   7.200  0.4463 -0.8354  1.3228
   24MOL   H59724103   6.014   0.389   7.446 -0.4465  1.0578  0.2170
   24MOL   H59824104   5.894   0.457   7.627 -2.8892 -2.4266  0.3765
   24MOL   H59924105   5.599   0.507   7.462  0.2316  1.5236  0.1859
   24MOL   H60024106   5.381   0.520   7.572  1.7446 -3.5742 -0.6799
   24MOL   H60124107   5.283   0.473   7.810  1.5057 -0.8979 -0.8918
   24MOL   H60224108   5.408   0.780   7.929  1.8484  0.7899  1.6007
   24MOL   H60324109   5.334   0.873   0.176 -0.3897 -0.0854  1.2159
   24MOL   H60424110   5.075   0.716   0.392  0.8190  1.5222  2.4034
   24MOL   H60524111   5.184   0.848   0.379 -0.2799 -0.3516  0.4778
   24MOL   H60624112   5.115   0.513   0.254 -0.8925 -0.4128 -3.0468
   24MOL   H60724113   5.191   0.420   0.042  1.1266 -0.8556 -0.3263
   24MOL   H60824114   5.571   0.610   7.942  2.3820  1.5659 -0.5169
   24MOL   H60924115   5.801   0.604   7.813 -0.5282  2.0836 -0.0266
   24MOL   H61024116   5.714   0.694   7.404  0.7786  1.5622 -1.8212
   24MOL   H61124117   5.788   0.747   7.194  0.1777  0.1610 -1.0764
   24MOL   H61224118   5.975   0.402   6.965 -0.1074  1.0385  0.1578
   24MOL   H61324119   6.125   0.295   6.818 -0.6518  0.0530 -1.3756
   24MOL   N61424120   5.276   0.685   0.463  0.6102 -0.1000 -0.4236
   24MOL   C61524121   5.233   0.639   0.584 -0.6104  0.7126 -0.5087
   24MOL   C61624122   5.150   0.725   0.659  0.3912 -0.3111  0.5242
   24MOL   C61724123   5.106   0.677   0.781  0.2574 -0.4162 -0.1447
   24MOL   C61824124   5.144   0.546   0.821  0.5952  0.2494 -0.5461
   24MOL   N61924125   5.076   0.487   0.928  0.1751  0.2078  0.2199
   24MOL   C62024126   5.136   0.477   1.053 -0.0107  0.1201  0.9303
   24MOL   C62124127   5.048   0.444   1.157 -0.5759  0.4841 -0.8589
   24MOL   C62224128   5.095   0.441   1.289  0.6035  0.4316 -0.1153
   24MOL   C62324129   5.234   0.459   1.314  0.0401 -0.0838 -0.0394
   24MOL   N62424130   5.278   0.456   1.444 -0.6075  0.0158  0.0724
   24MOL   C62524131   5.291   0.569   1.528 -1.3858 -0.0165  0.0199
   24MOL   C62624132   5.280   0.700   1.481  0.1753 -0.8157 -0.7922
   24MOL   C62724133   5.318   0.806   1.561 -0.5711 -0.0655  0.4661
   24MOL   C62824134   5.341   0.783   1.700  0.5433  0.1917 -0.5105
   24MOL   N62924135   5.357   0.893   1.791  0.6101 -0.3338 -0.0977
   24MOL   C63024136   5.339   1.028   1.755  0.1002 -0.1692 -0.2525
   24MOL   C63124137   5.216   1.071   1.701 -0.8536  0.4595 -0.8454
   24MOL   C63224138   5.196   1.210   1.671  0.4608  0.6384 -0.1195
   24MOL   C63324139   5.300   1.305   1.683 -0.9932 -0.6995  0.0272
   24MOL   C63424140   5.281   1.449   1.636 -0.1282  0.1232 -0.1085
   24MOL   C63524141   5.426   1.257   1.736  0.3198 -0.1837 -0.0256
   24MOL   C63624142   5.438   1.125   1.780 -0.5945  0.0004  0.2875
   24MOL   C63724143   5.342   0.654   1.749 -0.6979  0.3197 -0.1826
   24MOL   C63824144   5.324   0.542   1.662 -0.9073 -0.1182 -0.0512
   24MOL   C63924145   5.318   0.503   1.211  0.4351 -0.2418  0.5327
   24MOL   C64024146   5.268   0.513   1.079 -0.4275 -0.4806 -0.0306
   24MOL   C64124147   5.236   0.465   0.749  0.4950 -0.1275  0.3964
   24MOL   C64224148   5.279   0.514   0.626 -0.0293  1.0955  1.1896
   24MOL   H64324149   5.337   0.619   0.418  2.1375 -0.1221  1.5771
   24MOL   H64424150   5.101   0.813   0.620  1.1760 -0.1256 -0.0661
   24MOL   H64524151   5.039   0.745   0.832  0.9042 -0.6858  1.0774
   24MOL   H64624152   4.979   0.464   0.910 -0.1295  0.5343  1.4265
   24MOL   H64724153   4.952   0.414   1.120 -1.2269 -0.2864  1.3992
   24MOL   H64824154   5.034   0.415   1.375  0.2597  0.5334 -0.3268
   24MOL   H64924155   5.264   0.370   1.495 -1.1678  0.2203  0.2534
   24MOL   H65024156   5.272   0.720   1.376 -0.6191  1.7442 -0.2814
   24MOL   H65124157   5.317   0.904   1.515 -1.3309  0.3407  1.3157
   24MOL   H65224158   5.429   0.891   1.862  0.6965  0.2752 -0.1676
   24MOL   H65324159   5.137   1.000   1.683 -1.1084  0.3241  0.7766
   24MOL   H65424160   5.100   1.245   1.634  1.4030 -0.2040 -3.4440
   24MOL   H65524161   5.241   1.513   1.714  0.3963  0.3053  0.0095
   24MOL   H65624162   5.199   1.441   1.565 -3.2348  1.2129  3.2031
   24MOL   H65724163   5.510   1.321   1.755  0.2421 -0.3082  0.7537
   24MOL   H65824164   5.529   1.087   1.825 -0.7986 -0.3731  0.3920
   24MOL   H65924165   5.346   0.642   1.857 -0.9178  1.5574 -0.0305
   24MOL   H66024166   5.331   0.447   1.713  2.0294  0.2943  0.3935
   24MOL   H66124167   5.420   0.519   1.242  0.5865 -2.7559  1.4265
   24MOL   H66224168   5.334   0.556   1.005 -1.6366  5.8299  2.2427
   24MOL   H66324169   5.257   0.367   0.788  0.4818 -0.1997  0.2243
   24MOL   H66424170   5.352   0.459   0.568 -0.9949  0.2347  0.7936
   24MOL   N66524171   5.396   1.516   1.584 -0.2463  0.0569 -0.0377
   24MOL   C66624172   5.393   1.613   1.483  0.4715 -0.0766 -0.9282
   24MOL   C66724173   5.269   1.675   1.443 -0.4968 -0.6789 -0.6684
   24MOL   C66824174   5.281   1.783   1.353  0.2630  0.3603  0.0173
   24MOL   C66924175   5.406   1.816   1.298  0.4001  0.7856  0.6602
   24MOL   N67024176   5.418   1.918   1.204  0.1818 -0.1427 -0.2551
   24MOL   C67124177   5.346   2.030   1.173 -0.0227 -1.0449  0.1896
   24MOL   C67224178   5.333   2.083   1.037  0.2905 -0.3781  0.4671
   24MOL   C67324179   5.257   2.206   1.020  0.3654 -0.0082  0.0592
   24MOL   C67424180   5.219   2.286   1.128  0.8781  0.9824  0.3190
   24MOL   N67524181   5.175   2.420   1.112 -0.4055 -0.5071 -0.3106
   24MOL   C67624182   5.204   2.503   1.003  0.2604 -0.2693 -0.1290
   24MOL   C67724183   5.117   2.621   0.981  0.5778  0.3028  0.0598
   24MOL   C67824184   5.141   2.705   0.874 -0.6978 -0.2794 -0.5503
   24MOL   C67924185   5.248   2.681   0.785 -0.2022 -0.0914  0.2018
   24MOL   N68024186   5.264   2.747   0.661  0.1089  0.5174 -0.0658
   24MOL   C68124187   5.263   2.884   0.637  0.3413 -0.0597  0.3126
   24MOL   C68224188   5.245   2.984   0.736  0.2901  0.0065 -0.1632
   24MOL   C68324189   5.263   3.123   0.706 -0.6860 -0.0217 -0.3884
   24MOL   C68424190   5.286   3.170   0.576 -0.2946 -0.1447  0.3558
   24MOL   C68524191   5.305   3.318   0.541 -0.1743 -0.3333  0.0682
   24MOL   C68624192   5.296   3.068   0.478  0.6506 -0.6099  0.2488
   24MOL   C68724193   5.282   2.929   0.503 -0.6499  0.3925  0.0287
   24MOL   C68824194   5.338   2.573   0.817 -0.7054 -0.3135  0.5087
   24MOL   C68924195   5.315   2.489   0.922  0.0461 -0.3040 -0.4491
   24MOL   C69024196   5.218   2.222   1.255 -0.8021 -0.7783  0.2774
   24MOL   C69124197   5.279   2.102   1.282  0.4026  0.2900 -0.3436
   24MOL   C69224198   5.517   1.743   1.322 -0.7403  0.2295 -0.4414
   24MOL   C69324199   5.519   1.648   1.427  0.5599  0.0995 -0.2270
   24MOL   H69424200   5.487   1.491   1.620 -0.1911  0.0182 -0.2045
   24MOL   H69524201   5.171   1.647   1.479 -0.8641 -0.3984 -1.4372
   24MOL   H69624202   5.191   1.823   1.309 -1.3722 -0.1374  2.7812
   24MOL   H69724203   5.454   1.874   1.121 -0.7408 -0.8370 -0.2997
   24MOL   H69824204   5.382   2.033   0.954 -0.0313 -0.1668  0.1487
   24MOL   H69924205   5.234   2.238   0.919 -1.0779 -0.3600  0.2707
   24MOL   H70024206   5.154   2.472   1.196  0.8543  0.9351 -0.8680
   24MOL   H70124207   5.042   2.650   1.054  0.2432  2.5061 -1.1067
   24MOL   H70224208   5.066   2.782   0.859  0.7864  1.0604 -1.3004
   24MOL   H70324209   5.306   2.697   0.584 -0.4383  1.4329 -0.9693
   24MOL   H70424210   5.227   2.962   0.840  0.1301 -0.7825 -0.3505
   24MOL   H70524211   5.254   3.191   0.789  0.6704 -1.9806  1.4227
   24MOL   H70624212   5.234   3.346   0.463  1.3664 -1.4800 -1.7911
   24MOL   H70724213   5.401   3.318   0.489  1.0506 -0.7157  2.2991
   24MOL   H70824214   5.319   3.102   0.378  0.5421  3.9890  1.6901
   24MOL   H70924215   5.282   2.856   0.424 -1.3768  0.0883  0.3102
   24MOL   H71024216   5.429   2.565   0.759 -0.6473  0.8893  0.4104
   24MOL   H71124217   5.379   2.403   0.936  1.0875  0.4753 -0.3704
   24MOL   H71224218   5.177   2.281   1.336 -1.1547 -0.3647 -0.1987
   24MOL   H71324219   5.283   2.064   1.383  0.4326 -0.5016 -0.6421
   24MOL   H71424220   5.605   1.782   1.271 -1.6896  3.9880  0.6110
   24MOL   H71524221   5.608   1.597   1.460  0.3592 -0.2476 -0.2156
   24MOL   N71624222   5.300   3.414   0.652 -0.2018 -0.1564  0.4262
   24MOL   C71724223   5.322   3.546   0.628 -0.3557 -0.4839 -0.4642
   24MOL   C71824224   5.384   3.621   0.726 -0.1219  0.1222 -0.1794
   24MOL   C71924225   5.399   3.760   0.704  0.3561  0.2711  0.7136
   24MOL   C72024226   5.382   3.822   0.579  0.6895 -0.1900 -0.0186
   24MOL   N72124227   5.415   3.950   0.542 -0.0746  0.3137  0.2144
   24MOL   C72224228   5.424   4.061   0.622  0.1312  0.3503  0.2101
   24MOL   C72324229   5.332   4.082   0.728 -0.8890  0.2971  0.0568
   24MOL   C72424230   5.325   4.210   0.793 -0.6268  0.3041 -0.4639
   24MOL   C72524231   5.409   4.317   0.751 -0.8364 -0.6096  0.1122
   24MOL   N72624232   5.396   4.435   0.827 -0.0695  0.7981 -0.4672
   24MOL   C72724233   5.431   4.569   0.804  0.6384  0.2926  0.6538
   24MOL   C72824234   5.489   4.609   0.680  1.0165 -0.3796 -0.5965
   24MOL   C72924235   5.521   4.748   0.660  0.0397 -0.5677  0.5932
   24MOL   C73024236   5.502   4.843   0.760  0.3345 -0.0234 -0.0291
   24MOL   N73124237   5.531   4.984   0.745 -0.4746 -0.1430 -0.0550
   24MOL   C73224238   5.548   5.051   0.624  0.6593  0.6650  0.1955
   24MOL   C73324239   5.470   5.023   0.507  0.4397  0.8717  0.5966
   24MOL   C73424240   5.500   5.081   0.385  0.3518 -0.0814  0.4006
   24MOL   C73524241   5.605   5.174   0.380 -0.1947  0.0255  0.3336
   24MOL   C73624242   5.649   5.231   0.247 -0.3780 -0.7645  0.1477
   24MOL   C73724243   5.676   5.208   0.491  0.2111 -0.0197 -0.4624
   24MOL   C73824244   5.657   5.137   0.610 -0.0707 -0.2978 -0.9799
   24MOL   C73924245   5.453   4.797   0.879 -0.1844 -0.0125 -0.2134
   24MOL   C74024246   5.416   4.663   0.906  0.1886 -0.4536 -0.3340
   24MOL   C74124247   5.509   4.291   0.651 -0.8906  0.3470 -0.1678
   24MOL   C74224248   5.511   4.167   0.580 -0.3909 -0.1125  0.3002
   24MOL   C74324249   5.318   3.742   0.476 -0.1563 -0.3093  0.3776
   24MOL   C74424250   5.292   3.605   0.507 -0.2024 -0.0981 -0.1282
   24MOL   H74524251   5.295   3.381   0.747  1.4834 -0.7311  0.3226
   24MOL   H74624252   5.416   3.586   0.824  0.3144  1.2558  0.0928
   24MOL   H74724253   5.442   3.815   0.787  2.0215 -1.3895  0.9671
   24MOL   H74824254   5.433   3.961   0.443  1.0733 -0.9359  0.2661
   24MOL   H74924255   5.278   3.995   0.763  1.7625 -0.9405  1.2742
   24MOL   H75024256   5.279   4.211   0.891 -0.2229 -0.5642 -0.2607
   24MOL   H75124257   5.327   4.433   0.902 -0.2287 -2.3627 -0.6251
   24MOL   H75224258   5.503   4.546   0.593  3.8214 -0.0664 -0.3975
   24MOL   H75324259   5.561   4.789   0.568  0.7604 -1.2770  0.5771
   24MOL   H75424260   5.566   5.032   0.826 -0.5633  0.8035 -0.5771
   24MOL   H75524261   5.388   4.953   0.511  0.1149  1.2658  0.8343
   24MOL   H75624262   5.442   5.053   0.298  1.4346 -0.7926 -0.0861
   24MOL   H75724263   5.571   5.230   0.170 -0.1096 -0.8272 -0.1226
   24MOL   H75824264   5.714   5.156   0.203  1.4842  0.4062  0.8516
   24MOL   H75924265   5.754   5.283   0.491  1.2434 -1.0250  1.8060
   24MOL   H76024266   5.726   5.155   0.691  1.2652  0.2107 -2.2183
   24MOL   H76124267   5.440   4.861   0.965  2.3274 -0.3243  0.4477
   24MOL   H76224268   5.386   4.636   1.006  0.4005  0.0117 -0.1429
   24MOL   H76324269   5.595   4.355   0.638 -0.3951 -0.2440  0.1575
   24MOL   H76424270   5.592   4.153   0.510  0.1472  1.9725  0.4552
   24MOL   H76524271   5.296   3.769   0.374 -2.3620 -0.4274  0.7999
   24MOL   H76624272   5.242   3.554   0.426 -3.8323  2.8799  0.1581
   24MOL   N76724273   5.736   5.339   0.254 -0.3344 -0.3762  0.1617
   24MOL   C76824274   5.694   5.472   0.259  0.0928 -0.1812  0.5274
   24MOL   C76924275   5.796   5.574   0.265  0.6567 -0.5914 -0.0606
   24MOL   C77024276   5.758   5.711   0.275  0.1676  0.1419 -0.7995
   24MOL   C77124277   5.619   5.738   0.286 -0.3704 -0.2455  0.3952
   24MOL   N77224278   5.579   5.872   0.288 -0.2056 -0.3104  0.1626
   24MOL   C77324279   5.663   5.986   0.303  0.1556 -0.0266 -0.1078
   24MOL   C77424280   5.629   6.102   0.228  0.1315 -0.5447  0.2614
   24MOL   C77524281   5.703   6.220   0.239  0.2044  0.3773  0.2448
   24MOL   C77624282   5.804   6.228   0.338 -0.1559  0.2288 -0.4013
   24MOL   N77724283   5.880   6.347   0.359 -0.1398  0.5467  0.0855
   24MOL   C77824284   5.951   6.425   0.269 -0.1843 -0.4471 -0.0486
   24MOL   C77924285   5.970   6.378   0.132  0.0903 -0.8781 -0.5570
   24MOL   C78024286   6.066   6.436   0.047  0.9698  0.9015 -0.2438
   24MOL   C78124287   6.135   6.550   0.098 -0.1383  0.3283 -0.0464
   24MOL   N78224288   6.229   6.611   0.012 -0.7646  0.7659 -0.2349
   24MOL   C78324289   6.271   6.749   0.004  0.3634  0.6684 -0.6815
   24MOL   C78424290   6.398   6.780   7.935  0.8940 -0.3709 -0.1891
   24MOL   C78524291   6.428   6.911   7.900  0.0917 -0.0964 -0.2808
   24MOL   C78624292   6.334   7.014   7.928  0.6255  0.6180 -0.6659
   24MOL   C78724293   6.359   7.160   7.893  0.0163 -0.2888 -0.5299
   24MOL   C78824294   6.208   6.985   0.005 -0.1277  0.0855 -0.0362
   24MOL   C78924295   6.178   6.850   0.036  0.3626 -0.5463 -1.0595
   24MOL   C79024296   6.102   6.605   0.227 -0.6234 -0.3547  0.4781
   24MOL   C79124297   6.007   6.545   0.309 -0.2235  0.3922  0.3603
   24MOL   C79224298   5.833   6.121   0.425 -0.1499 -0.9568  0.1570
   24MOL   C79324299   5.763   5.999   0.402  0.1469  0.7345 -0.4599
   24MOL   C79424300   5.517   5.640   0.279 -0.3572 -0.0063  0.0032
   24MOL   C79524301   5.554   5.503   0.276 -0.2534 -0.4072  0.0203
   24MOL   H79624302   5.819   5.321   0.200  2.4924  1.7806  3.5175
   24MOL   H79724303   5.900   5.552   0.251  0.9802  1.2153 -0.6612
   24MOL   H79824304   5.836   5.784   0.262  1.2388 -1.1004 -1.3729
   24MOL   H79924305   5.483   5.891   0.265  0.1769 -1.4026 -2.4994
   24MOL   H80024306   5.547   6.092   0.159 -0.1043 -1.5931  0.6841
   24MOL   H80124307   5.694   6.298   0.165 -1.7385 -0.4216 -0.3968
   24MOL   H80224308   5.919   6.353   0.452  1.5679 -0.0592 -0.5620
   24MOL   H80324309   5.940   6.279   0.101  1.1374 -1.3082 -0.2240
   24MOL   H80424310   6.074   6.384   7.935  0.4093  0.1169  0.1410
   24MOL   H80524311   6.266   6.554   7.919 -2.5587 -0.2844 -0.3453
   24MOL   H80624312   6.462   6.698   7.904 -1.5205 -1.8831 -1.2789
   24MOL   H80724313   6.522   6.927   7.849  0.9341 -0.7787  1.0297
   24MOL   H80824314   6.322   7.216   7.979  1.5237  0.8761 -0.6226
   24MOL   H80924315   6.295   7.197   7.813 -1.9473 -0.0291  1.1451
   24MOL   H81024316   6.155   7.077   0.024  0.7606  0.7176 -0.5853
   24MOL   H81124317   6.076   6.831   0.069  0.5251  0.7032  0.2064
   24MOL   H81224318   6.147   6.699   0.255  0.8263 -0.4136 -1.5164
   24MOL   H81324319   5.980   6.578   0.409 -1.1429 -0.7382  0.4922
   24MOL   H81424320   5.912   6.135   0.497 -1.8549  0.1382  1.8588
   24MOL   H81524321   5.778   5.915   0.469 -0.1504  2.2819  1.6170
   24MOL   H81624322   5.412   5.664   0.284 -0.7869 -1.2110 -2.3329
   24MOL   H81724323   5.476   5.429   0.277 -0.2481 -0.3976  1.9248
   24MOL   N81824324   6.487   7.196   7.835 -0.2257 -0.0216  0.0877
   24MOL   C81924325   6.598   7.224   7.920  0.3655 -0.0583 -0.0286
   24MOL   C82024326   6.594   7.282   0.063  1.0743  0.2761  0.5027
   24MOL   C82124327   6.709   7.320   0.130  0.1256 -0.1588  0.1695
   24MOL   C82224328   6.838   7.307   0.073  0.3059 -0.5002  0.2912
   24MOL   N82324329   6.950   7.343   0.152  0.7228 -0.0055 -0.2227
   24MOL   C82424330   7.043   7.255   0.210 -0.2388 -0.0681  0.3046
   24MOL   C82524331   7.136   7.307   0.306 -0.1474  0.2587 -0.5168
   24MOL   C82624332   7.236   7.222   0.368  0.2870  0.1464  0.1758
   24MOL   C82724333   7.236   7.086   0.324 -0.1981  0.1110  0.9729
   24MOL   N82824334   7.330   7.001   0.388 -0.0742  0.3823  0.3201
   24MOL   C82924335   7.320   6.868   0.422 -0.4679  0.4062 -0.1188
   24MOL   C83024336   7.197   6.809   0.457  0.0906  0.0029  0.3457
   24MOL   C83124337   7.189   6.671   0.491 -0.1223  0.2129 -0.0303
   24MOL   C83224338   7.307   6.597   0.510  0.0653  0.2718 -0.2210
   24MOL   N83324339   7.313   6.476   0.564 -0.1894 -0.3399 -0.7423
   24MOL   C83424340   7.239   6.365   0.521  0.7375  0.0040  0.5020
   24MOL   C83524341   7.193   6.347   0.392 -0.6455 -0.2598 -0.2117
   24MOL   C83624342   7.122   6.235   0.350 -0.0381  0.0918  0.3417
   24MOL   C83724343   7.092   6.131   0.441 -0.2139  0.9979  0.3802
   24MOL   C83824344   7.014   6.008   0.398  0.1377  0.3977  0.7737
   24MOL   C83924345   7.145   6.149   0.570 -1.0683  0.0154 -0.0586
   24MOL   C84024346   7.215   6.262   0.613 -0.2945 -0.0664 -0.0869
   24MOL   C84124347   7.430   6.651   0.474  0.1683 -1.2065 -0.7312
   24MOL   C84224348   7.436   6.791   0.440  0.1502 -0.3673 -0.4838
   24MOL   C84324349   7.150   7.034   0.226  1.0976  0.1294  0.1339
   24MOL   C84424350   7.053   7.122   0.167  0.3468 -0.1722 -0.3192
   24MOL   C84524351   6.848   7.250   7.926  0.7236  0.4741  0.1599
   24MOL   C84624352   6.727   7.210   7.857  0.2146 -1.2367 -0.8173
   24MOL   H84724353   6.474   7.242   7.746 -3.3573 -0.9806 -0.0263
   24MOL   H84824354   6.496   7.287   0.108  0.3004  1.6891 -1.2469
   24MOL   H84924355   6.698   7.343   0.235  0.1229 -0.2324  0.1850
   24MOL   H85024356   6.964   7.438   0.183  1.5858 -0.9034  2.2427
   24MOL   H85124357   7.147   7.411   0.330 -1.6019 -0.3638  3.2605
   24MOL   H85224358   7.302   7.258   0.445  1.0480 -0.8632  0.0036
   24MOL   H85324359   7.403   7.046   0.441 -1.4341  0.1131  2.4533
   24MOL   H85424360   7.104   6.864   0.468 -0.8068 -1.8170  2.1726
   24MOL   H85524361   7.092   6.632   0.514  0.1655 -0.2106  0.4711
   24MOL   H85624362   7.396   6.450   0.616 -2.7281 -2.0975  2.6632
   24MOL   H85724363   7.220   6.419   0.317  2.8452 -1.4374 -0.1973
   24MOL   H85824364   7.090   6.233   0.247  0.7337 -1.4523  0.1201
   24MOL   H85924365   6.973   5.956   0.485  0.6793  1.1882  1.5208
   24MOL   H86024366   7.075   5.939   0.340 -0.0096  1.0491 -0.1644
   24MOL   H86124367   7.111   6.072   0.637 -0.4607 -0.5473 -0.3919
   24MOL   H86224368   7.240   6.279   0.717 -1.0411  1.4154 -0.1370
   24MOL   H86324369   7.523   6.604   0.503 -1.3797 -1.7342  3.6733
   24MOL   H86424370   7.534   6.838   0.430  1.0417 -2.0427  0.3063
   24MOL   H86524371   7.164   6.930   0.200  0.5734  0.2083 -0.4781
   24MOL   H86624372   6.982   7.087   0.094 -0.1919 -2.7719  1.3768
   24MOL   H86724373   6.938   7.252   7.867 -0.2927  1.3490 -1.3760
   24MOL   H86824374   6.733   7.159   7.762  1.8093  0.6154 -1.7530
   24MOL   N86924375   6.896   6.033   0.316 -0.0874  0.2512 -0.1473
   24MOL   C87024376   6.805   5.934   0.277 -0.1763  0.3632  0.3884
   24MOL   C87124377   6.791   5.810   0.340  0.1043  0.1321 -0.6136
   24MOL   C87224378   6.686   5.719   0.299  0.2093 -0.0055  0.2880
   24MOL   C87324379   6.586   5.755   0.203  0.0307 -0.6837  0.6299
   24MOL   N87424380   6.492   5.660   0.151  0.1609  0.4598 -0.4106
   24MOL   C87524381   6.403   5.582   0.228 -0.8665  0.5683 -0.0588
   24MOL   C87624382   6.382   5.597   0.366 -0.6529  0.4053  1.0270
   24MOL   C87724383   6.304   5.501   0.434  0.1719  0.3062 -0.3756
   24MOL   C87824384   6.250   5.386   0.379  0.0710  0.4020 -0.3030
   24MOL   N87924385   6.186   5.288   0.462 -0.1923 -0.1971 -0.5364
   24MOL   C88024386   6.157   5.159   0.428  0.4120 -0.5197 -0.3183
   24MOL   C88124387   6.242   5.072   0.353  0.3737  0.1426  0.7368
   24MOL   C88224388   6.213   4.934   0.337 -0.3257  0.0323  0.2639
   24MOL   C88324389   6.104   4.880   0.403 -1.1365 -0.5192 -0.0188
   24MOL   N88424390   6.084   4.742   0.401 -0.0264  0.1436 -0.0485
   24MOL   C88524391   6.113   4.634   0.312 -0.3257  0.0002 -0.3850
   24MOL   C88624392   6.127   4.660   0.171  0.6186  0.2039 -0.9065
   24MOL   C88724393   6.145   4.557   0.082 -0.4466  0.4458 -0.1200
   24MOL   C88824394   6.146   4.419   0.127  0.6036 -0.6865 -0.3406
   24MOL   C88924395   6.157   4.301   0.031  0.1372 -0.6238  0.0126
   24MOL   C89024396   6.121   4.392   0.265  0.4994 -0.3977 -1.8549
   24MOL   C89124397   6.107   4.502   0.359  0.6315 -0.7686  0.1498
   24MOL   C89224398   6.022   4.964   0.480  0.1172 -0.0632  0.1669
   24MOL   C89324399   6.045   5.105   0.488  0.1920 -0.5704  0.5879
   24MOL   C89424400   6.277   5.367   0.239 -0.1485  0.5278  0.5308
   24MOL   C89524401   6.350   5.466   0.167  0.0811  0.3459 -0.7007
   24MOL   C89624402   6.600   5.880   0.141  0.0630  0.1998  0.8289
   24MOL   C89724403   6.703   5.969   0.180  0.2331 -0.2478 -0.0566
   24MOL   H89824404   6.885   6.121   0.268 -0.4371  0.0655 -0.4123
   24MOL   H89924405   6.870   5.774   0.403 -0.2709 -2.3993 -1.5357
   24MOL   H90024406   6.681   5.616   0.332  1.8024 -0.4081 -0.6723
   24MOL   H90124407   6.472   5.661   0.052 -1.8312  2.3340 -0.0277
   24MOL   H90224408   6.415   5.689   0.412  0.2413  1.8041 -2.2073
   24MOL   H90324409   6.277   5.520   0.537  0.4095  1.3840 -0.5146
   24MOL   H90424410   6.155   5.321   0.553  0.6340  1.7635 -0.9373
   24MOL   H90524411   6.340   5.105   0.321 -1.0488  2.9342 -0.9284
   24MOL   H90624412   6.272   4.870   0.273 -0.0648  1.4521 -0.9362
   24MOL   H90724413   6.005   4.709   0.455  0.7572  0.4984  1.3514
   24MOL   H90824414   6.133   4.761   0.132 -0.0904 -0.0109 -1.5695
   24MOL   H90924415   6.155   4.573   7.958 -0.9450 -0.1142 -0.2569
   24MOL   H91024416   6.072   4.304   7.946  0.3183  3.8464 -0.1300
   24MOL   H91124417   6.133   4.209   0.084  0.9927 -1.2812 -0.6968
   24MOL   H91224418   6.123   4.293   0.308 -0.6145 -0.3268 -1.6131
   24MOL   H91324419   6.102   4.479   0.464  1.6145  0.5459  0.4826
   24MOL   H91424420   5.943   4.907   0.525  0.2597 -1.2739 -1.0978
   24MOL   H91524421   5.979   5.165   0.549 -2.2364  0.6011 -3.0115
   24MOL   H91624422   6.245   5.273   0.197 -1.1056  0.3411  1.6709
   24MOL   H91724423   6.376   5.457   0.063  2.2165 -0.2172 -0.1450
   24MOL   H91824424   6.534   5.901   0.058  0.4499 -0.2107  0.4074
   24MOL   H91924425   6.695   6.066   0.132  1.2315 -0.9117 -1.6038
   24MOL   N92024426   6.289   4.305   7.950 -0.6389  0.2464 -0.1558
   24MOL   C92124427   6.286   4.280   7.811  0.9413 -0.8516 -0.0571
   24MOL   C92224428   6.271   4.145   7.772  0.1223 -0.4462  0.4916
   24MOL   C92324429   6.289   4.111   7.641  0.2784 -0.2336 -0.3643
   24MOL   C92424430   6.283   4.212   7.541  0.3710 -0.0360 -0.4082
   24MOL   N92524431   6.281   4.181   7.403  0.0113 -0.1102  0.3685
   24MOL   C92624432   6.329   4.058   7.346  0.5754  0.9844 -0.3743
   24MOL   C92724433   6.236   3.968   7.288 -0.5049  0.2331  0.0594
   24MOL   C92824434   6.283   3.838   7.256  0.6121 -0.1137 -0.7353
   24MOL   C92924435   6.409   3.795   7.290 -0.3732  0.8417  0.6089
   24MOL   N93024436   6.448   3.662   7.262  0.0229  0.0042  0.3546
   24MOL   C93124437   6.389   3.576   7.175 -0.7819  0.3504 -0.2696
   24MOL   C93224438   6.419   3.568   7.038 -0.1236  0.0355 -0.8115
   24MOL   C93324439   6.351   3.475   6.956 -0.3240 -0.1270  0.3253
   24MOL   C93424440   6.251   3.388   7.011 -0.3295 -0.3000  0.3420
   24MOL   N93524441   6.184   3.298   6.929  0.2541  0.2137  0.2224
   24MOL   C93624442   6.046   3.287   6.913  0.0108 -0.1768 -0.1831
   24MOL   C93724443   5.956   3.361   6.989 -0.3008 -0.2884 -0.4140
   24MOL   C93824444   5.811   3.347   6.963 -0.4395 -0.6375 -0.0612
   24MOL   C93924445   5.765   3.260   6.857 -0.7353 -0.0580  0.0740
   24MOL   C94024446   5.614   3.224   6.852  0.4587 -0.0974  0.0682
   24MOL   C94124447   5.857   3.194   6.774  0.5359 -0.0385  0.1827
   24MOL   C94224448   5.994   3.208   6.806 -0.0534 -0.0692 -0.0116
   24MOL   C94324449   6.227   3.395   7.151  0.9028  1.0998 -0.7582
   24MOL   C94424450   6.296   3.486   7.232  0.1326  0.2252 -0.0699
   24MOL   C94524451   6.501   3.883   7.347  0.4027 -0.4214 -0.6461
   24MOL   C94624452   6.457   4.013   7.370  0.7485  0.0183  0.8025
   24MOL   C94724453   6.299   4.348   7.577  0.2222  0.3225 -0.2943
   24MOL   C94824454   6.296   4.384   7.710 -0.2507 -0.2443 -0.1530
   24MOL   H94924455   6.355   4.377   7.975 -0.4804  0.8385 -2.1797
   24MOL   H95024456   6.268   4.065   7.844 -4.3761 -1.4480 -0.6632
   24MOL   H95124457   6.280   4.007   7.616 -1.5098 -0.4027  0.8398
   24MOL   H95224458   6.204   4.213   7.345 -0.2415 -1.7131 -0.2053
   24MOL   H95324459   6.139   4.013   7.275 -0.3452  0.6076  0.1636
   24MOL   H95424460   6.215   3.768   7.210 -0.7824  0.6413  0.1233
   24MOL   H95524461   6.547   3.650   7.276  0.3175  1.0512 -0.7307
   24MOL   H95624462   6.493   3.624   6.983  0.2933  1.2322  0.9338
   24MOL   H95724463   6.364   3.464   6.849 -0.2860 -0.1209  0.3301
   24MOL   H95824464   6.235   3.276   6.845 -0.1862  2.2981 -0.6216
   24MOL   H95924465   5.991   3.427   7.067 -2.1506  0.3029 -0.0471
   24MOL   H96024466   5.744   3.409   7.020  0.2247 -0.1706  0.2134
   24MOL   H96124467   5.567   3.212   6.950  1.2374 -1.1312  0.3111
   24MOL   H96224468   5.581   3.138   6.794 -0.0294 -1.1926  1.9399
   24MOL   H96324469   5.821   3.135   6.691  1.7793  1.9874 -1.8618
   24MOL   H96424470   6.062   3.149   6.746 -0.4218 -0.9138  0.3937
   24MOL   H96524471   6.151   3.334   7.199  1.0462  1.9246  0.5516
   24MOL   H96624472   6.274   3.489   7.337  1.2172  1.0569  0.1390
   24MOL   H96724473   6.602   3.857   7.376  1.1795  0.5118 -2.4764
   24MOL   H96824474   6.519   4.081   7.426  1.0233  0.5780 -0.1637
   24MOL   H96924475   6.304   4.422   7.499  0.9486 -2.2584 -2.7716
   24MOL   H97024476   6.305   4.488   7.737 -0.1934 -0.2619 -0.1042
   24MOL   N97124477   5.535   3.334   6.805  0.7341 -0.7132 -0.5731
   24MOL   C97224478   5.545   3.370   6.673 -0.4300 -0.4494 -0.9321
   24MOL   C97324479   5.610   3.493   6.642 -0.8271  0.1876 -0.2188
   24MOL   C97424480   5.639   3.527   6.509 -0.1729 -0.5108  0.9268
   24MOL   C97524481   5.597   3.440   6.406 -0.5611 -0.1175  0.4168
   24MOL   N97624482   5.608   3.481   6.273 -0.2619 -0.0766 -0.8143
   24MOL   C97724483   5.618   3.395   6.161 -0.2385 -0.4523  0.2519
   24MOL   C97824484   5.607   3.447   6.031  0.6114 -0.3642  0.5665
   24MOL   C97924485   5.627   3.368   5.915 -0.9133  0.2955 -0.4849
   24MOL   C98024486   5.645   3.232   5.926 -0.4634  0.3828 -0.0626
   24MOL   N98124487   5.668   3.155   5.803 -0.1159  0.1565 -0.2311
   24MOL   C98224488   5.654   3.015   5.791 -0.1455 -0.6313  0.0550
   24MOL   C98324489   5.559   2.960   5.704 -0.1826  0.1705  0.7044
   24MOL   C98424490   5.543   2.822   5.694 -0.6184 -0.3512  0.1904
   24MOL   C98524491   5.613   2.741   5.778 -0.3924  0.1898 -0.3588
   24MOL   N98624492   5.598   2.601   5.765  0.4493 -0.1944  0.2645
   24MOL   C98724493   5.669   2.494   5.827 -0.2655  0.5948 -0.7667
   24MOL   C98824494   5.599   2.403   5.913 -0.0578  0.7697  0.0543
   24MOL   C98924495   5.670   2.312   5.994  0.2028 -0.2705 -0.4295
   24MOL   C99024496   5.810   2.302   5.986  0.5630 -0.3318 -0.6679
   24MOL   C99124497   5.882   2.205   6.073 -0.8705  0.1061 -0.1738
   24MOL   C99224498   5.873   2.391   5.897 -0.2906  0.2936 -0.7406
   24MOL   C99324499   5.807   2.487   5.822 -0.2344 -0.1780 -0.7951
   24MOL   C99424500   5.708   2.791   5.869  0.9485  0.1540 -0.3513
   24MOL   C99524501   5.727   2.933   5.872  0.3166 -0.1126  0.0307
   24MOL   C99624502   5.662   3.174   6.054 -0.5566 -0.0887 -0.4374
   24MOL   C99724503   5.651   3.257   6.169  0.0219 -0.2072 -0.1311
   24MOL   C99824504   5.520   3.329   6.441 -0.3288  0.4607  0.1219
   24MOL   C99924505   5.494   3.289   6.568 -0.3384 -0.0968  0.4441
   24MOL     H124506   5.544   3.418   6.860  0.7212 -0.6479 -0.6702
   24MOL     H224507   5.644   3.553   6.725  0.6868 -0.9691  0.0120
   24MOL     H324508   5.684   3.623   6.487  1.3523 -0.9264  2.2009
   24MOL     H424509   5.623   3.580   6.257 -1.8209  0.3746  0.4449
   24MOL     H524510   5.599   3.553   6.010 -1.5733 -0.3892  1.1826
   24MOL     H624511   5.623   3.411   5.816 -1.7851 -0.7163 -0.8990
   24MOL     H724512   5.692   3.220   5.730  0.2954  2.2778  1.7285
   24MOL     H824513   5.496   3.017   5.638 -0.3127 -0.5285  0.2152
   24MOL     H924514   5.473   2.785   5.621 -2.0730 -1.3761  2.0564
   24MOL    H1024515   5.511   2.571   5.724 -0.1731  1.5568  0.2961
   24MOL    H1124516   5.492   2.392   5.916 -0.2457  0.7672 -3.7657
   24MOL    H1224517   5.603   2.254   6.056  1.7318 -1.8737 -0.2387
   24MOL    H1324518   5.931   2.272   6.144  2.2916 -1.3774 -0.8624
   24MOL    H1424519   5.947   2.138   6.018 -0.9460  1.4184 -1.8977
   24MOL    H1524520   5.981   2.386   5.893 -0.2800 -1.7523  1.1575
   24MOL    H1624521   5.860   2.552   5.754  0.5439 -0.3033 -0.3099
   24MOL    H1724522   5.758   2.739   5.949  0.8295  0.4988 -0.0545
   24MOL    H1824523   5.804   2.971   5.938  2.2304 -0.2956 -2.0480
   24MOL    H1924524   5.676   3.067   6.061  0.0796  0.0089 -0.1574
   24MOL    H2024525   5.667   3.207   6.264 -2.6641  1.3472  1.2151
   24MOL    H2124526   5.472   3.269   6.365  2.5152  1.6508 -2.7434
   24MOL    H2224527   5.446   3.197   6.597 -2.6643  0.7354 -0.6607
   24MOL    H2324528   5.809   2.139   6.120  0.0307 -0.4323  0.4985
   25MOL     N124529   0.230   1.671   1.487  0.0535 -0.5550  0.3146
   25MOL     C224530   0.334   1.636   1.400 -0.0919 -0.4091 -0.3011
   25MOL     C324531   0.341   1.690   1.267 -1.0315 -0.1049  0.1449
   25MOL     C424532   0.443   1.650   1.184  0.3288  1.1774  0.2573
   25MOL     C524533   0.555   1.574   1.236  0.3138 -0.5288 -0.1319
   25MOL     N624534   0.673   1.555   1.155  0.1228 -0.3717  0.2947
   25MOL     C724535   0.675   1.578   1.015 -0.2047  0.2648  0.4791
   25MOL     C824536   0.721   1.697   0.964  0.0926  0.3103  1.3207
   25MOL     C924537   0.714   1.720   0.819 -0.2409  0.1682 -1.0749
   25MOL    C1024538   0.672   1.614   0.739  0.1442  0.2808  0.2408
   25MOL    N1124539   0.663   1.642   0.602 -0.3423 -0.0550  0.5632
   25MOL    C1224540   0.670   1.556   0.491 -0.0809 -0.2463  0.1078
   25MOL    C1324541   0.606   1.601   0.376 -0.0765 -0.4996 -0.9034
   25MOL    C1424542   0.629   1.537   0.252 -0.4201  0.3821 -0.0721
   25MOL    C1524543   0.701   1.417   0.249  0.5530  0.0699  0.1619
   25MOL    N1624544   0.711   1.349   0.126 -0.1337 -0.1477  0.2692
   25MOL    C1724545   0.806   1.379   0.023 -0.1697  0.2272 -0.2357
   25MOL    C1824546   0.835   1.517   7.982 -0.1720  0.0453 -0.4382
   25MOL    C1924547   0.939   1.550   7.894 -0.7206 -0.2304 -0.2444
   25MOL    C2024548   1.023   1.454   7.829 -0.0507 -0.5198  0.1854
   25MOL    C2124549   1.144   1.503   7.747  0.4473  0.7889  0.4572
   25MOL    C2224550   1.008   1.320   7.867  0.1778 -0.4256 -0.7681
   25MOL    C2324551   0.898   1.289   7.947  0.1687 -0.7782  0.5497
   25MOL    C2424552   0.757   1.366   0.362 -0.1179  0.3376 -0.5201
   25MOL    C2524553   0.747   1.436   0.484 -0.0484  0.7480  0.5101
   25MOL    C2624554   0.626   1.491   0.794  0.5183 -0.4637  0.3377
   25MOL    C2724555   0.624   1.473   0.933  1.0598  0.6390  0.2804
   25MOL    C2824556   0.551   1.526   1.368  0.6111  0.4179 -0.5905
   25MOL    C2924557   0.437   1.551   1.452  0.3392  0.5180 -0.4006
   25MOL    H3024558   0.199   1.767   1.495  0.4418 -0.2395 -1.5445
   25MOL    H3124559   0.257   1.746   1.229 -1.3567 -0.2700  0.6185
   25MOL    H3224560   0.453   1.690   1.084 -0.4893  0.2518 -0.1996
   25MOL    H3324561   0.762   1.545   1.202 -0.2176  0.0066  1.0285
   25MOL    H3424562   0.768   1.767   1.032 -0.5211  0.9712  1.0718
   25MOL    H3524563   0.750   1.812   0.778 -0.1953  0.8427  0.4418
   25MOL    H3624564   0.667   1.739   0.574 -1.8646 -0.5235 -1.4609
   25MOL    H3724565   0.565   1.700   0.380  0.0372 -0.3652 -2.5904
   25MOL    H3824566   0.595   1.573   0.157  0.2792 -3.5037 -1.8827
   25MOL    H3924567   0.709   1.248   0.131  0.4379 -0.2354 -1.0792
   25MOL    H4024568   0.786   1.595   0.055  0.2628 -0.6280  0.9441
   25MOL    H4124569   0.958   1.657   7.893 -0.6465 -0.2292  0.7430
   25MOL    H4224570   1.191   1.583   7.804  1.1098  0.6800  0.0696
   25MOL    H4324571   1.115   1.552   7.654  3.6812  1.4036 -0.2794
   25MOL    H4424572   1.072   1.250   7.816  1.7450 -0.0509  0.6405
   25MOL    H4524573   0.884   1.186   7.978 -1.4901 -0.0258  2.4111
   25MOL    H4624574   0.809   1.272   0.356 -2.1092 -0.8583  0.5213
   25MOL    H4724575   0.796   1.412   0.577  1.6716  0.5965 -0.4136
   25MOL    H4824576   0.596   1.403   0.740 -0.9076  0.7330 -0.8379
   25MOL    H4924577   0.591   1.379   0.976 -0.2755  0.5106 -1.0160
   25MOL    H5024578   0.630   1.470   1.415 -1.0618 -0.6866  0.9890
   25MOL    H5124579   0.434   1.504   1.549  0.3725  2.6351  0.6608
   25MOL    H5224580   0.232   1.617   1.572  1.1598 -2.3316 -0.8024
   25MOL    N5324581   1.233   1.396   7.700  0.3082 -0.0081  0.1676
   25MOL    C5424582   1.348   1.347   7.769  0.7174 -0.0425  0.2124
   25MOL    C5524583   1.371   1.369   7.904 -0.1419  0.2058  0.0397
   25MOL    C5624584   1.488   1.322   7.960  0.2095  0.3478 -0.1247
   25MOL    C5724585   1.580   1.252   7.878  0.3552 -0.0848  0.4437
   25MOL    N5824586   1.695   1.193   7.939  0.2813 -0.4923  0.1730
   25MOL    C5924587   1.670   1.120   0.073  0.2885  0.3667 -0.5999
   25MOL    C6024588   1.687   1.179   0.198 -0.6308 -0.0700  0.2567
   25MOL    C6124589   1.665   1.106   0.317  0.0517  0.9514 -0.5032
   25MOL    C6224590   1.620   0.972   0.308  0.0761 -0.5633  0.0834
   25MOL    N6324591   1.616   0.890   0.421  0.0549 -0.4721 -0.4921
   25MOL    C6424592   1.576   0.762   0.413  0.4941 -0.1178  0.6105
   25MOL    C6524593   1.660   0.656   0.371 -0.4932  0.1572 -0.2817
   25MOL    C6624594   1.607   0.532   0.345 -0.4720  0.0013 -0.6024
   25MOL    C6724595   1.472   0.506   0.374 -0.1696 -0.2931  0.1971
   25MOL    N6824596   1.412   0.385   0.329  0.4486  0.2065  0.1226
   25MOL    C6924597   1.473   0.296   0.248 -0.0340  0.0901 -0.5148
   25MOL    C7024598   1.548   0.187   0.299  0.1423  0.8060 -0.5850
   25MOL    C7124599   1.608   0.088   0.222  0.2476 -0.0573 -0.5540
   25MOL    C7224600   1.589   0.086   0.083 -0.3573 -0.3569 -0.4718
   25MOL    C7324601   1.669   7.958   0.006  0.4700 -0.0420  0.1438
   25MOL    C7424602   1.524   0.201   0.030 -0.3860  0.1023  0.6144
   25MOL    C7524603   1.464   0.303   0.108 -0.7140  0.0942  0.6772
   25MOL    C7624604   1.384   0.608   0.414  0.0759 -0.3149  0.6406
   25MOL    C7724605   1.440   0.737   0.439  0.0728  0.6188 -0.4535
   25MOL    C7824606   1.595   0.917   0.178  0.7152  0.1256 -0.2268
   25MOL    C7924607   1.626   0.987   0.066  0.0890 -0.4182 -0.3211
   25MOL    C8024608   1.561   1.242   7.737  0.1301  0.1693  0.2338
   25MOL    C8124609   1.441   1.286   7.682 -0.0850  0.3417 -0.5665
   25MOL    H8224610   1.222   1.358   7.607  1.9379  1.7742 -0.7850
   25MOL    H8324611   1.297   1.415   7.969 -0.1527  0.3747 -0.0927
   25MOL    H8424612   1.503   1.337   0.084  2.0775  2.5605 -0.6582
   25MOL    H8524613   1.748   1.143   7.869  1.4453  0.7001  0.1790
   25MOL    H8624614   1.730   1.278   0.192  2.1199 -1.3234 -1.9376
   25MOL    H8724615   1.702   1.145   0.411  0.8990  0.6269 -0.7035
   25MOL    H8824616   1.680   0.905   0.498 -1.2046  0.4167  0.4098
   25MOL    H8924617   1.765   0.673   0.357  0.2905 -0.1234  4.4149
   25MOL    H9024618   1.672   0.454   0.307  1.5372  0.4461  1.7509
   25MOL    H9124619   1.311   0.385   0.332  0.4435  1.7389  0.2791
   25MOL    H9224620   1.556   0.180   0.407  0.7593 -1.4807 -0.7506
   25MOL    H9324621   1.674   0.014   0.264 -0.6331 -1.5282 -1.7185
   25MOL    H9424622   1.647   7.863   0.053 -0.2455  0.4401  0.7965
   25MOL    H9524623   1.775   7.978   0.023  0.0809  1.9406  0.3752
   25MOL    H9624624   1.520   0.212   7.904  0.2163  1.0593  0.6805
   25MOL    H9724625   1.408   0.388   0.074 -0.8616 -0.2084  0.1561
   25MOL    H9824626   1.278   0.595   0.425 -0.0677  0.8692  0.7324
   25MOL    H9924627   1.381   0.822   0.471  1.2755  1.3792 -0.2077
   25MOL   H10024628   1.586   0.810   0.166  1.4274 -0.3713  3.2861
   25MOL   H10124629   1.609   0.931   7.958 -0.8857  2.2832 -1.8669
   25MOL   H10224630   1.632   1.193   7.673  1.0087  3.0752 -1.0879
   25MOL   H10324631   1.426   1.263   7.577  0.8814 -3.3167  0.0497
   25MOL   N10424632   1.657   7.968   7.839  0.0299  0.1401 -0.0979
   25MOL   C10524633   1.636   7.859   7.757  0.1075  0.1730 -1.4768
   25MOL   C10624634   1.597   7.732   7.804 -0.4688  0.3083 -0.3574
   25MOL   C10724635   1.566   7.627   7.712 -0.6915 -0.4186  0.5158
   25MOL   C10824636   1.585   7.648   7.574  0.6325  0.0590 -0.1975
   25MOL   N10924637   1.561   7.538   7.483 -0.3700 -0.4577  0.4512
   25MOL   C11024638   1.500   7.412   7.508  0.0189  0.0747  0.5415
   25MOL   C11124639   1.570   7.318   7.594 -0.1325  0.6658 -0.4130
   25MOL   C11224640   1.512   7.202   7.633  0.3424  0.4040 -0.7392
   25MOL   C11324641   1.392   7.154   7.576 -0.4514  0.1405 -0.3741
   25MOL   N11424642   1.331   7.034   7.619  0.6623  0.2332 -0.1572
   25MOL   C11524643   1.242   6.947   7.553  0.1193  0.5299  0.4976
   25MOL   C11624644   1.237   6.937   7.417  0.1351  0.7611  0.0992
   25MOL   C11724645   1.154   6.842   7.350 -0.8617 -0.5625  0.2304
   25MOL   C11824646   1.066   6.772   7.430  0.0489  0.5982 -0.9180
   25MOL   N11924647   0.986   6.663   7.388 -0.6473  0.0730 -0.5755
   25MOL   C12024648   0.924   6.646   7.261  0.7515  0.3935  0.8610
   25MOL   C12124649   0.848   6.532   7.240  0.1104 -0.2180  0.5937
   25MOL   C12224650   0.806   6.501   7.106 -0.9101 -0.4800  0.3125
   25MOL   C12324651   0.832   6.587   7.000  0.3514 -0.1153 -0.5600
   25MOL   C12424652   0.789   6.560   6.856  0.2992  0.0158  0.5381
   25MOL   C12524653   0.892   6.707   7.022  0.4756  0.4565  0.1044
   25MOL   C12624654   0.933   6.732   7.150 -0.3207  0.2528 -0.0165
   25MOL   C12724655   1.061   6.786   7.573 -0.1320  0.6996  0.5422
   25MOL   C12824656   1.152   6.870   7.635  0.2101  0.2610  0.4334
   25MOL   C12924657   1.331   7.241   7.482  0.6184 -0.0377  0.1468
   25MOL   C13024658   1.386   7.369   7.446  0.3914 -0.3720  0.0687
   25MOL   C13124659   1.640   7.772   7.528  0.3819  0.4013 -0.3271
   25MOL   C13224660   1.657   7.878   7.620  0.0853 -0.6153  0.2308
   25MOL   H13324661   1.702   0.065   7.794 -2.3524  1.0850 -0.8529
   25MOL   H13424662   1.594   7.717   7.911 -0.1472  0.4980 -0.3198
   25MOL   H13524663   1.529   7.535   7.754  0.1791 -0.5209  1.0511
   25MOL   H13624664   1.613   7.557   7.399 -0.2854 -1.4252  0.2907
   25MOL   H13724665   1.672   7.343   7.622 -0.5877  2.1208 -0.0061
   25MOL   H13824666   1.554   7.147   7.716  1.0638  1.2569 -0.5237
   25MOL   H13924667   1.351   6.995   7.710  1.3708 -0.7251 -0.7132
   25MOL   H14024668   1.313   6.981   7.354 -1.1050  0.0224 -1.9701
   25MOL   H14124669   1.160   6.819   7.244 -0.5895 -0.7046  0.2757
   25MOL   H14224670   0.947   6.605   7.462 -2.1044 -1.3777 -2.4291
   25MOL   H14324671   0.828   6.449   7.305  0.2051  0.1157  1.0496
   25MOL   H14424672   0.750   6.409   7.094 -3.4317  1.0834 -0.3759
   25MOL   H14524673   0.750   6.657   6.827 -0.2192 -0.3347  0.0459
   25MOL   H14624674   0.709   6.486   6.858 -0.2585  0.5881 -0.2042
   25MOL   H14724675   0.929   6.760   6.935 -0.6089  3.1832  1.2357
   25MOL   H14824676   0.980   6.829   7.146  1.1569 -0.3433  1.8599
   25MOL   H14924677   0.997   6.728   7.638  1.2329 -0.4427  0.8873
   25MOL   H15024678   1.155   6.892   7.740 -0.7174  1.3293  0.2468
   25MOL   H15124679   1.242   7.211   7.428 -0.4689  3.1437  0.0574
   25MOL   H15224680   1.338   7.437   7.378  0.9865  0.9142  0.9217
   25MOL   H15324681   1.658   7.791   7.423 -2.2990  1.3759 -0.6639
   25MOL   H15424682   1.698   7.970   7.579 -0.8881 -0.3775 -0.2408
   25MOL   N15524683   0.904   6.512   6.784  0.0108  0.3497 -0.5031
   25MOL   C15624684   0.894   6.448   6.660  0.0632  0.1536 -0.1115
   25MOL   C15724685   0.995   6.361   6.621 -0.1494  0.1185 -0.8013
   25MOL   C15824686   0.990   6.288   6.502  0.2584  0.2641 -0.1407
   25MOL   C15924687   0.893   6.311   6.412 -0.2103 -0.2451 -0.1019
   25MOL   N16024688   0.895   6.232   6.294 -1.0256  0.4471 -0.4859
   25MOL   C16124689   0.807   6.245   6.186  0.0681 -0.0456  0.7482
   25MOL   C16224690   0.746   6.126   6.146  0.6505 -0.1003  0.2442
   25MOL   C16324691   0.671   6.130   6.029 -0.4623  0.0964  0.7347
   25MOL   C16424692   0.662   6.250   5.953  0.0540 -0.6925  0.4227
   25MOL   N16524693   0.606   6.250   5.824 -0.2975  0.4528  0.1844
   25MOL   C16624694   0.506   6.170   5.773 -0.8896 -0.3956  0.3321
   25MOL   C16724695   0.496   6.154   5.631 -0.5400  0.2451  0.0591
   25MOL   C16824696   0.399   6.067   5.572 -0.7523  0.1760 -0.6458
   25MOL   C16924697   0.312   5.995   5.653 -0.0156 -0.2594 -0.1161
   25MOL   N17024698   0.212   5.911   5.599  0.0006  0.4173  0.3729
   25MOL   C17124699   0.146   5.935   5.484  0.0215  0.4041  0.5630
   25MOL   C17224700   0.109   6.066   5.438 -0.5212  0.7244  0.1185
   25MOL   C17324701   0.042   6.088   5.319 -0.3472  0.9397  1.0147
   25MOL   C17424702   7.982   5.978   5.236  0.1052 -0.4966  0.0528
   25MOL   C17524703   7.912   5.999   5.104 -0.2599 -0.1574  0.2858
   25MOL   C17624704   0.026   5.848   5.291  0.2750 -0.4472 -0.4853
   25MOL   C17724705   0.101   5.825   5.408 -0.7972 -0.2381  0.5221
   25MOL   C17824706   0.316   6.015   5.791  0.0892 -0.0045  0.3951
   25MOL   C17924707   0.402   6.112   5.850 -0.5045  0.1434 -0.1808
   25MOL   C18024708   0.712   6.371   6.000  0.2934 -0.3867 -0.3026
   25MOL   C18124709   0.789   6.373   6.118  0.5570  0.0661 -0.3971
   25MOL   C18224710   0.785   6.397   6.446 -0.4106 -0.4675  0.2927
   25MOL   C18324711   0.786   6.462   6.570  0.9114  0.4446  0.5149
   25MOL   H18424712   0.970   6.484   6.856 -0.0215 -1.5896 -1.2009
   25MOL   H18524713   1.085   6.347   6.678 -0.8395 -1.6304 -0.1085
   25MOL   H18624714   1.079   6.232   6.476  1.6845  2.1316  0.6623
   25MOL   H18724715   0.964   6.159   6.279 -1.7268 -0.4168  0.4423
   25MOL   H18824716   0.758   6.032   6.198  1.8775 -0.9962 -1.6007
   25MOL   H18924717   0.627   6.042   5.982  0.1808  0.1706 -0.0275
   25MOL   H19024718   0.633   6.328   5.766  1.9646 -0.2878  0.1998
   25MOL   H19124719   0.567   6.203   5.567 -2.2760  2.2247 -0.4340
   25MOL   H19224720   0.400   6.046   5.466 -0.8990 -0.8194 -0.4513
   25MOL   H19324721   0.181   5.837   5.659 -0.9421  0.2793 -0.2767
   25MOL   H19424722   0.140   6.155   5.492 -1.7338  2.1823 -1.5601
   25MOL   H19524723   0.038   6.182   5.267  2.4187  1.0881  1.0356
   25MOL   H19624724   7.966   5.941   5.030 -0.9107  0.2859 -0.5559
   25MOL   H19724725   7.929   6.103   5.074  1.4364 -0.1017  1.4180
   25MOL   H19824726   7.967   5.767   5.232 -2.4049 -0.9195  1.8840
   25MOL   H19924727   0.129   5.725   5.437 -3.0692 -1.3031 -0.8205
   25MOL   H20024728   0.238   5.968   5.850  0.3643 -1.1201 -0.1090
   25MOL   H20124729   0.400   6.140   5.954  0.4359 -2.7401  0.6527
   25MOL   H20224730   0.698   6.462   5.944 -2.6656 -1.3255 -1.1847
   25MOL   H20324731   0.838   6.461   6.157 -1.3245  0.7382  0.4938
   25MOL   H20424732   0.703   6.419   6.379  1.0971 -1.1806 -1.8289
   25MOL   H20524733   0.709   6.533   6.596 -2.3702 -2.3541 -1.1035
   25MOL   N20624734   7.772   5.946   5.095 -0.6885 -0.5771 -0.4101
   25MOL   C20724735   7.679   6.017   5.171 -0.5581 -0.3083 -0.1813
   25MOL   C20824736   7.585   6.095   5.101  0.1893  0.3650  0.2110
   25MOL   C20924737   7.482   6.165   5.175  0.0118  0.2515 -0.2646
   25MOL   C21024738   7.498   6.181   5.313 -0.3629  0.0068  0.1507
   25MOL   N21124739   7.411   6.257   5.391 -0.2838 -0.2781 -0.2618
   25MOL   C21224740   7.443   6.313   5.518  0.2166 -0.2841 -0.4690
   25MOL   C21324741   7.366   6.272   5.625  0.4003  0.5005  0.3178
   25MOL   C21424742   7.402   6.326   5.754 -0.1625  0.3071 -0.5987
   25MOL   C21524743   7.498   6.426   5.762  0.2358 -0.1128  0.4081
   25MOL   N21624744   7.530   6.469   5.892  0.0141  0.7537 -0.3857
   25MOL   C21724745   7.445   6.532   5.979 -0.7827  0.0647 -0.2237
   25MOL   C21824746   7.450   6.494   6.115  0.2650  0.3267 -0.2518
   25MOL   C21924747   7.369   6.561   6.210 -0.5890 -0.5924  1.2160
   25MOL   C22024748   7.278   6.663   6.171 -0.0169  0.4526 -0.0461
   25MOL   N22124749   7.198   6.730   6.264  0.1662  0.6708 -0.3866
   25MOL   C22224750   7.217   6.750   6.404  0.6095 -0.2149 -0.3383
   25MOL   C22324751   7.345   6.756   6.456 -0.0363 -0.0293  0.5627
   25MOL   C22424752   7.364   6.768   6.592 -1.3729 -0.3843  0.5944
   25MOL   C22524753   7.256   6.783   6.679  0.3711 -0.6756 -0.4981
   25MOL   C22624754   7.268   6.797   6.826 -0.2676  1.5952  0.2835
   25MOL   C22724755   7.121   6.794   6.626  0.5438 -0.0172 -0.0651
   25MOL   C22824756   7.102   6.777   6.485 -0.4181  0.4421  0.0145
   25MOL   C22924757   7.262   6.693   6.032  0.4551 -0.6059  0.0364
   25MOL   C23024758   7.348   6.624   5.938 -0.5348 -0.3927 -0.2055
   25MOL   C23124759   7.567   6.464   5.651 -0.0713  0.6612  0.1860
   25MOL   C23224760   7.541   6.408   5.524  0.1385  0.0304  0.4129
   25MOL   C23324761   7.596   6.106   5.376  0.2248 -0.3496 -0.0415
   25MOL   C23424762   7.681   6.019   5.311  0.0806 -0.2866 -0.6536
   25MOL   H23524763   7.748   5.918   5.001 -2.6160  0.0724 -0.1477
   25MOL   H23624764   7.588   6.096   4.993  0.9983  0.2522  0.2307
   25MOL   H23724765   7.412   6.231   5.126  0.2446 -0.1277 -1.1187
   25MOL   H23824766   7.315   6.229   5.379 -0.3159  0.1241 -0.9368
   25MOL   H23924767   7.294   6.192   5.615  0.1095  0.4353  2.7128
   25MOL   H24024768   7.358   6.289   5.845 -1.9393 -0.9314 -1.9207
   25MOL   H24124769   7.629   6.485   5.903 -0.5859  4.4366  0.3255
   25MOL   H24224770   7.516   6.414   6.143 -1.9330 -0.7142  2.1799
   25MOL   H24324771   7.380   6.532   6.314  1.3641 -2.0158  0.6308
   25MOL   H24424772   7.111   6.757   6.221 -0.4856 -0.4919  0.1830
   25MOL   H24524773   7.431   6.746   6.391 -0.4728  0.0667 -0.0300
   25MOL   H24624774   7.464   6.765   6.632 -0.3979 -0.9835 -1.7703
   25MOL   H24724775   7.291   6.700   6.871 -2.0853  1.3452  0.7222
   25MOL   H24824776   7.172   6.825   6.869  0.8158  4.3712  1.0325
   25MOL   H24924777   7.037   6.806   6.693  0.1536 -2.3027 -0.1331
   25MOL   H25024778   7.003   6.790   6.444  0.6741  0.7450 -2.5880
   25MOL   H25124779   7.188   6.763   5.997  0.1730 -0.8049  0.2310
   25MOL   H25224780   7.335   6.642   5.832  1.6526  0.0964 -0.4262
   25MOL   H25324781   7.638   6.544   5.662 -0.4810  0.6948  3.1586
   25MOL   H25424782   7.592   6.436   5.433 -1.7057  1.7447 -0.1301
   25MOL   H25524783   7.608   6.110   5.484 -2.7417 -0.6674  0.3392
   25MOL   H25624784   7.749   5.968   5.377  0.4244 -2.3879 -2.5913
   25MOL   N25724785   7.377   6.883   6.885  0.1588  0.8204 -0.1855
   25MOL   C25824786   7.369   7.020   6.882  0.1995 -0.2801  0.5154
   25MOL   C25924787   7.498   7.080   6.882  0.2954 -0.3990 -0.2388
   25MOL   C26024788   7.515   7.220   6.877 -0.1001  0.1395 -1.0670
   25MOL   C26124789   7.405   7.302   6.853  0.7256 -0.4964  0.5960
   25MOL   N26224790   7.403   7.441   6.831  0.6304  0.0022 -0.1858
   25MOL   C26324791   7.513   7.530   6.831  0.5538 -0.0947 -0.0809
   25MOL   C26424792   7.496   7.663   6.871  0.2597 -0.3512  0.4172
   25MOL   C26524793   7.609   7.741   6.897  0.1561  0.2356 -0.2888
   25MOL   C26624794   7.738   7.694   6.880 -0.2995 -0.2389  0.2967
   25MOL   N26724795   7.849   7.776   6.916  0.1110  0.2761 -0.8115
   25MOL   C26824796   7.981   7.765   6.864 -0.0369  0.2932 -0.6476
   25MOL   C26924797   0.116   7.760   6.943 -0.1434  0.1221 -1.7095
   25MOL   C27024798   0.243   7.743   6.882  0.5378  0.0429 -0.3965
   25MOL   C27124799   0.252   7.734   6.744  0.3542  0.7027  0.2249
   25MOL   N27224800   0.375   7.711   6.682  0.0700  0.6507  0.1068
   25MOL   C27324801   0.412   7.600   6.598  0.2500  0.1778 -0.1652
   25MOL   C27424802   0.543   7.572   6.566  0.6081 -0.1258  0.5816
   25MOL   C27524803   0.580   7.455   6.493  0.2123 -0.5015  0.5279
   25MOL   C27624804   0.481   7.370   6.440  0.2233  0.3391  0.0536
   25MOL   C27724805   0.515   7.251   6.363 -0.0454 -0.1039 -0.1744
   25MOL   C27824806   0.346   7.400   6.479  0.6392  0.8761  0.2069
   25MOL   C27924807   0.314   7.513   6.549  0.4379  0.0870  0.3825
   25MOL   C28024808   0.135   7.756   6.670 -0.1626 -0.4837  0.3331
   25MOL   C28124809   0.010   7.762   6.726 -0.4463  0.2325 -0.0613
   25MOL   C28224810   7.755   7.566   6.814 -0.2116  0.2975  0.4908
   25MOL   C28324811   7.640   7.490   6.786  0.1990 -0.2296  0.4342
   25MOL   C28424812   7.283   7.237   6.838 -0.5600 -0.4762  0.0308
   25MOL   C28524813   7.259   7.100   6.861 -0.1264  0.1148  0.4207
   25MOL   H28624814   7.470   6.845   6.886  0.1298  0.7198 -1.1575
   25MOL   H28724815   7.578   7.009   6.898  0.9590  0.0266 -1.6169
   25MOL   H28824816   7.614   7.258   6.898  0.3636 -0.0157 -2.8536
   25MOL   H28924817   7.314   7.488   6.836  0.6483 -0.1210  1.9355
   25MOL   H29024818   7.402   7.709   6.896  0.2410  0.7057 -1.4795
   25MOL   H29124819   7.597   7.835   6.948 -0.2906 -1.4249  2.7962
   25MOL   H29224820   7.838   7.818   7.006  1.2913  3.3279 -2.0339
   25MOL   H29324821   0.115   7.755   7.051  0.1626 -1.6970 -1.7908
   25MOL   H29424822   0.334   7.726   6.938  1.9091  4.0233 -1.2222
   25MOL   H29524823   0.451   7.747   6.738  0.1441  0.6549  0.0021
   25MOL   H29624824   0.624   7.629   6.607 -0.1838  1.5123 -0.0815
   25MOL   H29724825   0.685   7.431   6.483  0.0658 -2.2125  2.6429
   25MOL   H29824826   0.519   7.165   6.429  0.2343  1.3154  1.7000
   25MOL   H29924827   0.611   7.263   6.313  0.2754  0.8378  0.6463
   25MOL   H30024828   0.269   7.336   6.439  1.2119  0.2804  0.0520
   25MOL   H30124829   0.210   7.531   6.574  0.4751  1.5146 -0.4039
   25MOL   H30224830   0.124   7.761   6.563 -0.9894  0.8414  0.4634
   25MOL   H30324831   7.910   7.770   6.656 -1.8894 -0.3081  1.5187
   25MOL   H30424832   7.856   7.539   6.784 -0.2566  0.5035  0.1589
   25MOL   H30524833   7.648   7.392   6.741  2.4455  0.3917 -0.5468
   25MOL   H30624834   7.196   7.294   6.809  0.8719  2.1287  0.6903
   25MOL   H30724835   7.159   7.063   6.844 -0.4948  0.5832  1.5005
   25MOL   N30824836   0.422   7.233   6.250 -0.4644  0.0563 -0.3374
   25MOL   C30924837   0.418   7.109   6.176  0.4108 -0.0683 -0.3971
   25MOL   C31024838   0.521   7.014   6.188 -0.4723 -0.8991  0.0155
   25MOL   C31124839   0.523   6.898   6.115  0.7555 -0.1906  0.1720
   25MOL   C31224840   0.419   6.867   6.023  0.0262 -0.6491 -0.5419
   25MOL   N31324841   0.426   6.740   5.958  0.8071  0.0465  0.5616
   25MOL   C31424842   0.379   6.698   5.839  0.2493 -0.4076  0.8329
   25MOL   C31524843   0.382   6.562   5.812  0.1200  0.1312  0.3738
   25MOL   C31624844   0.359   6.517   5.679  0.2246  0.2514 -0.7663
   25MOL   C31724845   0.331   6.610   5.575  0.1478  0.1750  0.5586
   25MOL   N31824846   0.306   6.575   5.441 -0.4214 -0.2725 -0.9986
   25MOL   C31924847   0.350   6.456   5.386 -0.0433  0.1565 -0.0485
   25MOL   C32024848   0.479   6.409   5.414 -0.0406  0.0810  0.3480
   25MOL   C32124849   0.539   6.306   5.340 -0.2647 -0.4921 -0.2244
   25MOL   C32224850   0.457   6.236   5.246 -0.0037 -0.1222  0.6699
   25MOL   N32324851   0.513   6.129   5.178  1.2050  0.3959 -0.4193
   25MOL   C32424852   0.434   6.032   5.119  0.2717  0.3711 -0.7180
   25MOL   C32524853   0.396   6.054   4.982  0.4417  0.4180  0.7556
   25MOL   C32624854   0.347   5.947   4.906 -0.2066  0.0860 -0.2837
   25MOL   C32724855   0.312   5.830   4.966 -0.4461  0.5210 -0.1683
   25MOL   C32824856   0.251   5.720   4.888 -0.4701  0.4327  0.0542
   25MOL   C32924857   0.343   5.815   5.102 -0.0312 -0.1502  0.2747
   25MOL   C33024858   0.407   5.908   5.180  0.6297  0.0049 -0.8234
   25MOL   C33124859   0.321   6.274   5.221 -0.3578 -0.4146  0.2439
   25MOL   C33224860   0.275   6.393   5.291 -0.4732  0.6191  0.3091
   25MOL   C33324861   0.320   6.744   5.610  0.3264 -0.1769 -0.3047
   25MOL   C33424862   0.338   6.793   5.739  0.0558  0.1188 -0.7993
   25MOL   C33524863   0.305   6.957   6.015  0.6251  0.4909 -0.4716
   25MOL   C33624864   0.311   7.078   6.088 -0.3195 -0.3562  0.5202
   25MOL   H33724865   0.342   7.291   6.228 -0.1299  0.6803  0.0958
   25MOL   H33824866   0.595   7.022   6.266 -0.5075 -0.8759  0.0467
   25MOL   H33924867   0.601   6.828   6.142  1.9316  1.6802  1.7035
   25MOL   H34024868   0.493   6.677   6.001 -0.5657 -1.9964 -0.2037
   25MOL   H34124869   0.395   6.490   5.892 -0.4508  1.4047  1.6458
   25MOL   H34224870   0.354   6.410   5.660  2.0052  0.4126 -2.2654
   25MOL   H34324871   0.275   6.648   5.380 -2.0977 -0.6732 -0.6398
   25MOL   H34424872   0.533   6.463   5.491  0.0333  2.1192 -1.0968
   25MOL   H34524873   0.644   6.283   5.352  0.2744  2.4579  1.3723
   25MOL   H34624874   0.579   6.077   5.233 -0.9980 -1.0945  0.8753
   25MOL   H34724875   0.420   6.144   4.928 -1.8604  1.0402  0.7410
   25MOL   H34824876   0.334   5.958   4.800 -0.3123 -1.1296 -0.3994
   25MOL   H34924877   0.317   5.634   4.889 -1.8566 -0.6452  2.2818
   25MOL   H35024878   0.252   5.741   4.781 -1.8914 -0.8100 -0.2269
   25MOL   H35124879   0.334   5.718   5.149  1.9430 -0.4023  0.1612
   25MOL   H35224880   0.450   5.871   5.272 -1.4260  0.7144  0.4355
   25MOL   H35324881   0.251   6.225   5.155 -1.8586  0.0044  1.4755
   25MOL   H35424882   0.173   6.427   5.277 -0.3625 -0.1038 -2.5979
   25MOL   H35524883   0.279   6.809   5.534 -0.3543 -1.2758 -0.8913
   25MOL   H35624884   0.329   6.900   5.753 -4.1251 -0.4138  1.7961
   25MOL   H35724885   0.225   6.943   5.944  0.7554 -0.0622 -0.5077
   25MOL   H35824886   0.229   7.148   6.079 -0.3841 -0.3564  1.0808
   25MOL   N35924887   0.123   5.699   4.938 -0.0641 -0.3317  0.0812
   25MOL   C36024888   0.043   5.595   4.889  0.1422  0.0323 -0.0008
   25MOL   C36124889   0.079   5.497   4.789  0.2534 -0.3230  0.1182
   25MOL   C36224890   7.976   5.396   4.758  0.6703  0.0615  0.0707
   25MOL   C36324891   7.853   5.389   4.820  0.3909  0.3491  0.0335
   25MOL   N36424892   7.761   5.281   4.796  0.2741 -0.5166  0.6642
   25MOL   C36524893   7.625   5.290   4.761  0.1899  1.0431  0.2871
   25MOL   C36624894   7.538   5.202   4.828  0.4537 -0.5040  0.2408
   25MOL   C36724895   7.403   5.215   4.796 -0.0929  0.4939  0.0175
   25MOL   C36824896   7.355   5.291   4.689 -0.5568 -0.2325  1.1706
   25MOL   N36924897   7.220   5.307   4.644 -0.2733 -0.0668  0.3300
   25MOL   C37024898   7.111   5.224   4.672  0.4207 -0.0868 -0.3954
   25MOL   C37124899   7.109   5.081   4.654 -0.5981 -0.3286  0.2412
   25MOL   C37224900   6.985   5.015   4.678 -0.4322 -0.5200 -0.0470
   25MOL   C37324901   6.872   5.082   4.728 -0.5580 -0.5013 -0.1124
   25MOL   N37424902   6.758   5.017   4.771 -0.3445 -0.3889 -0.3851
   25MOL   C37524903   6.747   4.886   4.821  0.5880 -0.1737  0.1032
   25MOL   C37624904   6.702   4.867   4.951  0.2861  0.2804 -0.2297
   25MOL   C37724905   6.682   4.736   5.000 -0.5609 -0.2834  0.6750
   25MOL   C37824906   6.702   4.619   4.919 -0.2602 -0.8226  0.0217
   25MOL   C37924907   6.703   4.480   4.972  0.3216  0.0823  0.7102
   25MOL   C38024908   6.746   4.646   4.785 -0.1428  0.0003 -0.5664
   25MOL   C38124909   6.775   4.774   4.736 -1.2377  0.4594 -0.3893
   25MOL   C38224910   6.877   5.223   4.731  0.4911  0.0381 -0.7144
   25MOL   C38324911   6.996   5.284   4.703 -0.6441 -0.1795  0.2905
   25MOL   C38424912   7.443   5.378   4.621  0.5434  0.2228 -0.0353
   25MOL   C38524913   7.577   5.379   4.656  0.3141  0.8124  0.7645
   25MOL   C38624914   7.814   5.479   4.928  0.5564 -0.0623 -0.1942
   25MOL   C38724915   7.904   5.583   4.960 -0.2647  0.0207  0.3390
   25MOL   H38824916   0.086   5.752   5.015  0.5166  0.2760 -0.0626
   25MOL   H38924917   0.174   5.508   4.739  1.2062 -1.2364  1.6980
   25MOL   H39024918   0.020   5.326   4.681  2.2623  0.1754  0.4799
   25MOL   H39124919   7.794   5.186   4.791 -0.9473 -0.9356  0.1965
   25MOL   H39224920   7.575   5.149   4.914  2.9892  3.3489  1.6832
   25MOL   H39324921   7.341   5.142   4.846  3.3963 -1.8862  1.0664
   25MOL   H39424922   7.193   5.395   4.602 -2.2368 -0.0160  1.6385
   25MOL   H39524923   7.197   5.032   4.616 -0.8718 -0.9034  0.3497
   25MOL   H39624924   6.996   4.910   4.654  0.0269 -0.4064 -0.3391
   25MOL   H39724925   6.687   5.082   4.801 -0.4677 -0.6999 -0.0021
   25MOL   H39824926   6.683   4.958   5.006  1.7729  1.3693 -1.4652
   25MOL   H39924927   6.643   4.719   5.099 -1.9635  1.1930  0.3972
   25MOL   H40024928   6.729   4.479   5.078  2.4275 -1.2836  0.2238
   25MOL   H40124929   6.778   4.421   4.919  0.4607  0.3633  0.5879
   25MOL   H40224930   6.748   4.557   4.724  1.5010  0.6998 -1.5821
   25MOL   H40324931   6.794   4.789   4.630 -0.4140 -2.2191 -0.6771
   25MOL   H40424932   6.789   5.272   4.770  0.7984  0.9611 -1.1776
   25MOL   H40524933   6.989   5.392   4.706 -0.6117 -0.2123  1.7846
   25MOL   H40624934   7.415   5.449   4.545  2.8641  0.6858 -0.4893
   25MOL   H40724935   7.646   5.447   4.608 -0.8519  0.8405 -0.8970
   25MOL   H40824936   7.714   5.464   4.964 -0.0246  0.2696 -1.6308
   25MOL   H40924937   7.876   5.653   5.037  0.5420 -0.8644  1.4619
   25MOL   N41024938   6.576   4.410   4.960  0.3141  0.1644 -0.1973
   25MOL   C41124939   6.455   4.463   5.017  0.1238 -0.9382 -0.2576
   25MOL   C41224940   6.450   4.531   5.142 -0.0279  0.0905 -0.7029
   25MOL   C41324941   6.332   4.578   5.194  0.0845 -1.0566  0.2230
   25MOL   C41424942   6.208   4.551   5.129 -0.2614  1.0282 -0.9357
   25MOL   N41524943   6.094   4.598   5.186 -0.0176 -0.3439 -0.3377
   25MOL   C41624944   5.970   4.595   5.126  0.5396 -0.4613  0.2910
   25MOL   C41724945   5.864   4.521   5.179  0.2463 -0.6126  0.0969
   25MOL   C41824946   5.747   4.494   5.109 -0.6100 -0.2160  0.9668
   25MOL   C41924947   5.735   4.561   4.986 -0.6777  0.2641 -0.1803
   25MOL   N42024948   5.622   4.546   4.896  0.2967  0.4204  0.0078
   25MOL   C42124949   5.516   4.453   4.912 -0.2686 -0.8365  0.3683
   25MOL   C42224950   5.387   4.507   4.944 -0.4191 -0.3604  0.3656
   25MOL   C42324951   5.280   4.414   4.929 -0.0601 -0.2297  0.1432
   25MOL   C42424952   5.301   4.279   4.909 -0.2328  0.3062  0.2318
   25MOL   N42524953   5.190   4.198   4.921  0.4220 -0.4172 -0.3677
   25MOL   C42624954   5.170   4.095   5.009 -0.3148  0.0972 -0.0119
   25MOL   C42724955   5.255   4.070   5.118 -0.3688  0.2380 -0.1280
   25MOL   C42824956   5.222   3.968   5.213 -0.6226  0.2091 -0.1499
   25MOL   C42924957   5.097   3.900   5.197  0.0722  0.3971 -0.0786
   25MOL   C43024958   5.056   3.798   5.303 -0.6898 -0.4467 -0.0657
   25MOL   C43124959   5.012   3.928   5.091  0.3251 -0.4809  0.4375
   25MOL   C43224960   5.051   4.029   4.997 -0.2745  0.5881 -0.3842
   25MOL   C43324961   5.430   4.228   4.882 -0.2085  0.3461  0.0112
   25MOL   C43424962   5.541   4.317   4.891 -0.1645 -0.3415  0.7473
   25MOL   C43524963   5.834   4.646   4.936 -0.0311 -0.1772 -0.2403
   25MOL   C43624964   5.950   4.666   5.006 -0.2034  0.7271  0.4680
   25MOL   C43724965   6.212   4.479   5.008  0.7827 -0.4180  0.2810
   25MOL   C43824966   6.334   4.444   4.949  0.3292  0.8004 -0.7935
   25MOL   H43924967   6.561   4.368   4.870 -1.3012 -0.8374  0.5146
   25MOL   H44024968   6.540   4.553   5.198  0.7734 -0.2260 -1.8364
   25MOL   H44124969   6.337   4.639   5.283 -0.2389  1.0553 -1.1449
   25MOL   H44224970   6.094   4.627   5.282 -0.1283  0.4933 -0.5895
   25MOL   H44324971   5.866   4.461   5.269  0.9248  0.2785  0.6804
   25MOL   H44424972   5.674   4.424   5.148 -2.1532  0.6734 -0.2667
   25MOL   H44524973   5.622   4.590   4.806  0.0134 -0.7165 -0.5639
   25MOL   H44624974   5.370   4.609   4.972 -2.3121 -0.5755  0.0549
   25MOL   H44724975   5.177   4.449   4.932 -0.5460 -1.7096  1.2650
   25MOL   H44824976   5.099   4.241   4.909  1.8797  2.2776 -2.6716
   25MOL   H44924977   5.346   4.127   5.133 -0.5671  0.0191  2.0076
   25MOL   H45024978   5.294   3.941   5.289 -1.3486  1.5983  1.0426
   25MOL   H45124979   5.027   3.854   5.392  0.2418 -0.5204  0.2913
   25MOL   H45224980   5.146   3.743   5.330  0.0813  1.6168  1.7972
   25MOL   H45324981   4.919   3.876   5.075  0.1420  0.5407 -1.9780
   25MOL   H45424982   4.986   4.057   4.916  0.5953 -2.6363 -2.2555
   25MOL   H45524983   5.439   4.121   4.880  0.0653  0.3799 -0.5943
   25MOL   H45624984   5.635   4.272   4.861  1.0569  2.2201  0.6619
   25MOL   H45724985   5.816   4.697   4.842  2.1895  1.2371  0.0687
   25MOL   H45824986   6.030   4.717   4.954 -0.1272 -0.0083 -0.1506
   25MOL   H45924987   6.120   4.458   4.956 -0.6213 -0.2049  2.6154
   25MOL   H46024988   6.332   4.393   4.853 -0.6537 -0.9257  0.1190
   25MOL   N46124989   4.939   3.716   5.257 -0.1865  0.0866  0.2341
   25MOL   C46224990   4.913   3.591   5.309  0.1044  0.1038 -0.1429
   25MOL   C46324991   4.815   3.518   5.248  0.3723 -1.5197  0.4168
   25MOL   C46424992   4.777   3.388   5.290 -0.1356  0.2462 -0.5214
   25MOL   C46524993   4.840   3.332   5.403 -0.9902  0.4047 -0.9344
   25MOL   N46624994   4.820   3.202   5.448  0.3725  0.1198 -0.1340
   25MOL   C46724995   4.697   3.134   5.461 -0.4883  0.2187 -0.3526
   25MOL   C46824996   4.697   2.995   5.462 -0.1005 -0.7349 -0.7607
   25MOL   C46924997   4.576   2.915   5.464 -0.1268 -0.3456  0.2338
   25MOL   C47024998   4.454   2.977   5.466  0.3839 -0.8334 -0.2943
   25MOL   N47124999   4.331   2.918   5.460  0.1389 -0.1905 -0.3488
   25MOL   C47225000   4.267   2.864   5.574 -0.1331 -1.0763 -0.3854
   25MOL   C47325001   4.340   2.852   5.698  0.0193  1.2669  0.0663
   25MOL   C47425002   4.280   2.783   5.804  0.0786 -0.2552  0.2182
   25MOL   C47525003   4.143   2.737   5.793  0.2656 -0.6784  0.3668
   25MOL   N47625004   4.080   2.669   5.901 -0.1592  0.1952  0.0428
   25MOL   C47725005   4.133   2.574   5.989 -0.1599 -0.0697 -0.8053
   25MOL   C47825006   4.251   2.502   5.967 -0.2326 -0.3689  0.4622
   25MOL   C47925007   4.286   2.399   6.052  0.4464  0.4968 -0.6891
   25MOL   C48025008   4.213   2.374   6.174 -0.4887 -0.3105  0.3331
   25MOL   C48125009   4.286   2.293   6.278  0.2509  0.0593  0.3982
   25MOL   C48225010   4.091   2.438   6.191  0.1845  0.5698 -0.4117
   25MOL   C48325011   4.050   2.538   6.102 -0.2082 -0.0176  0.0643
   25MOL   C48425012   4.066   2.764   5.677 -0.5668 -0.6211  0.0224
   25MOL   C48525013   4.132   2.821   5.565 -0.0358  0.7602 -0.1782
   25MOL   C48625014   4.451   3.121   5.459 -0.0137  0.1519  0.1522
   25MOL   C48725015   4.571   3.195   5.453  0.0137 -0.0871  0.1094
   25MOL   C48825016   4.942   3.404   5.462  0.2778 -0.3689 -0.1445
   25MOL   C48925017   4.973   3.538   5.423  0.2395 -0.0806  0.8838
   25MOL   H49025018   4.895   3.739   5.169  1.6833 -0.6973 -0.9427
   25MOL   H49125019   4.770   3.554   5.156  0.3553 -0.7654  0.7235
   25MOL   H49225020   4.693   3.335   5.247 -1.2396 -0.8455  2.8435
   25MOL   H49325021   4.901   3.145   5.466  0.1500 -0.9446 -2.3047
   25MOL   H49425022   4.785   2.934   5.471  0.9634  0.9351  0.3706
   25MOL   H49525023   4.588   2.809   5.449 -0.7842 -0.4142  0.1315
   25MOL   H49625024   4.260   2.963   5.404 -0.8982  0.0133  1.1065
   25MOL   H49725025   4.447   2.868   5.704  0.3873 -1.3977  1.0137
   25MOL   H49825026   4.349   2.767   5.885 -0.9524 -1.3869  0.8829
   25MOL   H49925027   3.980   2.682   5.911 -0.7518 -2.8398 -1.2534
   25MOL   H50025028   4.304   2.515   5.874 -2.6252  0.2350 -0.8507
   25MOL   H50125029   4.364   2.331   6.022 -0.4135 -0.8534  0.0944
   25MOL   H50225030   4.250   2.196   6.243 -0.5958 -0.0921  1.6474
   25MOL   H50325031   4.249   2.319   6.377 -2.0810 -0.0473 -0.4169
   25MOL   H50425032   4.031   2.421   6.279 -1.0582  1.3721 -1.0878
   25MOL   H50525033   3.963   2.597   6.128  0.0302  0.4315 -0.1447
   25MOL   H50625034   3.963   2.731   5.683 -0.4682 -0.8178  0.6762
   25MOL   H50725035   4.069   2.842   5.480  0.3509  3.3014  0.1188
   25MOL   H50825036   4.353   3.166   5.459 -0.2457 -0.3389 -0.6746
   25MOL   H50925037   4.557   3.302   5.449  0.0666 -0.1304 -1.3864
   25MOL   H51025038   4.988   3.361   5.550  2.9829 -0.3823 -1.5235
   25MOL   H51125039   5.041   3.597   5.481  0.6129 -1.5303  1.9512
   25MOL   N51225040   4.435   2.290   6.277 -0.3410  0.6398  0.0609
   25MOL   C51325041   4.498   2.415   6.298  0.1229  0.0587  0.2929
   25MOL   C51425042   4.428   2.531   6.341 -0.0521 -1.3753 -0.2869
   25MOL   C51525043   4.498   2.653   6.338  0.4571 -0.4350 -0.9254
   25MOL   C51625044   4.632   2.659   6.294 -0.0054 -0.3093  0.5600
   25MOL   N51725045   4.691   2.779   6.278  0.2612 -0.1514  0.3999
   25MOL   C51825046   4.644   2.893   6.207  0.0233  0.1873  0.4890
   25MOL   C51925047   4.723   3.009   6.206  0.8594 -0.4725 -1.1051
   25MOL   C52025048   4.672   3.120   6.133  0.5202  0.2089  0.9212
   25MOL   C52125049   4.548   3.113   6.062  0.3659  0.2679  0.1680
   25MOL   N52225050   4.493   3.224   6.008  0.1010 -1.1109  0.8027
   25MOL   C52325051   4.557   3.304   5.908  1.2913  0.0438 -0.4856
   25MOL   C52425052   4.683   3.273   5.848 -0.1238  0.3380 -0.5394
   25MOL   C52525053   4.739   3.356   5.751  0.2961  0.2191 -0.9560
   25MOL   C52625054   4.673   3.480   5.726 -0.4812 -0.4913 -0.0498
   25MOL   N52725055   4.740   3.581   5.654 -0.2142 -0.2806 -0.1819
   25MOL   C52825056   4.762   3.713   5.706 -0.8119 -0.6252  0.7813
   25MOL   C52925057   4.754   3.744   5.843 -0.3129  0.2950 -0.4713
   25MOL   C53025058   4.770   3.874   5.897  0.7316 -0.2073  0.4026
   25MOL   C53125059   4.795   3.977   5.801 -0.5348 -0.0760 -0.4414
   25MOL   C53225060   4.799   4.120   5.843  0.2879 -1.0294  0.2834
   25MOL   C53325061   4.814   3.944   5.666  0.7343  0.6213 -0.0058
   25MOL   C53425062   4.805   3.814   5.621 -0.9821  0.2610  0.2470
   25MOL   C53525063   4.540   3.499   5.770  0.0594 -0.6925  0.0482
   25MOL   C53625064   4.484   3.413   5.858 -0.0990 -0.5416 -0.1168
   25MOL   C53725065   4.475   2.993   6.062  0.1567 -0.1474 -0.4825
   25MOL   C53825066   4.517   2.886   6.140 -0.4077  0.2622 -0.3505
   25MOL   C53925067   4.700   2.543   6.260 -0.7196  0.5197 -0.5560
   25MOL   C54025068   4.635   2.422   6.264  0.0159 -0.0597  0.0190
   25MOL   H54125069   4.486   2.206   6.256  0.1249  1.5305 -2.5814
   25MOL   H54225070   4.323   2.527   6.368 -0.0139  0.1556  0.1090
   25MOL   H54325071   4.450   2.744   6.370 -0.7268 -0.5834 -2.2357
   25MOL   H54425072   4.791   2.778   6.295  0.4119 -0.7537 -0.5110
   25MOL   H54525073   4.818   3.013   6.257 -1.3677  0.1092  3.2760
   25MOL   H54625074   4.723   3.215   6.138 -2.0208  1.7036 -0.3592
   25MOL   H54725075   4.393   3.220   5.996 -0.0670  2.6891  0.4309
   25MOL   H54825076   4.736   3.185   5.882 -0.4424  0.7591  1.1239
   25MOL   H54925077   4.836   3.331   5.712 -0.4062 -1.2082 -1.8177
   25MOL   H55025078   4.812   3.556   5.588  0.4973  0.5955  0.2575
   25MOL   H55125079   4.730   3.661   5.908  0.6390 -0.7345 -1.4133
   25MOL   H55225080   4.762   3.899   6.002 -1.7146 -0.1618  0.2447
   25MOL   H55325081   4.707   4.158   5.886 -0.1714 -1.8897  0.0690
   25MOL   H55425082   4.818   4.179   5.753 -1.2895 -0.1277  0.5304
   25MOL   H55525083   4.836   4.022   5.595  0.0197 -0.0748 -1.0160
   25MOL   H55625084   4.815   3.793   5.515  2.1649  5.0651 -0.5770
   25MOL   H55725085   4.482   3.586   5.742  0.1688 -1.4368 -2.5992
   25MOL   H55825086   4.387   3.438   5.898 -0.3895  0.2583 -1.3183
   25MOL   H55925087   4.384   2.993   6.004  1.6464  0.4583 -2.9053
   25MOL   H56025088   4.461   2.794   6.138 -0.3718  0.2088  0.8497
   25MOL   H56125089   4.801   2.541   6.222  0.2999 -0.2889  2.1217
   25MOL   H56225090   4.688   2.328   6.254  2.1465  1.3031 -2.0979
   25MOL   N56325091   4.905   4.137   5.943  0.5684 -0.4723  0.7141
   25MOL   C56425092   4.969   4.260   5.962 -0.3255 -0.4396 -0.3008
   25MOL   C56525093   4.908   4.381   5.950 -0.3055 -0.2987 -0.1686
   25MOL   C56625094   4.972   4.504   5.974  0.2572  0.6837 -0.7237
   25MOL   C56725095   5.106   4.502   6.015 -0.5429 -0.0117 -0.6927
   25MOL   N56825096   5.174   4.622   6.037  1.0339  0.1165  0.0194
   25MOL   C56925097   5.240   4.685   5.935  0.2956  0.5712  0.1431
   25MOL   C57025098   5.335   4.778   5.960  0.3415 -0.0912  0.1049
   25MOL   C57125099   5.389   4.860   5.849  0.4991  0.1047  0.1175
   25MOL   C57225100   5.346   4.830   5.717  0.6161  0.4842 -0.3098
   25MOL   N57325101   5.379   4.903   5.601  0.3166  0.6763  0.3879
   25MOL   C57425102   5.485   4.988   5.581  0.2714 -0.1579  0.9994
   25MOL   C57525103   5.610   4.965   5.646 -0.0750  0.5111 -0.3717
   25MOL   C57625104   5.718   5.044   5.604 -0.5093  0.1925  0.4924
   25MOL   C57725105   5.704   5.152   5.517 -0.1732 -0.1916  0.2153
   25MOL   N57825106   5.821   5.218   5.489 -0.4547  0.4008  0.3884
   25MOL   C57925107   5.844   5.330   5.405 -0.3550  0.0657  0.0612
   25MOL   C58025108   5.936   5.319   5.295 -0.7379  0.4943  0.8932
   25MOL   C58125109   5.942   5.420   5.203 -0.3210  0.4884  0.3039
   25MOL   C58225110   5.864   5.533   5.216  0.0662 -0.2189  0.5447
   25MOL   C58325111   5.856   5.645   5.100 -0.5243 -0.3394 -0.6783
   25MOL   C58425112   5.784   5.553   5.327 -0.5528  0.5163 -0.8605
   25MOL   C58525113   5.761   5.444   5.418 -0.5870  0.5242 -0.5922
   25MOL   C58625114   5.583   5.174   5.452 -0.3159 -0.2856  0.3964
   25MOL   C58725115   5.474   5.079   5.476  0.2730 -0.7987  0.0428
   25MOL   C58825116   5.260   4.724   5.698 -0.1071  0.8065 -0.6274
   25MOL   C58925117   5.205   4.651   5.804  0.7187 -0.0149  0.1053
   25MOL   C59025118   5.172   4.375   6.037  0.2271 -0.3842  0.7985
   25MOL   C59125119   5.098   4.257   6.009 -0.6057  0.2212 -0.1832
   25MOL   H59225120   4.960   4.054   5.961  0.9218 -0.3458  0.2076
   25MOL   H59325121   4.811   4.390   5.904  0.6196  1.0899 -1.9035
   25MOL   H59425122   4.922   4.599   5.966 -0.9300  0.2371  1.0654
   25MOL   H59525123   5.210   4.639   6.130 -0.6825  0.4839  0.6378
   25MOL   H59625124   5.370   4.784   6.062  3.6063 -0.1046 -0.9573
   25MOL   H59725125   5.445   4.946   5.882 -1.6393  1.0073  1.4736
   25MOL   H59825126   5.326   4.875   5.520 -0.6887  1.2337  0.8429
   25MOL   H59925127   5.613   4.882   5.715 -1.3435 -0.0064 -0.9125
   25MOL   H60025128   5.817   5.017   5.636 -0.9806  0.7091  2.4897
   25MOL   H60125129   5.899   5.155   5.479  0.6772  1.8981 -0.5009
   25MOL   H60225130   6.000   5.232   5.292 -0.4571  0.6130  2.9241
   25MOL   H60325131   6.007   5.403   5.119  1.7184  2.4056  1.4451
   25MOL   H60425132   5.879   5.743   5.142  1.3668 -2.1289  2.6986
   25MOL   H60525133   5.752   5.649   5.070 -1.1467 -3.4865  0.8702
   25MOL   H60625134   5.717   5.638   5.332 -0.0487  0.8170  0.9668
   25MOL   H60725135   5.686   5.461   5.493  0.6601 -0.7911  0.9954
   25MOL   H60825136   5.576   5.258   5.384  3.4883  0.7602  1.1533
   25MOL   H60925137   5.386   5.081   5.414  1.1540 -0.6673 -1.2245
   25MOL   H61025138   5.221   4.694   5.601 -1.7296 -0.6474  0.4414
   25MOL   H61125139   5.125   4.587   5.769  0.8114  0.2991 -0.7110
   25MOL   H61225140   5.275   4.373   6.069  0.8387  1.6632 -0.8412
   25MOL   H61325141   5.150   4.163   6.018 -3.0403 -1.1214  0.3380
   25MOL   N61425142   5.942   5.621   4.990 -0.3517  0.1712 -0.2086
   25MOL   C61525143   6.082   5.633   5.011 -0.2367 -0.3112  0.0875
   25MOL   C61625144   6.171   5.562   4.926 -0.0169  0.1926 -0.9466
   25MOL   C61725145   6.308   5.569   4.951 -0.4749  0.0559  0.0360
   25MOL   C61825146   6.363   5.651   5.052  0.1271  0.5951  0.6335
   25MOL   N61925147   6.500   5.643   5.078  0.5916  0.3426  0.0157
   25MOL   C62025148   6.609   5.640   4.985  0.3686  0.3437 -0.3119
   25MOL   C62125149   6.738   5.607   5.033 -0.6193 -0.8074 -0.0298
   25MOL   C62225150   6.845   5.609   4.942 -0.7236  0.5325  0.2120
   25MOL   C62325151   6.828   5.651   4.807  0.1982  0.4091  0.3851
   25MOL   N62425152   6.940   5.661   4.718  0.2095 -0.7893 -0.1023
   25MOL   C62525153   7.066   5.702   4.754 -0.3017 -0.4180  0.4145
   25MOL   C62625154   7.096   5.778   4.869  0.2756 -0.1465 -0.2635
   25MOL   C62725155   7.214   5.854   4.882 -0.6915 -0.1586  0.0920
   25MOL   C62825156   7.318   5.831   4.796 -0.2936 -0.2652  0.1347
   25MOL   N62925157   7.432   5.912   4.809  0.7763  0.0657  0.0971
   25MOL   C63025158   7.563   5.888   4.766  0.2896 -0.0962  0.9373
   25MOL   C63125159   7.616   5.762   4.734 -0.0142 -0.2367  0.5833
   25MOL   C63225160   7.749   5.743   4.707  0.3474  0.3247 -0.5636
   25MOL   C63325161   7.827   5.857   4.683  0.0684  0.0447 -0.0274
   25MOL   C63425162   7.970   5.832   4.633  0.5197 -0.4254 -0.6107
   25MOL   C63525163   7.767   5.985   4.699  0.2027 -0.0708  0.4560
   25MOL   C63625164   7.636   6.001   4.736 -0.0729 -0.7712  0.4905
   25MOL   C63725165   7.295   5.739   4.692  0.5747  0.2680  0.0578
   25MOL   C63825166   7.165   5.688   4.661 -0.1007  0.3488 -0.9658
   25MOL   C63925167   6.699   5.673   4.755  0.1799  0.1662 -0.2587
   25MOL   C64025168   6.591   5.675   4.850  0.7074 -0.6460  0.2041
   25MOL   C64125169   6.280   5.736   5.126 -0.2218  0.2083  0.1535
   25MOL   C64225170   6.138   5.721   5.109 -0.4407 -0.4127 -0.6357
   25MOL   H64325171   5.918   5.548   4.925  0.8057 -1.8896  1.5851
   25MOL   H64425172   6.140   5.502   4.842 -0.1746 -0.5886 -0.3355
   25MOL   H64525173   6.358   5.503   4.882  0.2261 -0.3513  0.9338
   25MOL   H64625174   6.528   5.629   5.174  0.1544 -0.1322  0.0731
   25MOL   H64725175   6.756   5.586   5.137 -1.4039  0.3408  0.3439
   25MOL   H64825176   6.941   5.575   4.977 -0.5064 -0.2051 -1.0689
   25MOL   H64925177   6.918   5.627   4.626 -0.6570  0.6316 -0.4306
   25MOL   H65025178   7.018   5.802   4.940  0.9495 -3.5130  1.6925
   25MOL   H65125179   7.226   5.942   4.943 -1.8215  2.5668 -3.4579
   25MOL   H65225180   7.421   5.979   4.884  0.5409 -0.0061  0.1276
   25MOL   H65325181   7.554   5.673   4.738 -0.7352  0.2952  1.3332
   25MOL   H65425182   7.781   5.640   4.695 -3.7624 -1.1384  0.0162
   25MOL   H65525183   7.975   5.727   4.605 -0.7130 -0.7368  0.2769
   25MOL   H65625184   0.044   5.846   4.726 -0.7182 -0.2816  0.1269
   25MOL   H65725185   7.828   6.074   4.688 -0.3061  0.1917 -0.2685
   25MOL   H65825186   7.602   6.103   4.744 -0.5281 -1.0350  2.0086
   25MOL   H65925187   7.372   5.740   4.616  0.3650  0.2829 -0.1580
   25MOL   H66025188   7.149   5.616   4.581  0.6943 -1.4468  0.4421
   25MOL   H66125189   6.676   5.693   4.651  0.6050  0.4681 -0.2952
   25MOL   H66225190   6.493   5.708   4.820  0.0524 -2.1920  0.5698
   25MOL   H66325191   6.333   5.805   5.190 -0.6112  1.4745 -0.8658
   25MOL   H66425192   6.083   5.785   5.176 -1.9326 -2.3178  0.0149
   25MOL   N66525193   0.039   5.931   4.527 -0.1912 -0.2457  0.0728
   25MOL   C66625194   0.086   6.059   4.557 -0.4370 -0.8453 -0.8730
   25MOL   C66725195   0.108   6.139   4.448  0.0814  0.6354 -0.1292
   25MOL   C66825196   0.154   6.270   4.460  0.8216 -0.0936 -0.0143
   25MOL   C66925197   0.174   6.318   4.593  0.1744  0.1232 -0.0749
   25MOL   N67025198   0.218   6.446   4.620 -0.1810  0.4561 -0.0513
   25MOL   C67125199   0.248   6.547   4.534 -0.6382  0.3762  0.1701
   25MOL   C67225200   0.372   6.609   4.539 -0.0390  0.6114 -0.1095
   25MOL   C67325201   0.396   6.710   4.439 -0.4346 -0.1769  0.1608
   25MOL   C67425202   0.299   6.749   4.349 -0.1860  0.5278 -0.3213
   25MOL   N67525203   0.328   6.854   4.263 -0.3326  0.6782  0.5138
   25MOL   C67625204   0.260   6.884   4.146  0.1545  0.7328 -0.3064
   25MOL   C67725205   0.213   6.788   4.053  0.3991 -0.0858 -0.3537
   25MOL   C67825206   0.152   6.821   3.928 -0.1024 -0.3185 -0.0149
   25MOL   C67925207   0.141   6.956   3.898 -0.5401  0.3021 -0.4223
   25MOL   N68025208   0.092   6.997   3.776  0.1468  0.3396  0.2267
   25MOL   C68125209   0.082   6.926   3.655 -0.0555  0.0382 -0.0527
   25MOL   C68225210   7.939   6.915   3.592 -0.4580 -0.3600 -0.5072
   25MOL   C68325211   7.923   6.832   3.485  0.2591  0.0245  0.0658
   25MOL   C68425212   0.049   6.760   3.437  0.0561  0.9244  0.2154
   25MOL   C68525213   0.025   6.672   3.312  0.9159 -0.5752  0.0611
   25MOL   C68625214   0.173   6.755   3.505  0.5242  0.3083  0.5838
   25MOL   C68725215   0.188   6.849   3.608  0.6063  0.4781 -0.1692
   25MOL   C68825216   0.186   7.056   3.991  0.1207  0.3172 -0.6211
   25MOL   C68925217   0.236   7.020   4.117 -0.2366 -0.4076 -0.2971
   25MOL   C69025218   0.172   6.685   4.344  0.3775  0.2107  0.0298
   25MOL   C69125219   0.146   6.585   4.442  0.1385 -0.1613  0.4472
   25MOL   C69225220   0.154   6.233   4.704  0.1295 -0.4075  0.1673
   25MOL   C69325221   0.107   6.101   4.691 -0.2739 -0.0520 -0.0801
   25MOL   H69425222   0.007   5.911   4.433  1.1084 -0.4152 -0.3414
   25MOL   H69525223   0.089   6.100   4.349 -1.1565 -0.8445  0.6801
   25MOL   H69625224   0.167   6.331   4.372  0.1032  0.9417  0.5748
   25MOL   H69725225   0.279   6.454   4.700  0.5842 -1.4884 -0.4216
   25MOL   H69825226   0.451   6.565   4.598  1.3354  2.1452 -0.7817
   25MOL   H69925227   0.497   6.747   4.434 -0.9013  1.0286 -0.4314
   25MOL   H70025228   0.403   6.916   4.291 -0.3727  0.4340  1.1599
   25MOL   H70125229   0.224   6.682   4.072  1.2964 -0.0846 -0.8334
   25MOL   H70225230   0.108   6.744   3.866 -0.7132  0.6787 -0.8361
   25MOL   H70325231   0.058   7.092   3.772 -2.5327 -0.5386  0.5114
   25MOL   H70425232   7.854   6.961   3.640 -0.7825 -0.6575 -0.8047
   25MOL   H70525233   7.827   6.839   3.436 -0.5734 -1.6159  1.3990
   25MOL   H70625234   0.093   6.705   3.233 -0.0746 -2.5011 -1.6420
   25MOL   H70725235   7.906   6.692   3.279  0.4896 -0.9342  1.1401
   25MOL   H70825236   0.250   6.686   3.474  0.9729  1.1287 -0.1527
   25MOL   H70925237   0.284   6.854   3.657  1.2106  1.9877 -1.4438
   25MOL   H71025238   0.172   7.158   3.960 -0.9246  0.2073 -0.5246
   25MOL   H71125239   0.257   7.100   4.187  0.1556  0.9863 -1.9803
   25MOL   H71225240   0.091   6.709   4.276  0.0417 -0.7361  0.0858
   25MOL   H71325241   0.051   6.534   4.442  0.3491 -0.5634  0.0995
   25MOL   H71425242   0.187   6.277   4.797 -2.3493 -0.1042  0.9490
   25MOL   H71525243   0.105   6.034   4.776 -2.1733 -1.8580 -1.4903
   25MOL   N71625244   0.034   6.532   3.350  0.6495 -0.0940 -0.0298
   25MOL   C71725245   7.906   6.451   3.315 -0.1455 -0.1416  0.1682
   25MOL   C71825246   7.862   6.347   3.405 -0.8743 -1.1493  0.6927
   25MOL   C71925247   7.762   6.257   3.361  0.1704 -0.4602 -0.4935
   25MOL   C72025248   7.675   6.295   3.250 -0.4282 -0.0526 -0.2772
   25MOL   N72125249   7.568   6.216   3.223  0.6351 -0.1794  0.3714
   25MOL   C72225250   7.517   6.105   3.292 -0.3870  0.1277  0.2877
   25MOL   C72325251   7.451   6.127   3.417 -0.9030 -0.0387  0.9954
   25MOL   C72425252   7.400   6.018   3.492  0.5482 -0.0882  0.8563
   25MOL   C72525253   7.409   5.887   3.443 -0.2340 -0.1745 -0.2922
   25MOL   N72625254   7.348   5.794   3.529 -0.2452 -0.0415 -0.3043
   25MOL   C72725255   7.383   5.662   3.540 -0.6462 -0.3014  0.1153
   25MOL   C72825256   7.436   5.608   3.658  0.2212 -0.5313 -0.7177
   25MOL   C72925257   7.469   5.470   3.666  0.2884  0.2008 -0.3822
   25MOL   C73025258   7.446   5.389   3.553  0.3005  0.5353  0.4577
   25MOL   N73125259   7.491   5.256   3.559 -0.4179 -0.0280 -0.2874
   25MOL   C73225260   7.402   5.152   3.574 -0.5328  0.5524 -0.2284
   25MOL   C73325261   7.397   5.052   3.470  0.2265 -0.4591  0.0330
   25MOL   C73425262   7.296   4.955   3.475  0.4515  0.1366 -0.0948
   25MOL   C73525263   7.189   4.961   3.569  0.1509 -0.5151  0.2970
   25MOL   C73625264   7.081   4.856   3.560  0.0791  0.1397  0.0619
   25MOL   C73725265   7.191   5.059   3.673 -0.2161 -0.2657  0.4969
   25MOL   C73825266   7.297   5.154   3.674 -0.2059 -0.1766  0.4816
   25MOL   C73925267   7.396   5.437   3.432  0.8736 -0.7872  0.6810
   25MOL   C74025268   7.361   5.575   3.430  0.1933  0.6930 -0.7749
   25MOL   C74125269   7.476   5.866   3.316  0.4608  0.1997  0.4571
   25MOL   C74225270   7.535   5.975   3.243  0.2302  0.4204 -0.0511
   25MOL   C74325271   7.715   6.396   3.165  0.0978 -0.5875 -0.3415
   25MOL   C74425272   7.831   6.473   3.197  0.0801  0.1285  0.4798
   25MOL   H74525273   0.077   6.518   3.440  0.6652  1.6781  0.2481
   25MOL   H74625274   7.913   6.324   3.497 -0.2460 -0.0387  0.6200
   25MOL   H74725275   7.728   6.181   3.430  0.1220  0.0721  0.0713
   25MOL   H74825276   7.542   6.212   3.125 -3.1214 -1.7821  1.3274
   25MOL   H74925277   7.450   6.227   3.458  0.3489  2.3030 -4.2050
   25MOL   H75025278   7.347   6.030   3.585 -1.3446 -0.2469 -0.1805
   25MOL   H75125279   7.299   5.838   3.606 -1.2643 -0.5829 -0.6339
   25MOL   H75225280   7.440   5.657   3.754 -0.1328  3.2045 -2.5173
   25MOL   H75325281   7.499   5.425   3.760 -1.4172 -1.4796 -0.6066
   25MOL   H75425282   7.563   5.222   3.497 -0.3482  1.0237 -0.7950
   25MOL   H75525283   7.481   5.054   3.402  0.6578  2.0579  0.6050
   25MOL   H75625284   7.296   4.882   3.395 -0.2908 -0.1145  0.1363
   25MOL   H75725285   7.036   4.866   3.461  0.6219  0.0424 -0.1926
   25MOL   H75825286   6.996   4.886   3.621  1.0446  0.4288  1.2582
   25MOL   H75925287   7.114   5.077   3.747 -0.4718  0.2877  0.1038
   25MOL   H76025288   7.300   5.228   3.752  1.0920  0.5646 -0.2510
   25MOL   H76125289   7.382   5.385   3.339 -0.3770  1.2873 -0.3255
   25MOL   H76225290   7.304   5.610   3.345 -0.5113  0.3695 -0.4329
   25MOL   H76325291   7.477   5.763   3.284 -0.4169 -0.5349  2.6785
   25MOL   H76425292   7.582   5.955   3.148  0.7141 -1.3569  0.5483
   25MOL   H76525293   7.654   6.419   3.079  2.7810 -0.1256 -2.1826
   25MOL   H76625294   7.859   6.557   3.134  1.1570  0.0012  0.7853
   25MOL   N76725295   7.136   4.728   3.580  0.2485  0.0714  0.3732
   25MOL   C76825296   7.102   4.656   3.699  0.2247 -0.7360  0.6978
   25MOL   C76925297   7.077   4.516   3.696  0.5997  0.3318 -0.4119
   25MOL   C77025298   7.042   4.450   3.811  0.2964  0.9159 -0.3112
   25MOL   C77125299   7.038   4.516   3.932  0.3689  0.0879 -0.2727
   25MOL   N77225300   7.005   4.450   4.053  0.4602  0.3841  0.8161
   25MOL   C77325301   7.003   4.312   4.084  0.0560  0.7353  0.1862
   25MOL   C77425302   7.089   4.222   4.029  0.1790  0.4188  0.2521
   25MOL   C77525303   7.090   4.083   4.060  0.2176  0.2241 -0.4805
   25MOL   C77625304   6.990   4.031   4.139  0.8824 -0.0139 -0.6183
   25MOL   N77725305   6.978   3.893   4.167  0.0818 -0.1243  0.0713
   25MOL   C77825306   6.861   3.823   4.201 -0.5851  0.1668  0.4532
   25MOL   C77925307   6.728   3.865   4.179 -0.1834  0.1810 -0.2589
   25MOL   C78025308   6.617   3.790   4.218  0.1040 -0.1175 -0.1291
   25MOL   C78125309   6.634   3.668   4.290 -0.2492  0.5651  0.3016
   25MOL   N78225310   6.517   3.592   4.319  0.0434 -0.5934  0.2910
   25MOL   C78325311   6.519   3.451   4.317 -0.4671  0.4475  0.0314
   25MOL   C78425312   6.436   3.384   4.409 -0.2409 -1.1525 -0.1699
   25MOL   C78525313   6.432   3.246   4.415 -0.1865 -0.4199 -0.3057
   25MOL   C78625314   6.498   3.173   4.313  0.2746 -0.9332  0.0167
   25MOL   C78725315   6.478   3.026   4.305  0.6949 -0.0387 -0.2352
   25MOL   C78825316   6.566   3.240   4.211 -0.1056  0.2838 -0.4542
   25MOL   C78925317   6.584   3.375   4.216 -0.0345 -0.4946 -0.4411
   25MOL   C79025318   6.766   3.616   4.308 -0.2480  0.4756 -0.3355
   25MOL   C79125319   6.876   3.699   4.270  0.6774 -0.5659  0.6395
   25MOL   C79225320   6.911   4.127   4.205  0.4974  0.2933 -0.1043
   25MOL   C79325321   6.917   4.262   4.181 -0.4978  0.1085 -0.0700
   25MOL   C79425322   7.059   4.657   3.938  0.4553 -0.4171 -0.2270
   25MOL   C79525323   7.085   4.729   3.820 -0.4916 -0.1101  0.5687
   25MOL   H79625324   7.200   4.686   3.513  2.1106  0.8972  1.5821
   25MOL   H79725325   7.085   4.475   3.597 -0.7665  3.5302 -1.9393
   25MOL   H79825326   7.006   4.348   3.803  0.0853  0.9963 -0.3751
   25MOL   H79925327   6.963   4.517   4.115 -0.3447  1.1332 -0.5336
   25MOL   H80025328   7.172   4.263   3.973  1.0793 -2.8728 -0.9503
   25MOL   H80125329   7.168   4.019   4.022  0.0014 -0.4637  0.2287
   25MOL   H80225330   7.061   3.837   4.150 -0.1966  0.0389 -1.8333
   25MOL   H80325331   6.720   3.958   4.125  0.8755  0.7359  0.5339
   25MOL   H80425332   6.524   3.843   4.202 -0.0026 -0.6135 -1.2276
   25MOL   H80525333   6.448   3.638   4.377 -0.0389 -0.8401  0.3889
   25MOL   H80625334   6.389   3.436   4.491  0.2649  0.5212 -0.9142
   25MOL   H80725335   6.379   3.199   4.496 -0.2432  1.2924  0.6667
   25MOL   H80825336   6.400   2.997   4.235  1.2150 -1.2273 -0.3361
   25MOL   H80925337   6.457   2.989   4.406 -0.2014  0.4145 -0.2450
   25MOL   H81025338   6.620   3.184   4.136  0.4285 -2.9847  2.2574
   25MOL   H81125339   6.646   3.428   4.144 -1.3201  1.9796  0.2308
   25MOL   H81225340   6.785   3.512   4.330 -1.7687  0.0854 -0.7905
   25MOL   H81325341   6.971   3.647   4.272  0.1031 -1.7324 -1.7219
   25MOL   H81425342   6.836   4.097   4.278 -1.0742  1.2402 -1.3047
   25MOL   H81525343   6.845   4.330   4.221  0.7771  1.8714 -0.6858
   25MOL   H81625344   7.053   4.712   4.030 -3.1979 -0.1281 -0.5558
   25MOL   H81725345   7.102   4.835   3.822 -2.4616  0.1926  3.5593
   25MOL   N81825346   6.593   2.953   4.252 -0.7610  0.2003 -0.4073
   25MOL   C81925347   6.710   2.925   4.325 -0.0628 -0.2432 -0.1779
   25MOL   C82025348   6.718   2.944   4.464  0.6599  0.3198  0.9955
   25MOL   C82125349   6.839   2.917   4.527 -0.6814  0.0988 -0.5964
   25MOL   C82225350   6.955   2.875   4.450  0.3337  0.0725  0.3479
   25MOL   N82325351   7.072   2.839   4.520  0.2896 -0.3543 -0.2445
   25MOL   C82425352   7.192   2.911   4.522 -0.2711  0.7991 -0.5134
   25MOL   C82525353   7.303   2.866   4.595  0.3637  0.1663  0.1161
   25MOL   C82625354   7.432   2.933   4.583 -0.1588  0.9509  0.3480
   25MOL   C82725355   7.438   3.057   4.511 -0.8557 -0.0558 -0.5515
   25MOL   N82825356   7.566   3.114   4.491  0.4413  0.2793  0.1420
   25MOL   C82925357   7.593   3.252   4.486 -0.6287  0.0086 -0.2094
   25MOL   C83025358   7.691   3.292   4.397 -0.3261 -0.6187 -0.5858
   25MOL   C83125359   7.725   3.430   4.392  0.4779  0.1108 -0.3334
   25MOL   C83225360   7.645   3.526   4.463 -0.3699  0.1240 -0.0874
   25MOL   N83325361   7.683   3.659   4.444  0.4888  0.0232  0.9889
   25MOL   C83425362   7.713   3.754   4.541  0.1111 -0.3850 -0.3263
   25MOL   C83525363   7.676   3.737   4.673 -0.0185  0.2973 -0.3474
   25MOL   C83625364   7.692   3.839   4.771  0.1485  0.0080  0.2096
   25MOL   C83725365   7.731   3.966   4.719  0.4170 -0.0419  0.8170
   25MOL   C83825366   7.741   4.092   4.800 -0.0050  0.1850  0.1119
   25MOL   C83925367   7.753   3.994   4.582  0.3511 -0.0661 -0.5618
   25MOL   C84025368   7.745   3.881   4.492  0.2294 -0.2402  0.6721
   25MOL   C84125369   7.528   3.487   4.533  0.1211 -0.4502 -0.3691
   25MOL   C84225370   7.510   3.351   4.559 -0.1623  0.3415  0.7463
   25MOL   C84325371   7.322   3.112   4.448  0.3154  0.3861  0.0101
   25MOL   C84425372   7.204   3.036   4.456  0.1438 -0.1300  0.5949
   25MOL   C84525373   6.946   2.864   4.312 -0.1747  0.1981 -0.4856
   25MOL   C84625374   6.825   2.875   4.253  0.4105  0.3203 -0.4139
   25MOL   H84725375   6.583   2.916   4.158  0.4665 -4.2165  1.0398
   25MOL   H84825376   6.629   2.967   4.520  0.1808  1.0900 -0.0452
   25MOL   H84925377   6.828   2.916   4.634  1.6355  1.7896 -0.2942
   25MOL   H85025378   7.057   2.787   4.605 -4.0540 -1.3220 -1.4547
   25MOL   H85125379   7.305   2.765   4.634  0.2779 -1.4548 -3.8946
   25MOL   H85225380   7.524   2.889   4.617  0.1873  2.5308  1.5281
   25MOL   H85325381   7.630   3.046   4.451 -1.7945 -1.1335 -1.1228
   25MOL   H85425382   7.753   3.226   4.338  1.2481 -0.8994  1.3233
   25MOL   H85525383   7.812   3.470   4.344 -0.7005  3.0008 -0.1413
   25MOL   H85625384   7.743   3.680   4.366 -0.1124 -1.4887  0.0940
   25MOL   H85725385   7.644   3.642   4.712 -1.8943  0.6992 -0.8488
   25MOL   H85825386   7.666   3.822   4.875 -0.9807 -0.7322 -0.1841
   25MOL   H85925387   7.754   4.059   4.904  0.5804  0.4155  0.1145
   25MOL   H86025388   7.644   4.141   4.804 -0.0873 -0.0199  0.8511
   25MOL   H86125389   7.778   4.088   4.536 -0.0106  0.5814  0.5412
   25MOL   H86225390   7.768   3.897   4.387  1.7468 -0.8312  0.9072
   25MOL   H86325391   7.461   3.553   4.586  0.7637  0.8256 -1.1379
   25MOL   H86425392   7.429   3.321   4.624 -1.4933  2.0571 -0.0826
   25MOL   H86525393   7.322   3.196   4.380 -2.5625  0.9398  0.6400
   25MOL   H86625394   7.122   3.076   4.398  2.0946  4.6212  0.9229
   25MOL   H86725395   7.032   2.839   4.253  0.8835  1.7721  0.3651
   25MOL   H86825396   6.820   2.853   4.147 -1.6665  1.1128 -0.5053
   25MOL   N86925397   7.845   4.188   4.766 -0.0801 -0.2777 -0.0800
   25MOL   C87025398   7.801   4.318   4.763 -0.9073 -0.2661 -0.0389
   25MOL   C87125399   7.753   4.383   4.883  0.5137  0.3006  0.5690
   25MOL   C87225400   7.691   4.507   4.868 -0.2425  0.0815 -0.2450
   25MOL   C87325401   7.683   4.574   4.744 -0.3262  0.0568 -0.1329
   25MOL   N87425402   7.608   4.691   4.735 -0.3739 -0.5118 -0.2797
   25MOL   C87525403   7.611   4.782   4.634  0.6631  0.2401 -0.3261
   25MOL   C87625404   7.731   4.820   4.568  0.1949 -0.1607  0.2932
   25MOL   C87725405   7.727   4.917   4.466 -0.0984 -0.0734 -0.3288
   25MOL   C87825406   7.608   4.977   4.438 -0.0962 -0.6512 -0.9014
   25MOL   N87925407   7.600   5.063   4.327 -0.3632 -0.2570  0.1826
   25MOL   C88025408   7.705   5.130   4.260 -0.1375 -0.1107 -0.1877
   25MOL   C88125409   7.704   5.123   4.116 -0.3013  0.2945 -0.6217
   25MOL   C88225410   7.805   5.185   4.039  0.5755  0.5765  0.3179
   25MOL   C88325411   7.901   5.261   4.103  0.6248 -0.5940  0.2325
   25MOL   N88425412   0.011   5.316   4.016  0.4164 -0.3585  0.0646
   25MOL   C88525413   7.976   5.361   3.883 -0.1478 -0.0500  0.2409
   25MOL   C88625414   7.865   5.440   3.855  0.5254  0.0560 -0.9055
   25MOL   C88725415   7.836   5.488   3.729  0.0510  1.0178 -0.0924
   25MOL   C88825416   7.929   5.462   3.621  0.4861 -0.6066 -0.4935
   25MOL   C88925417   7.894   5.529   3.492  0.0356 -0.0767 -0.1029
   25MOL   C89025418   0.070   5.395   3.652  0.7650 -0.6718 -0.1217
   25MOL   C89125419   0.085   5.339   3.779  0.1473 -0.1563 -0.6997
   25MOL   C89225420   7.905   5.268   4.242 -0.3360  0.4396  0.2234
   25MOL   C89325421   7.803   5.209   4.317 -0.8713  0.4734 -1.0892
   25MOL   C89425422   7.485   4.944   4.502  0.7737 -0.2119 -0.5771
   25MOL   C89525423   7.488   4.844   4.598 -0.6890  0.0708  0.4058
   25MOL   C89625424   7.729   4.512   4.626  0.3492  0.1370 -0.7182
   25MOL   C89725425   7.793   4.386   4.640 -0.0905 -0.4632 -0.4681
   25MOL   H89825426   7.896   4.161   4.683  0.7419  1.7587 -0.2601
   25MOL   H89925427   7.748   4.342   4.982  0.5638 -0.8745  0.0964
   25MOL   H90025428   7.649   4.554   4.956  1.2007 -0.4187  0.7284
   25MOL   H90125429   7.523   4.690   4.790 -0.9812  1.0073 -1.1431
   25MOL   H90225430   7.824   4.773   4.596  0.8947 -1.0977 -3.4384
   25MOL   H90325431   7.811   4.942   4.403  0.6685 -0.1271  0.6727
   25MOL   H90425432   7.516   5.042   4.274  0.5619 -1.7960 -0.7046
   25MOL   H90525433   7.626   5.070   4.064 -1.7685  3.9692 -2.3470
   25MOL   H90625434   7.802   5.169   3.932  0.8444 -1.4421  0.5922
   25MOL   H90725435   0.106   5.323   4.050  0.3455  1.7500 -0.1059
   25MOL   H90825436   7.803   5.471   3.937  1.3414  2.1845 -1.0400
   25MOL   H90925437   7.740   5.538   3.722 -1.0776 -0.8900  1.3970
   25MOL   H91025438   7.905   5.636   3.506  3.4270 -0.5485  1.4300
   25MOL   H91125439   7.786   5.516   3.488  0.2872 -2.7562  0.7664
   25MOL   H91225440   0.152   5.385   3.583  0.5799 -3.2676 -0.0093
   25MOL   H91325441   0.174   5.280   3.798 -0.6680 -2.2193 -2.9543
   25MOL   H91425442   7.971   5.337   4.291 -1.4283  1.0892  0.8009
   25MOL   H91525443   7.801   5.221   4.424  1.6872 -1.6988 -0.7435
   25MOL   H91625444   7.391   4.989   4.476  1.1340 -0.0466 -1.6171
   25MOL   H91725445   7.398   4.828   4.656  0.7296  0.6401  2.8246
   25MOL   H91825446   7.719   4.557   4.529 -0.3155 -0.0801 -0.7477
   25MOL   H91925447   7.837   4.338   4.553  0.1336  1.1888 -1.2924
   25MOL   N92025448   7.959   5.474   3.374  0.3315  0.2686  0.2262
   25MOL   C92125449   7.918   5.361   3.307 -0.4523 -0.7408 -0.4699
   25MOL   C92225450   7.982   5.328   3.187  0.2333 -0.4157 -0.3574
   25MOL   C92325451   7.927   5.219   3.107  0.6142 -0.0839 -0.0638
   25MOL   C92425452   7.821   5.137   3.150  0.6621 -0.4008  1.1120
   25MOL   N92525453   7.783   5.023   3.073 -0.0513 -0.4292  0.2144
   25MOL   C92625454   7.729   4.901   3.114  0.0655  0.3030 -0.5107
   25MOL   C92725455   7.772   4.829   3.225 -0.9551  0.3053 -0.1948
   25MOL   C92825456   7.730   4.697   3.250 -0.4735 -0.0475 -0.1092
   25MOL   C92925457   7.644   4.632   3.161 -0.6386  0.1444 -0.6042
   25MOL   N93025458   7.589   4.507   3.201  0.5044  0.3047 -0.3906
   25MOL   C93125459   7.510   4.432   3.112  0.2251 -0.0225  0.6332
   25MOL   C93225460   7.368   4.426   3.126  0.5171 -0.0842  0.3026
   25MOL   C93325461   7.289   4.355   3.030 -0.1453  0.0313 -0.4864
   25MOL   C93425462   7.356   4.285   2.921  0.5563 -0.3993  0.6898
   25MOL   N93525463   7.273   4.224   2.823 -0.0389 -0.1452 -0.1618
   25MOL   C93625464   7.268   4.260   2.689  0.0959  0.3787 -0.4769
   25MOL   C93725465   7.180   4.188   2.601  0.5398  0.7546 -0.0265
   25MOL   C93825466   7.153   4.229   2.464 -0.5274 -0.6610 -0.4952
   25MOL   C93925467   7.219   4.342   2.407 -0.3442  0.3710 -0.2428
   25MOL   C94025468   7.196   4.378   2.264 -0.0307 -0.4875  0.3189
   25MOL   C94125469   7.313   4.406   2.496  0.9300  0.0499  0.1818
   25MOL   C94225470   7.342   4.367   2.627 -0.0137 -0.2026  0.1504
   25MOL   C94325471   7.494   4.282   2.916 -0.3434  0.5145 -0.0363
   25MOL   C94425472   7.568   4.351   3.017 -0.1505 -0.0538 -0.3144
   25MOL   C94525473   7.600   4.699   3.047  0.5869 -0.0847 -0.0958
   25MOL   C94625474   7.639   4.835   3.026  0.3832  0.4588  0.3266
   25MOL   C94725475   7.762   5.172   3.275 -0.2232 -0.7830 -0.0661
   25MOL   C94825476   7.809   5.280   3.350 -0.0849  0.0943  0.2749
   25MOL   H94925477   0.047   5.532   3.331 -0.8530  1.2440 -0.4244
   25MOL   H95025478   0.082   5.386   3.146  1.1107 -0.3426  1.4825
   25MOL   H95125479   0.003   5.195   3.019  0.3518 -0.8050 -0.0430
   25MOL   H95225480   7.817   5.010   2.979  0.2051 -0.6666  0.3401
   25MOL   H95325481   7.838   4.873   3.299 -0.5078 -1.5796  0.5557
   25MOL   H95425482   7.752   4.664   3.351 -0.1946  4.0628  1.2472
   25MOL   H95525483   7.622   4.472   3.290  0.4931 -1.5560 -1.0938
   25MOL   H95625484   7.311   4.476   3.203 -0.2954  0.6117 -0.7256
   25MOL   H95725485   7.181   4.350   3.033 -0.2376  1.9788  1.0358
   25MOL   H95825486   7.219   4.143   2.849 -0.6836  0.1327 -0.6337
   25MOL   H95925487   7.120   4.114   2.651 -1.1195 -0.3141 -3.4445
   25MOL   H96025488   7.084   4.180   2.397  0.6219 -1.2154 -1.2785
   25MOL   H96125489   7.220   4.484   2.258 -0.4123 -0.4415 -0.4122
   25MOL   H96225490   7.091   4.356   2.247 -0.0896 -1.2664  1.6125
   25MOL   H96325491   7.365   4.493   2.458 -0.0047  0.2775 -0.5881
   25MOL   H96425492   7.420   4.421   2.678 -0.3072  0.4799 -0.1239
   25MOL   H96525493   7.549   4.241   2.833  0.5428  2.1394 -0.2893
   25MOL   H96625494   7.675   4.349   3.004 -0.2511  0.6320 -1.2837
   25MOL   H96725495   7.540   4.658   2.967  0.8925 -0.8822  0.0816
   25MOL   H96825496   7.608   4.881   2.933 -0.0233 -1.8995 -0.7447
   25MOL   H96925497   7.679   5.111   3.308  0.3171 -0.9808  0.9465
   25MOL   H97025498   7.761   5.304   3.443  0.3075  1.0469  0.2363
   25MOL   N97125499   7.267   4.300   2.168  0.1802 -0.2436 -0.0191
   25MOL   C97225500   7.407   4.310   2.152  0.2742 -0.5305 -0.3514
   25MOL   C97325501   7.467   4.434   2.132 -0.2886 -0.0503 -0.3910
   25MOL   C97425502   7.601   4.439   2.085  0.5643 -0.1678 -0.5047
   25MOL   C97525503   7.671   4.319   2.063  0.1844 -0.1219  0.6251
   25MOL   N97625504   7.799   4.313   2.008 -0.2339  0.1642  0.0828
   25MOL   C97725505   7.884   4.410   1.953  0.1609  0.6564 -0.7820
   25MOL   C97825506   7.834   4.528   1.880  0.1750 -0.7260  0.1446
   25MOL   C97925507   7.920   4.618   1.820  0.2719 -0.2244  0.0033
   25MOL   C98025508   0.078   4.602   1.835  0.5141  0.1901  0.0287
   25MOL   N98125509   0.164   4.695   1.778  0.4535  0.3053  0.1074
   25MOL   C98225510   0.299   4.663   1.768 -0.7136 -0.3885 -0.4917
   25MOL   C98325511   0.353   4.590   1.661  0.8473 -0.2317 -0.1389
   25MOL   C98425512   0.483   4.542   1.667 -0.7412 -0.6849  0.5185
   25MOL   C98525513   0.572   4.571   1.775 -0.3458 -0.7867  0.0746
   25MOL   N98625514   0.698   4.513   1.812  0.3192 -0.3237  0.0750
   25MOL   C98725515   0.764   4.410   1.744  0.2369  0.2791 -0.0215
   25MOL   C98825516   0.779   4.414   1.606  0.5597 -0.1915  0.0007
   25MOL   C98925517   0.859   4.326   1.534  0.3645 -0.4345 -0.7340
   25MOL   C99025518   0.924   4.222   1.605  0.4529 -0.0119 -0.2862
   25MOL   C99125519   0.991   4.122   1.522 -0.0660  0.3701 -0.1631
   25MOL   C99225520   0.909   4.217   1.744 -0.1222 -0.9922 -0.2925
   25MOL   C99325521   0.831   4.311   1.812 -0.5970 -0.9572 -0.2009
   25MOL   C99425522   0.520   4.655   1.874  0.0455 -0.3232 -0.2143
   25MOL   C99525523   0.386   4.700   1.866  0.5235  0.4493  0.3649
   25MOL   C99625524   0.128   4.494   1.911 -0.1631 -0.1553  0.6777
   25MOL   C99725525   0.044   4.396   1.966  0.1589 -0.0632 -0.1721
   25MOL   C99825526   7.611   4.192   2.093 -0.2829 -1.0629 -0.6416
   25MOL   C99925527   7.474   4.190   2.124  0.4781  0.7019 -0.2126
   25MOL     H125528   7.236   4.205   2.150  0.3114 -0.3125  0.1199
   25MOL     H225529   7.412   4.524   2.155  1.8631  0.8520  1.4366
   25MOL     H325530   7.644   4.533   2.055  0.2995  0.2682  0.4590
   25MOL     H425531   7.849   4.230   2.036 -0.8836  0.0347  0.8639
   25MOL     H525532   7.730   4.547   1.858  0.9070  0.3014 -2.6164
   25MOL     H625533   7.887   4.698   1.756 -2.1175  0.7884  2.3716
   25MOL     H725534   0.129   4.749   1.700  0.4801 -0.5930 -0.5385
   25MOL     H825535   0.276   4.559   1.591  0.4761  1.0658 -0.3275
   25MOL     H925536   0.511   4.462   1.600  1.6017  0.2224  0.3695
   25MOL    H1025537   0.726   4.522   1.908  0.2425  0.4591  0.0247
   25MOL    H1125538   0.733   4.494   1.550 -0.5734 -0.1897  0.9253
   25MOL    H1225539   0.869   4.333   1.427  0.5954 -0.0392 -0.6842
   25MOL    H1325540   0.923   4.048   1.481 -0.3102 -0.9432  2.5127
   25MOL    H1425541   1.055   4.069   1.593 -0.9997 -0.6744 -0.0978
   25MOL    H1525542   0.959   4.138   1.798  0.5537 -3.2100 -3.9865
   25MOL    H1625543   0.841   4.323   1.918 -1.0275  1.7501 -0.4212
   25MOL    H1725544   0.582   4.672   1.960  1.3101  0.1145 -1.1991
   25MOL    H1825545   0.346   4.758   1.947  1.0764  2.2261 -0.6226
   25MOL    H1925546   0.235   4.485   1.924 -0.0530  0.9225  0.6164
   25MOL    H2025547   0.084   4.304   2.008 -0.4931 -1.0249 -1.6199
   25MOL    H2125548   7.660   4.101   2.063 -0.7952 -1.9060  1.0050
   25MOL    H2225549   7.418   4.098   2.121  0.0211  0.9215  1.2620
   25MOL    H2325550   1.053   4.172   1.448 -0.6507  1.6283  0.1689
   26MOL     N125551   0.158   3.346   0.511 -0.3234  0.6310  0.0531
   26MOL     C225552   0.128   3.434   0.610  0.9231 -0.9645 -0.1857
   26MOL     C325553   0.049   3.399   0.717 -0.1747 -0.2194  0.5372
   26MOL     C425554   0.020   3.491   0.817 -0.0832 -0.1196  0.3169
   26MOL     C525555   0.076   3.619   0.808  0.3480  0.2313  0.2030
   26MOL     N625556   0.048   3.709   0.912 -0.0011 -0.3594 -0.6328
   26MOL     C725557   0.132   3.801   0.971  0.4285  0.2440 -0.8081
   26MOL     C825558   0.084   3.888   1.071  0.6741  0.7142  0.3171
   26MOL     C925559   0.160   3.991   1.126  0.1156  0.0514  0.0324
   26MOL    C1025560   0.291   4.006   1.080  0.6262  0.0514 -0.0404
   26MOL    N1125561   0.374   4.101   1.145  0.1144 -0.4559 -0.1641
   26MOL    C1225562   0.510   4.107   1.149 -0.0450 -0.0955 -0.3188
   26MOL    C1325563   0.571   4.017   1.236 -0.4006  0.6399  0.6951
   26MOL    C1425564   0.709   4.013   1.235 -0.0346  0.1567 -0.2828
   26MOL    C1525565   0.788   4.100   1.161 -0.5066 -0.7735  0.1596
   26MOL    N1625566   0.927   4.105   1.176 -0.1478 -0.2351  0.5059
   26MOL    C1725567   1.010   3.993   1.188  0.5162 -0.2194  0.8154
   26MOL    C1825568   0.971   3.859   1.176 -0.0443  0.0326  0.3949
   26MOL    C1925569   1.065   3.755   1.176 -0.0156 -0.5170 -0.0417
   26MOL    C2025570   1.199   3.780   1.202  0.4177  0.2133 -0.4594
   26MOL    C2125571   1.301   3.670   1.220  0.2095 -0.2631  0.1712
   26MOL    C2225572   1.238   3.915   1.209 -0.1489  0.1960 -0.6580
   26MOL    C2325573   1.146   4.020   1.211  0.5727 -0.4704 -0.4166
   26MOL    C2425574   0.725   4.187   1.078 -0.4699 -0.2919  0.2645
   26MOL    C2525575   0.586   4.197   1.079  0.1421 -0.0220  0.1418
   26MOL    C2625576   0.350   3.910   0.991  0.2702 -0.8793 -0.4337
   26MOL    C2725577   0.277   3.807   0.941 -0.0679 -0.3529 -0.7467
   26MOL    C2825578   0.155   3.658   0.697 -0.6802  0.5577 -0.0466
   26MOL    C2925579   0.181   3.561   0.599 -0.4795  0.5173 -0.6987
   26MOL    H3025580   0.081   3.286   0.485 -0.5814  0.3940  1.3138
   26MOL    H3125581   0.012   3.297   0.719 -0.4435 -0.1885 -1.6991
   26MOL    H3225582   7.942   3.464   0.903 -1.9180  1.0601 -0.5573
   26MOL    H3325583   7.970   3.676   0.986 -0.1173  0.5477 -0.3138
   26MOL    H3425584   7.968   3.860   1.107  1.3991  0.2945  2.0332
   26MOL    H3525585   0.122   4.060   1.201 -0.3733 -1.8159  1.5275
   26MOL    H3625586   0.320   4.154   1.212  3.7927  2.1725  0.8736
   26MOL    H3725587   0.512   3.948   1.295 -1.0884 -0.2935 -1.0363
   26MOL    H3825588   0.755   3.941   1.302 -1.8620 -0.6144  0.1704
   26MOL    H3925589   0.967   4.183   1.126 -0.9088 -0.9188 -1.2367
   26MOL    H4025590   0.865   3.841   1.164  0.3829 -2.7640  0.5539
   26MOL    H4125591   1.040   3.650   1.169  0.1748 -0.4727 -1.6662
   26MOL    H4225592   1.317   3.638   1.323 -0.9292  0.7630  0.6715
   26MOL    H4325593   1.398   3.705   1.186 -0.8740  3.1206  0.4530
   26MOL    H4425594   1.342   3.938   1.228 -0.1539 -1.0880  1.0451
   26MOL    H4525595   1.187   4.120   1.209  0.8434 -0.5711 -0.0795
   26MOL    H4625596   0.770   4.256   1.009 -1.5646  0.1900  0.0113
   26MOL    H4725597   0.544   4.279   1.022 -2.1755 -0.2099  1.5166
   26MOL    H4825598   0.455   3.914   0.968  0.0869 -0.2361 -1.2011
   26MOL    H4925599   0.320   3.740   0.868  1.0086 -0.5392  0.0557
   26MOL    H5025600   0.197   3.755   0.679  0.4300  0.4259  1.7106
   26MOL    H5125601   0.228   3.595   0.508  0.3656 -1.2087 -0.9406
   26MOL    H5225602   0.225   3.349   0.435 -0.1703 -1.2848  0.0658
   26MOL    N5325603   1.271   3.549   1.141  0.6665  0.6875 -0.2227
   26MOL    C5425604   1.354   3.440   1.133 -0.3617  0.8480  0.2965
   26MOL    C5525605   1.331   3.349   1.033  0.6408 -1.0832  0.8546
   26MOL    C5625606   1.413   3.230   1.022  0.8384  0.1239  0.1575
   26MOL    C5725607   1.516   3.205   1.107  0.1575  0.5475 -0.2598
   26MOL    N5825608   1.594   3.086   1.088 -0.1924  0.7605 -0.0957
   26MOL    C5925609   1.670   3.022   1.182 -0.6563 -0.0241  0.6261
   26MOL    C6025610   1.780   2.949   1.141  1.2633 -0.4485  0.1084
   26MOL    C6125611   1.860   2.890   1.237 -0.3963 -0.5385  0.0581
   26MOL    C6225612   1.833   2.903   1.373  0.0783 -0.2273  0.4632
   26MOL    N6325613   1.924   2.839   1.459 -0.0827 -0.1781 -0.2381
   26MOL    C6425614   1.889   2.771   1.577  0.5987  0.0851  0.6207
   26MOL    C6525615   1.984   2.755   1.671 -0.2142  0.2606 -0.9515
   26MOL    C6625616   1.951   2.691   1.795  0.4392 -0.6812 -0.0238
   26MOL    C6725617   1.813   2.662   1.820 -0.0294 -0.0466  0.6640
   26MOL    N6825618   1.785   2.609   1.945  0.0304  0.1993  0.5971
   26MOL    C6925619   1.670   2.537   1.980  0.2987  0.1838 -0.4759
   26MOL    C7025620   1.644   2.415   1.913  0.0943 -0.0460 -0.4474
   26MOL    C7125621   1.545   2.331   1.959 -0.1628  1.3072 -0.2025
   26MOL    C7225622   1.456   2.374   2.060 -0.4036 -0.3224  0.5246
   26MOL    C7325623   1.338   2.295   2.101 -0.2293 -0.4916  0.3128
   26MOL    C7425624   1.475   2.501   2.115 -0.1363  0.2802 -0.1612
   26MOL    C7525625   1.588   2.581   2.091 -0.2738 -0.5688 -0.0579
   26MOL    C7625626   1.719   2.680   1.723  0.0128 -1.2761  0.0919
   26MOL    C7725627   1.756   2.731   1.595 -0.0462 -0.2102 -0.2573
   26MOL    C7825628   1.724   2.978   1.421  0.8889 -0.9708 -0.4213
   26MOL    C7925629   1.637   3.031   1.320  0.5929  0.0684  0.2904
   26MOL    C8025630   1.546   3.307   1.200  0.3659  0.5925 -0.6455
   26MOL    C8125631   1.471   3.426   1.214  0.6615 -0.6546  0.3590
   26MOL    H8225632   1.205   3.564   1.066 -0.5122 -0.2594  0.5992
   26MOL    H8325633   1.246   3.360   0.966  1.8418  0.6966 -0.4298
   26MOL    H8425634   1.384   3.166   0.940  0.1820  0.5164  0.0740
   26MOL    H8525635   1.586   3.033   1.003  2.2868 -0.2248  0.2314
   26MOL    H8625636   1.808   2.940   1.037 -0.4235  1.2436 -0.5173
   26MOL    H8725637   1.936   2.822   1.202 -1.0688 -1.1767 -0.1696
   26MOL    H8825638   2.019   2.869   1.443  0.1075 -2.2747 -3.5539
   26MOL    H8925639   2.089   2.775   1.651 -0.4224  0.9544 -1.3394
   26MOL    H9025640   2.016   2.676   1.879  0.1705  0.8550  0.4715
   26MOL    H9125641   1.850   2.625   2.021 -0.8492 -1.3095  1.7030
   26MOL    H9225642   1.703   2.377   1.831  0.7646  0.6677 -0.2949
   26MOL    H9325643   1.530   2.242   1.900  1.1022  2.0412 -1.6635
   26MOL    H9425644   1.327   2.308   2.208  0.0222 -2.0927  0.5447
   26MOL    H9525645   1.349   2.188   2.084  0.1321 -0.2862 -0.8060
   26MOL    H9625646   1.400   2.533   2.186 -0.0822 -0.1007  0.0710
   26MOL    H9725647   1.601   2.673   2.147 -0.5202 -0.5413 -0.0473
   26MOL    H9825648   1.620   2.641   1.739 -0.1125 -0.9550  0.0991
   26MOL    H9925649   1.680   2.755   1.521  0.2387 -2.7515 -1.4232
   26MOL   H10025650   1.707   2.998   1.526  1.1511 -1.9502 -0.1893
   26MOL   H10125651   1.552   3.095   1.342  1.2848  0.7262  1.0740
   26MOL   H10225652   1.624   3.298   1.274 -0.6288  0.6981  0.4258
   26MOL   H10325653   1.506   3.502   1.282  0.3894 -0.6377  0.4813
   26MOL   N10425654   1.221   2.328   2.026 -1.0138 -0.4607 -0.2030
   26MOL   C10525655   1.165   2.451   2.031  0.6694 -0.3023  0.2167
   26MOL   C10625656   1.134   2.517   1.907  0.2426 -0.4661  0.4821
   26MOL   C10725657   1.064   2.640   1.898  0.1915  0.3142 -0.4625
   26MOL   C10825658   1.041   2.710   2.016  0.3433  0.4907 -0.0626
   26MOL   N10925659   0.985   2.837   2.010  0.6618  0.8171  0.4039
   26MOL   C11025660   0.933   2.889   1.892 -0.6280  0.5399 -0.3004
   26MOL   C11125661   1.022   2.919   1.781  0.1326 -0.3851 -0.3105
   26MOL   C11225662   0.960   2.975   1.666 -1.0017  0.4524 -0.0588
   26MOL   C11325663   0.825   3.000   1.653  0.2257 -0.1362  0.2153
   26MOL   N11425664   0.771   3.071   1.546 -0.3404  0.3413  0.3561
   26MOL   C11525665   0.665   3.163   1.550 -0.1573  0.9269 -0.2509
   26MOL   C11625666   0.544   3.132   1.486  0.2888  0.1846 -0.1706
   26MOL   C11725667   0.438   3.219   1.496 -0.1782 -0.3950  0.5276
   26MOL   C11825668   0.451   3.333   1.578  0.2173 -0.6634  0.6145
   26MOL   N11925669   0.340   3.424   1.590  0.6109  0.0740 -0.1551
   26MOL   C12025670   0.286   3.468   1.712 -0.2920 -0.4629 -0.6169
   26MOL   C12125671   0.168   3.546   1.712  0.1198  1.0128  0.2884
   26MOL   C12225672   0.114   3.588   1.839  0.5905  0.4935  0.8349
   26MOL   C12325673   0.176   3.552   1.961  0.0370  0.0578  0.4214
   26MOL   C12425674   0.119   3.606   2.092 -0.1888 -0.0584  0.0948
   26MOL   C12525675   0.287   3.475   1.958  0.0874 -0.4419  0.0032
   26MOL   C12625676   0.341   3.438   1.837  0.0496  0.1936  0.3940
   26MOL   C12725677   0.573   3.365   1.632  0.5993  0.5873 -0.1053
   26MOL   C12825678   0.675   3.280   1.626  0.0052  0.2058  0.4475
   26MOL   C12925679   0.740   2.965   1.760  0.4410 -0.1445 -0.0082
   26MOL   C13025680   0.791   2.909   1.876  0.4877  0.0742 -0.3169
   26MOL   C13125681   1.076   2.657   2.140 -0.1128 -0.3879  0.4921
   26MOL   C13225682   1.132   2.523   2.151  0.1727 -0.6675  0.0218
   26MOL   H13325683   1.226   2.300   1.930 -0.3107  0.1884 -0.3562
   26MOL   H13425684   1.156   2.467   1.813 -0.7121 -2.4683  1.3075
   26MOL   H13525685   1.038   2.679   1.801  0.8627  1.1000 -0.3370
   26MOL   H13625686   0.938   2.854   2.097 -0.9675  1.3167 -0.5637
   26MOL   H13725687   1.129   2.925   1.784  0.3041 -0.2021 -3.9854
   26MOL   H13825688   1.026   3.006   1.587  0.4494 -0.8888  0.5885
   26MOL   H13925689   0.840   3.084   1.473  0.9718  1.4028  1.7592
   26MOL   H14025690   0.522   3.031   1.454  2.8118 -0.7848  1.0325
   26MOL   H14125691   0.341   3.204   1.453 -0.4320 -0.5942  1.1637
   26MOL   H14225692   0.265   3.407   1.525 -1.0327  2.7086  0.9638
   26MOL   H14325693   0.115   3.558   1.619 -1.1760  2.0306  1.1519
   26MOL   H14425694   0.027   3.652   1.838  0.5165  0.4147 -1.5612
   26MOL   H14525695   0.078   3.517   2.140 -0.2857  0.0339  0.1826
   26MOL   H14625696   0.030   3.663   2.068  0.2335  0.8749  0.6976
   26MOL   H14725697   0.334   3.450   2.053 -0.4177 -0.0545  0.3595
   26MOL   H14825698   0.434   3.382   1.846 -0.9928 -1.2613  2.8105
   26MOL   H14925699   0.576   3.466   1.670 -2.8267  1.2561 -1.3817
   26MOL   H15025700   0.772   3.312   1.664  0.4467 -1.1381  0.4676
   26MOL   H15125701   0.633   2.976   1.746  0.7284  1.4679 -1.1322
   26MOL   H15225702   0.722   2.884   1.955  0.7087 -2.7070 -0.9559
   26MOL   H15325703   1.038   2.702   2.231 -1.4705 -1.1974  0.3322
   26MOL   H15425704   1.140   2.475   2.247  0.3995 -0.2000  0.2412
   26MOL   N15525705   0.214   3.677   2.177 -0.5124 -0.3840 -0.2593
   26MOL   C15625706   0.172   3.734   2.296  0.2328 -0.1805 -0.2758
   26MOL   C15725707   0.069   3.679   2.374 -0.5458  0.1115  0.2907
   26MOL   C15825708   0.038   3.729   2.505 -0.3949  0.1855 -0.1046
   26MOL   C15925709   0.117   3.835   2.554  0.8260  0.0387 -0.5296
   26MOL   N16025710   0.108   3.905   2.674  0.3068 -0.2650 -0.5107
   26MOL   C16125711   0.015   3.896   2.773 -0.1028  0.5193 -0.3103
   26MOL   C16225712   7.979   3.782   2.862 -0.0191 -0.3009 -0.1145
   26MOL   C16325713   7.882   3.782   2.962  0.1536  0.7515 -0.0205
   26MOL   C16425714   7.806   3.894   2.987  0.1151 -0.0308 -0.5194
   26MOL   N16525715   7.729   3.887   3.101  0.5191  0.1341 -0.1012
   26MOL   C16625716   7.721   3.993   3.197  0.4713 -0.1791 -0.7688
   26MOL   C16725717   7.593   4.052   3.226  0.3739  0.0559 -0.0228
   26MOL   C16825718   7.583   4.156   3.313  0.3718 -0.6403 -0.1123
   26MOL   C16925719   7.708   4.204   3.369 -0.3464  0.0071 -0.4000
   26MOL   N17025720   7.699   4.319   3.452 -0.3776 -0.1530  0.1728
   26MOL   C17125721   7.797   4.382   3.533  0.5817  0.1266 -0.6409
   26MOL   C17225722   7.769   4.404   3.670 -0.6753 -0.0787  0.0011
   26MOL   C17325723   7.868   4.466   3.749 -0.5039 -0.8068 -0.0389
   26MOL   C17425724   0.009   4.515   3.698  0.0822 -0.4849  0.2070
   26MOL   C17525725   0.117   4.582   3.779  0.2415  0.0537 -0.2540
   26MOL   C17625726   0.030   4.490   3.564 -0.2326 -0.3601 -0.0741
   26MOL   C17725727   7.920   4.432   3.482 -0.0823 -0.0693 -0.4492
   26MOL   C17825728   7.831   4.138   3.349 -0.3914  0.3157  0.2878
   26MOL   C17925729   7.843   4.033   3.254  0.1379  0.2713 -0.3190
   26MOL   C18025730   7.815   4.004   2.902  0.2089  0.5763 -0.3313
   26MOL   C18125731   7.909   4.004   2.796 -0.3992 -0.4009 -0.1367
   26MOL   C18225732   0.222   3.888   2.477 -0.2806 -0.1950  1.0540
   26MOL   C18325733   0.250   3.842   2.346  0.1951  0.2002  0.0319
   26MOL   H18425734   0.280   3.726   2.118 -0.7921 -0.4793 -0.6566
   26MOL   H18525735   0.014   3.589   2.351  1.1539 -1.2464  1.4427
   26MOL   H18625736   7.942   3.674   2.555  1.3853 -1.0566  1.3923
   26MOL   H18725737   0.172   3.983   2.682  0.0287 -0.1109  0.3469
   26MOL   H18825738   0.043   3.685   2.858  0.5296 -0.2690  3.8268
   26MOL   H18925739   7.883   3.699   3.032 -0.7404  0.1470 -0.7116
   26MOL   H19025740   7.644   3.834   3.089  0.1190  0.7801 -0.1121
   26MOL   H19125741   7.503   4.010   3.182 -0.4232  1.0730  0.6128
   26MOL   H19225742   7.495   4.214   3.335  1.5101  0.1119  2.6767
   26MOL   H19325743   7.605   4.328   3.487 -1.2323  1.6899 -2.4450
   26MOL   H19425744   7.683   4.372   3.727 -1.7700  1.7773 -0.5874
   26MOL   H19525745   7.855   4.481   3.855  0.9298 -1.2307  0.2168
   26MOL   H19625746   0.210   4.578   3.721 -0.3335  1.6506 -1.3202
   26MOL   H19725747   0.117   4.530   3.875 -1.5408 -1.7108 -1.1764
   26MOL   H19825748   0.123   4.524   3.522 -0.4653 -2.1346 -2.0977
   26MOL   H19925749   7.933   4.425   3.375  1.5845  3.4545 -0.5604
   26MOL   H20025750   7.921   4.180   3.393  0.4491 -1.2679  0.1175
   26MOL   H20125751   7.940   3.989   3.234  1.0767  1.2791  1.8081
   26MOL   H20225752   7.753   4.093   2.905 -0.6154 -0.0558  2.1443
   26MOL   H20325753   7.920   4.094   2.737 -2.4562 -0.2418 -0.3187
   26MOL   H20425754   0.293   3.964   2.509 -0.8784  1.9925 -2.5116
   26MOL   H20525755   0.337   3.884   2.296  1.4953  2.5294  3.9515
   26MOL   N20625756   0.099   4.732   3.801  0.1900 -0.1029 -0.1978
   26MOL   C20725757   0.165   4.810   3.893  0.0399 -0.2464 -0.7666
   26MOL   C20825758   0.131   4.946   3.901 -0.2520 -0.7432  0.0115
   26MOL   C20925759   0.195   5.032   3.994  0.1405  0.8906  0.0304
   26MOL   C21025760   0.292   4.975   4.077  0.3168 -0.4824  0.8331
   26MOL   N21125761   0.374   5.060   4.155  0.0168  0.2873 -0.7133
   26MOL   C21225762   0.427   5.183   4.126 -0.3680 -0.4494  0.6832
   26MOL   C21325763   0.477   5.263   4.229  0.0974  0.2044 -0.1287
   26MOL   C21425764   0.537   5.386   4.203 -0.0395  0.4839  0.6403
   26MOL   C21525765   0.530   5.440   4.074  0.0343 -0.4842 -1.0117
   26MOL   N21625766   0.584   5.569   4.045 -0.3138 -0.1511 -0.4743
   26MOL   C21725767   0.537   5.650   3.944 -0.6572  0.0315 -0.3906
   26MOL   C21825768   0.632   5.728   3.873 -0.4513 -0.0358  0.1214
   26MOL   C21925769   0.593   5.814   3.768  0.0376 -0.2382 -0.6130
   26MOL   C22025770   0.459   5.818   3.734  0.1336  0.1892 -0.1783
   26MOL   N22125771   0.420   5.895   3.621  0.0352 -0.5661 -0.8669
   26MOL   C22225772   0.427   6.036   3.612 -0.7110 -0.4496 -0.6880
   26MOL   C22325773   0.475   6.116   3.711  0.2669 -0.1901 -0.7478
   26MOL   C22425774   0.473   6.262   3.698  0.3284 -0.2480  0.1734
   26MOL   C22525775   0.432   6.320   3.582 -0.1081 -0.3416  0.6098
   26MOL   C22625776   0.424   6.466   3.560  0.0167 -0.7705 -0.4556
   26MOL   C22725777   0.386   6.236   3.479  0.2161 -0.2917  0.1508
   26MOL   C22825778   0.381   6.098   3.497 -0.3244 -0.5267  0.5626
   26MOL   C22925779   0.362   5.761   3.816  0.3775 -0.2755  0.3406
   26MOL   C23025780   0.397   5.666   3.911 -0.7752 -0.1194  0.1932
   26MOL   C23125781   0.466   5.366   3.976  0.1002 -0.1032  0.5294
   26MOL   C23225782   0.427   5.232   3.996  0.6066  0.8563  1.0332
   26MOL   C23325783   0.318   4.840   4.079 -0.3738  0.1280  0.0039
   26MOL   C23425784   0.266   4.754   3.978  0.4314 -0.2923 -0.2507
   26MOL   H23525785   0.051   4.789   3.733  1.9072 -0.9143 -2.1105
   26MOL   H23625786   0.051   4.973   3.834 -0.8057  1.5633  1.5458
   26MOL   H23725787   0.172   5.137   4.007  0.4313  0.7824  1.5380
   26MOL   H23825788   0.421   5.021   4.236 -1.6418  0.6791  0.4662
   26MOL   H23925789   0.472   5.228   4.331 -0.7808 -0.2964 -0.3356
   26MOL   H24025790   0.585   5.451   4.275 -0.0084 -0.7452  1.7682
   26MOL   H24125791   0.667   5.603   4.093  0.7048  0.2213 -2.4366
   26MOL   H24225792   0.736   5.717   3.898 -0.4354  1.4471  0.7427
   26MOL   H24325793   0.670   5.866   3.712  0.8346 -0.0652  0.6243
   26MOL   H24425794   0.356   5.841   3.565 -3.5066 -0.7263  3.1374
   26MOL   H24525795   0.525   6.072   3.796  0.7175 -2.1727 -2.0136
   26MOL   H24625796   0.488   6.322   3.786 -0.8816 -1.1854  1.0246
   26MOL   H24725797   0.329   6.493   3.513  1.0163  1.2854 -1.3476
   26MOL   H24825798   0.509   6.486   3.495 -0.6161 -2.0788 -1.7137
   26MOL   H24925799   0.354   6.268   3.381  0.6585  0.4189  0.2341
   26MOL   H25025800   0.346   6.038   3.414 -2.9810 -0.7115  1.7905
   26MOL   H25125801   0.257   5.773   3.791  0.7137  2.7837  0.2924
   26MOL   H25225802   0.325   5.613   3.972  0.9527 -1.8678  0.7811
   26MOL   H25325803   0.448   5.406   3.877  0.4725 -0.5717  0.2677
   26MOL   H25425804   0.395   5.171   3.913  1.3744 -0.6477  1.8295
   26MOL   H25525805   0.388   4.797   4.149  0.5281 -0.2165 -1.0924
   26MOL   H25625806   0.293   4.650   3.962 -2.5833 -1.3113  0.8444
   26MOL   N25725807   0.418   6.557   3.677 -0.1247  0.6123  0.2355
   26MOL   C25825808   0.531   6.580   3.751 -0.7757  0.1824  0.9461
   26MOL   C25925809   0.655   6.514   3.727 -0.3143  0.1516 -0.9412
   26MOL   C26025810   0.766   6.538   3.816 -0.0694 -0.6091  0.2352
   26MOL   C26125811   0.754   6.637   3.924  0.3110 -0.2219 -0.2972
   26MOL   N26225812   0.867   6.673   4.000  0.0552  0.1370 -0.7155
   26MOL   C26325813   0.861   6.737   4.123  0.0280  0.3346  0.2819
   26MOL   C26425814   0.783   6.677   4.222  0.5897 -0.0221 -0.4341
   26MOL   C26525815   0.775   6.732   4.354 -0.3827 -0.1273  0.3825
   26MOL   C26625816   0.855   6.842   4.384 -0.3712 -0.6559 -0.4412
   26MOL   N26725817   0.866   6.901   4.516 -0.4304 -0.8504  0.0713
   26MOL   C26825818   0.773   6.942   4.610  1.0220 -0.0256  0.7307
   26MOL   C26925819   0.824   7.014   4.720 -0.4366  0.6921 -0.5227
   26MOL   C27025820   0.740   7.088   4.803  0.0409 -0.1196 -0.4931
   26MOL   C27125821   0.600   7.098   4.776  0.0605 -0.3989 -0.4361
   26MOL   N27225822   0.516   7.176   4.853  0.1845 -0.3687 -0.1953
   26MOL   C27325823   0.562   7.246   4.965  0.0296  0.6146  0.1502
   26MOL   C27425824   0.556   7.183   5.093 -0.2656 -0.1680 -0.1942
   26MOL   C27525825   0.595   7.254   5.210  0.0570  0.6451 -0.3602
   26MOL   C27625826   0.655   7.384   5.193  0.3937  0.0779 -0.1399
   26MOL   C27725827   0.682   7.472   5.313  0.4896  0.4493 -0.0657
   26MOL   C27825828   0.668   7.447   5.068 -0.0068 -0.9312  0.2867
   26MOL   C27925829   0.628   7.374   4.955  1.1303  0.7352 -0.4134
   26MOL   C28025830   0.550   7.037   4.656 -0.0692 -0.5257 -0.5280
   26MOL   C28125831   0.635   6.959   4.582 -0.8477  0.1725  0.5760
   26MOL   C28225832   0.939   6.899   4.282 -0.0646 -0.3030 -0.1829
   26MOL   C28325833   0.944   6.843   4.150  0.3931  0.2786 -0.3366
   26MOL   C28425834   0.624   6.686   3.949 -0.2172 -0.8711  0.3318
   26MOL   C28525835   0.512   6.652   3.864  1.0442 -0.4844 -0.4975
   26MOL   H28625836   0.333   6.574   3.728  0.7303  2.1280  1.2060
   26MOL   H28725837   0.670   6.444   3.647  1.1761  0.0084 -0.5534
   26MOL   H28825838   0.861   6.499   3.781  0.7281  1.6092 -0.1525
   26MOL   H28925839   0.957   6.648   3.963  0.5380  0.9044 -0.0841
   26MOL   H29025840   0.729   6.586   4.198  2.1199 -0.9874 -0.3310
   26MOL   H29125841   0.711   6.695   4.433  1.7563 -0.9116  1.7687
   26MOL   H29225842   0.946   6.960   4.534 -0.5808 -0.7143  0.2924
   26MOL   H29325843   0.930   7.028   4.739 -0.2633 -0.9834 -0.1890
   26MOL   H29425844   0.779   7.133   4.893  0.9061  2.6164 -2.1535
   26MOL   H29525845   0.430   7.198   4.806  0.8705 -2.3828 -2.5127
   26MOL   H29625846   0.503   7.090   5.108  0.1442 -0.4092 -0.2305
   26MOL   H29725847   0.578   7.209   5.307  0.4704 -0.1488 -0.6581
   26MOL   H29825848   0.632   7.425   5.398  0.7294  0.9135  0.3395
   26MOL   H29925849   0.639   7.567   5.281  0.2894  0.3762 -0.0097
   26MOL   H30025850   0.717   7.543   5.064 -0.7461 -0.2549  4.7816
   26MOL   H30125851   0.640   7.414   4.855  1.1810  2.6859  0.3589
   26MOL   H30225852   0.447   7.057   4.628  0.2974  0.5557 -1.1142
   26MOL   H30325853   0.605   6.939   4.480 -1.3417  1.0451  0.5436
   26MOL   H30425854   1.013   6.973   4.308  1.0614 -1.6210  0.3893
   26MOL   H30525855   1.008   6.886   4.074 -0.9568  1.1787 -0.9894
   26MOL   H30625856   0.607   6.748   4.035  0.7177 -0.7857  0.4641
   26MOL   H30725857   0.414   6.693   3.883  1.0904 -1.3081  1.7106
   26MOL   N30825858   0.819   7.499   5.339 -0.1223 -0.6538  0.7200
   26MOL   C30925859   0.860   7.542   5.467 -0.2007 -0.7946  0.7217
   26MOL   C31025860   0.990   7.533   5.509  0.4555 -0.1491  0.2271
   26MOL   C31125861   1.024   7.561   5.637  0.7485 -0.2409 -0.6856
   26MOL   C31225862   0.938   7.628   5.727  0.5804  0.0452 -0.4035
   26MOL   N31325863   0.980   7.667   5.853 -0.1639 -0.2171  0.5960
   26MOL   C31425864   1.073   7.618   5.943  0.3609 -1.0425  0.2901
   26MOL   C31525865   1.113   7.710   6.041 -0.7544  0.2870  0.0731
   26MOL   C31625866   1.212   7.673   6.133  0.6856  0.3801  0.4345
   26MOL   C31725867   1.263   7.542   6.126  0.3968  1.0798 -0.4139
   26MOL   N31825868   1.366   7.508   6.213 -0.2319  0.4206 -0.0895
   26MOL   C31925869   1.502   7.491   6.188 -0.0508 -0.0646  0.0156
   26MOL   C32025870   1.578   7.445   6.294  0.4195 -0.0516  0.0115
   26MOL   C32125871   1.720   7.462   6.303  0.2222 -0.1533 -0.1877
   26MOL   C32225872   1.783   7.525   6.192 -0.7558  0.4734 -0.3831
   26MOL   N32325873   1.923   7.543   6.198  0.3943 -0.0649 -0.0846
   26MOL   C32425874   2.008   7.616   6.115 -0.0065 -0.2964  0.1626
   26MOL   C32525875   1.978   7.745   6.075 -0.0950  0.6375 -0.2180
   26MOL   C32625876   2.065   7.824   6.002 -0.3279 -0.3868 -0.2968
   26MOL   C32725877   2.186   7.768   5.968 -0.4283  0.0851 -0.4071
   26MOL   C32825878   2.290   7.854   5.897  0.3084 -0.8740  0.3157
   26MOL   C32925879   2.216   7.634   6.004  0.2044  0.3468 -0.0455
   26MOL   C33025880   2.128   7.553   6.078 -0.7700  0.4148 -0.3073
   26MOL   C33125881   1.706   7.567   6.080  0.9182  0.4892 -0.3119
   26MOL   C33225882   1.568   7.550   6.079 -0.4586 -0.2643  0.4230
   26MOL   C33325883   1.228   7.449   6.027  0.1144 -0.3568  0.0594
   26MOL   C33425884   1.132   7.489   5.929  0.0210 -0.0407 -0.2095
   26MOL   C33525885   0.807   7.652   5.682 -0.0804  0.3508  0.4070
   26MOL   C33625886   0.772   7.609   5.556 -0.4852 -0.2307  0.5219
   26MOL   H33725887   0.892   7.459   5.282 -0.5276 -1.0251  0.4581
   26MOL   H33825888   1.052   7.487   5.434  0.3547 -0.3870  0.2881
   26MOL   H33925889   1.126   7.546   5.670  0.0556  0.2991  1.7580
   26MOL   H34025890   0.937   7.751   5.890  1.7400  0.6846  0.8275
   26MOL   H34125891   1.075   7.811   6.043 -0.9773  0.2059 -0.0706
   26MOL   H34225892   1.241   7.753   6.199 -0.4475 -0.8434  2.4637
   26MOL   H34325893   1.345   7.533   6.309  1.2232  0.6463  0.1918
   26MOL   H34425894   1.524   7.408   6.379  0.9103 -2.5588 -0.7391
   26MOL   H34525895   1.768   7.426   6.393 -0.2876 -0.2870  0.0288
   26MOL   H34625896   1.980   7.494   6.266  2.0609  2.3791  0.3732
   26MOL   H34725897   1.884   7.790   6.101  0.9651  1.5873  2.0849
   26MOL   H34825898   2.043   7.930   5.995  2.4485  0.3549  1.4152
   26MOL   H34925899   2.295   7.832   5.791 -2.0949 -2.4838  0.5035
   26MOL   H35025900   2.383   7.818   5.942 -0.2870 -2.5238  0.2537
   26MOL   H35125901   2.316   7.600   5.980 -0.4685 -1.6005 -0.1412
   26MOL   H35225902   2.156   7.454   6.108 -0.5823  1.1963  2.2022
   26MOL   H35325903   1.746   7.613   5.991  2.2085  0.0004  0.0087
   26MOL   H35425904   1.522   7.595   5.993  2.0991 -1.3452 -1.5708
   26MOL   H35525905   1.276   7.352   6.031  3.1628  1.0695 -0.0858
   26MOL   H35625906   1.103   7.424   5.847 -2.2076 -0.1176  0.5955
   26MOL   H35725907   0.741   7.713   5.741  0.7275  1.1332  0.5122
   26MOL   H35825908   0.672   7.623   5.518 -1.2089 -0.6100  2.2292
   26MOL   N35925909   2.287   0.018   5.922 -0.6780  0.4087 -0.3169
   26MOL   C36025910   2.238   0.101   5.820  0.2760  0.2963  0.0187
   26MOL   C36125911   2.123   0.068   5.744  0.6217 -0.5497 -0.5669
   26MOL   C36225912   2.082   0.153   5.642 -0.5652  0.0843 -0.5936
   26MOL   C36325913   2.148   0.273   5.620 -0.3661 -0.9975  0.0284
   26MOL   N36425914   2.098   0.367   5.525  0.4280  1.0114 -0.0409
   26MOL   C36525915   2.047   0.351   5.395  0.3747  0.4415 -0.2932
   26MOL   C36625916   1.987   0.462   5.342 -0.7041  0.4038  0.1458
   26MOL   C36725917   1.927   0.456   5.216 -0.2409 -0.4161  1.0058
   26MOL   C36825918   1.937   0.335   5.138  0.2692  0.4007  0.1598
   26MOL   N36925919   1.897   0.356   5.006  0.3847  0.4065 -0.1139
   26MOL   C37025920   1.896   0.269   4.898 -0.1371  0.0047 -0.7376
   26MOL   C37125921   1.869   0.132   4.910 -0.1353  0.5046 -0.2501
   26MOL   C37225922   1.874   0.042   4.800  0.0393  0.0354 -0.1740
   26MOL   C37325923   1.921   0.088   4.674 -0.1835  0.3346  0.0455
   26MOL   N37425924   1.926   0.007   4.566  0.3353  0.1943  0.9655
   26MOL   C37525925   1.984   0.042   4.442  0.4696  0.4592 -0.1171
   26MOL   C37625926   2.111   0.100   4.431 -0.3113 -0.2949 -0.1229
   26MOL   C37725927   2.169   0.140   4.311  0.0270 -0.2056 -1.0714
   26MOL   C37825928   2.093   0.124   4.196 -0.3800  0.4507  0.1400
   26MOL   C37925929   2.153   0.185   4.069 -0.7380 -0.1445 -0.3058
   26MOL   C38025930   1.963   0.060   4.200 -0.1431 -0.9347 -0.2342
   26MOL   C38125931   1.905   0.023   4.324  0.1665  0.5606  0.2614
   26MOL   C38225932   1.946   0.230   4.660  0.2418 -0.2445 -0.0112
   26MOL   C38325933   1.936   0.318   4.772  0.4058 -0.2680  0.4982
   26MOL   C38425934   1.999   0.227   5.196  0.4810  0.0512  0.0512
   26MOL   C38525935   2.052   0.228   5.328  0.3437  0.6462 -0.1898
   26MOL   C38625936   2.258   0.310   5.694  0.9868 -0.1797 -0.3530
   26MOL   C38725937   2.301   0.219   5.793 -0.4803  0.3668  0.3319
   26MOL   H38825938   2.371   0.049   5.969  0.1113 -2.3405  0.1380
   26MOL   H38925939   2.068   7.959   5.765  1.1891  0.1154  4.5181
   26MOL   H39025940   1.992   0.123   5.590 -1.5198  0.1421  1.0102
   26MOL   H39125941   2.108   0.462   5.558  0.0809  1.1404 -0.2927
   26MOL   H39225942   1.979   0.550   5.404  1.3497 -0.6252  1.9134
   26MOL   H39325943   1.880   0.546   5.180 -3.4380 -2.0785  0.7377
   26MOL   H39425944   1.879   0.451   4.977  0.0706  0.2447 -0.4552
   26MOL   H39525945   1.847   0.094   5.009 -1.9548 -0.7394 -1.0861
   26MOL   H39625946   1.851   7.919   4.803 -1.2954  0.3344  0.2868
   26MOL   H39725947   1.864   7.911   4.579 -0.4472  1.0664  2.5337
   26MOL   H39825948   2.167   0.112   4.523  0.1121 -3.1822  0.0403
   26MOL   H39925949   2.264   0.192   4.317 -0.0242 -0.0465 -1.6095
   26MOL   H40025950   2.137   0.122   3.981 -0.8263  0.7648 -0.9465
   26MOL   H40125951   2.261   0.191   4.072 -0.7822 -0.0327  1.0532
   26MOL   H40225952   1.908   0.045   4.108 -2.6633 -0.7517  1.1868
   26MOL   H40325953   1.805   7.975   4.351  0.3238  2.7660  3.5892
   26MOL   H40425954   1.965   0.269   4.561 -2.3407  1.7158  0.2057
   26MOL   H40525955   1.961   0.421   4.749  2.8796 -1.0623 -0.5439
   26MOL   H40625956   2.016   0.134   5.144 -2.5728 -1.8578  2.2744
   26MOL   H40725957   2.093   0.138   5.371  0.4301  1.3492  1.2048
   26MOL   H40825958   2.300   0.408   5.682 -1.5793  1.2877  2.1309
   26MOL   H40925959   2.391   0.245   5.846  0.9018 -4.1629  0.3503
   26MOL   N41025960   2.113   0.321   4.041  0.8444 -0.1440 -0.0648
   26MOL   C41125961   1.974   0.332   4.032  0.2176  0.2925  0.5233
   26MOL   C41225962   1.905   0.275   3.925 -1.1436 -0.8543  0.2698
   26MOL   C41325963   1.771   0.280   3.913  0.9734 -0.1452 -0.6605
   26MOL   C41425964   1.691   0.327   4.022  0.0174  0.0701  0.4125
   26MOL   N41525965   1.555   0.331   4.018 -0.3293  0.0015 -0.3790
   26MOL   C41625966   1.472   0.369   3.906  0.0385  0.3257 -0.3694
   26MOL   C41725967   1.338   0.319   3.905 -0.5006  0.4646 -0.1530
   26MOL   C41825968   1.259   0.334   3.792  0.1716  0.0904 -0.1132
   26MOL   C41925969   1.302   0.411   3.681  0.0997 -0.3713 -0.0533
   26MOL   N42025970   1.227   0.421   3.563  0.1605 -0.0236 -0.2458
   26MOL   C42125971   1.265   0.462   3.435  0.0412  0.2523 -0.1662
   26MOL   C42225972   1.157   0.508   3.355 -0.3010 -0.3954  0.3191
   26MOL   C42325973   1.188   0.564   3.228 -0.1430 -0.2114  0.5221
   26MOL   C42425974   1.321   0.563   3.185 -0.7882  0.4309 -0.3886
   26MOL   N42525975   1.350   0.619   3.064 -0.2125  0.1362  0.5081
   26MOL   C42625976   1.289   0.737   3.015 -0.0086  0.4355  0.7067
   26MOL   C42725977   1.270   0.747   2.874 -0.3680 -0.6320 -0.1272
   26MOL   C42825978   1.187   0.848   2.826  0.4128  0.6842 -0.1006
   26MOL   C42925979   1.146   0.958   2.902 -0.0538  0.5729 -1.2710
   26MOL   C43025980   1.077   1.083   2.841 -0.2499  0.0805 -0.4375
   26MOL   C43125981   1.185   0.959   3.038  0.8459  0.1595  0.0585
   26MOL   C43225982   1.247   0.845   3.094 -0.1035 -0.9504 -0.4347
   26MOL   C43325983   1.424   0.501   3.258 -0.0913 -0.5486 -0.1160
   26MOL   C43425984   1.390   0.444   3.380  1.0125  0.5426 -0.1505
   26MOL   C43525985   1.430   0.475   3.691  0.3043 -0.0344  0.6210
   26MOL   C43625986   1.513   0.451   3.803  0.8689  0.1014 -0.0738
   26MOL   C43725987   1.758   0.378   4.136  0.0752 -0.7667  0.4048
   26MOL   C43825988   1.898   0.380   4.138 -0.8097 -0.2178  0.4450
   26MOL   H43925989   2.162   0.388   4.099  0.1711  1.5925 -1.4620
   26MOL   H44025990   1.959   0.224   3.846 -0.8919  1.5187 -1.1149
   26MOL   H44125991   1.720   0.245   3.825 -1.7847  0.6428  0.5581
   26MOL   H44225992   1.506   0.308   4.103  0.4556 -0.7688 -0.1240
   26MOL   H44325993   1.309   0.262   3.992 -1.1985 -1.2388 -1.4639
   26MOL   H44425994   1.166   0.278   3.790 -1.4199  2.6314  0.9329
   26MOL   H44525995   1.127   0.418   3.573 -0.0308  1.9709 -1.3082
   26MOL   H44625996   1.063   0.529   3.403  0.3048 -0.2864  1.4767
   26MOL   H44725997   1.106   0.604   3.169  0.4463  0.5641  0.2136
   26MOL   H44825998   1.388   0.555   2.995  0.8249  0.4842  0.7399
   26MOL   H44925999   1.309   0.677   2.802  0.2984  0.9078 -1.2909
   26MOL   H45026000   1.178   0.855   2.718  1.7995 -0.1292 -0.2720
   26MOL   H45126001   1.154   1.138   2.787  0.1188  1.8469  1.8150
   26MOL   H45226002   1.029   1.144   2.917 -0.5474  0.5278 -0.9778
   26MOL   H45326003   1.161   1.041   3.104 -2.7489  0.7732 -1.8499
   26MOL   H45426004   1.271   0.845   3.199 -0.1294  0.8885 -0.4177
   26MOL   H45526005   1.520   0.477   3.215 -0.0538 -1.0303  0.2233
   26MOL   H45626006   1.461   0.387   3.438  0.6576 -0.9142 -1.1329
   26MOL   H45726007   1.470   0.536   3.613 -2.9346 -0.1346 -1.2196
   26MOL   H45826008   1.613   0.491   3.793  0.3298  1.1921 -1.2582
   26MOL   H45926009   1.706   0.393   4.229  0.6128 -1.5180  0.8347
   26MOL   H46026010   1.947   0.414   4.228 -1.0324  0.3018  0.3752
   26MOL   N46126011   0.977   1.043   2.741 -0.2756  0.2663 -0.1085
   26MOL   C46226012   0.856   0.980   2.777 -0.1934  0.1437  0.1816
   26MOL   C46326013   0.807   0.980   2.909  0.0040  0.2101  0.1577
   26MOL   C46426014   0.681   0.918   2.938 -0.0869 -0.3121 -0.0476
   26MOL   C46526015   0.610   0.848   2.835  0.1213  0.2694 -0.1035
   26MOL   N46626016   0.487   0.785   2.865 -0.3254 -0.1552  0.0109
   26MOL   C46726017   0.413   0.791   2.979  0.9338  0.8618  0.3510
   26MOL   C46826018   0.380   0.668   3.046 -0.6597 -0.7994 -0.4716
   26MOL   C46926019   0.311   0.680   3.167  0.6323 -0.2422 -0.4756
   26MOL   C47026020   0.266   0.801   3.220 -0.5774  0.2504  0.0390
   26MOL   N47126021   0.197   0.813   3.341  0.1799  0.3849 -0.2530
   26MOL   C47226022   0.249   0.772   3.466  0.5955 -1.0656 -0.2638
   26MOL   C47326023   0.384   0.743   3.465 -0.1166  0.3487  0.0295
   26MOL   C47426024   0.443   0.685   3.584 -0.2859  0.5371  0.0959
   26MOL   C47526025   0.365   0.665   3.701  0.3624 -0.1785 -0.0897
   26MOL   N47626026   0.423   0.614   3.815  0.4478 -0.4025  0.0642
   26MOL   C47726027   0.377   0.505   3.886  1.2482  0.9782  0.0863
   26MOL   C47826028   0.467   0.449   3.975 -0.3449  0.3937 -0.0201
   26MOL   C47926029   0.430   0.332   4.041 -0.2258  0.1690 -0.4216
   26MOL   C48026030   0.312   0.267   4.016  0.2868  0.8264 -0.6239
   26MOL   C48126031   0.281   0.143   4.091 -0.2260 -0.4778 -0.2714
   26MOL   C48226032   0.216   0.324   3.927  0.1959 -0.2163  0.4217
   26MOL   C48326033   0.248   0.447   3.865 -1.0435 -0.8845  0.4173
   26MOL   C48426034   0.228   0.710   3.705 -0.0248  0.0108  0.6969
   26MOL   C48526035   0.168   0.752   3.583 -0.4957  0.1661  0.3821
   26MOL   C48626036   0.287   0.919   3.144 -0.2293  0.1911  0.8762
   26MOL   C48726037   0.366   0.910   3.030 -0.0532  0.4407  0.9648
   26MOL   C48826038   0.662   0.855   2.702 -0.7042 -0.4247 -0.4813
   26MOL   C48926039   0.788   0.910   2.677 -0.5287 -0.0662  0.1503
   26MOL   H49026040   1.007   1.022   2.646 -2.7356  1.6174 -1.2351
   26MOL   H49126041   0.848   1.040   2.989 -0.7405  2.4384 -1.0765
   26MOL   H49226042   0.638   0.931   3.036  0.1116 -0.2935  0.0347
   26MOL   H49326043   0.482   0.692   2.826  0.9722  0.4388 -1.6462
   26MOL   H49426044   0.413   0.574   3.003 -1.0255  0.1574 -2.9467
   26MOL   H49526045   0.291   0.588   3.222 -1.5193  1.3403  1.5007
   26MOL   H49626046   0.108   0.860   3.338  0.0513  0.1374 -0.3463
   26MOL   H49726047   0.446   0.743   3.377 -0.0168  0.4529  0.0985
   26MOL   H49826048   0.546   0.653   3.584 -0.8096 -1.1859  0.2862
   26MOL   H49926049   0.521   0.636   3.825 -0.2490  1.9608  2.0158
   26MOL   H50026050   0.566   0.488   3.992 -0.3474  1.4095 -2.1292
   26MOL   H50126051   0.491   0.294   4.122 -0.5882  1.6636  0.5763
   26MOL   H50226052   0.172   0.138   4.091 -0.2524  0.0460 -0.7717
   26MOL   H50326053   0.318   0.141   4.194 -0.5085 -1.1097 -0.1800
   26MOL   H50426054   0.134   0.263   3.892  0.1750 -0.1521  0.3583
   26MOL   H50526055   0.187   0.491   3.788  0.0228  2.2654  1.2906
   26MOL   H50626056   0.170   0.713   3.796  0.7405  0.5283  1.1741
   26MOL   H50726057   0.062   0.762   3.569 -0.4356 -0.2828 -0.4004
   26MOL   H50826058   0.244   1.010   3.182  0.9276  1.6085 -1.1463
   26MOL   H50926059   0.400   0.994   2.972  0.5551 -0.4538 -0.0010
   26MOL   H51026060   0.608   0.805   2.623  0.7416  0.5334 -2.1096
   26MOL   H51126061   0.840   0.902   2.583 -0.7292 -0.1285  0.0441
   26MOL   N51226062   0.335   0.021   4.025  0.4055 -0.2021  0.2982
   26MOL   C51326063   0.356   7.877   4.085  0.2901  0.1742  0.4897
   26MOL   C51426064   0.436   7.784   4.023  0.2119 -0.7333 -0.2404
   26MOL   C51526065   0.466   7.661   4.082 -0.5731 -0.0089  0.1536
   26MOL   C51626066   0.404   7.627   4.205 -0.0134  0.3143  0.6140
   26MOL   N51726067   0.418   7.496   4.257  0.0052 -0.0724  0.3409
   26MOL   C51826068   0.381   7.441   4.381  1.2508 -0.1123 -0.2944
   26MOL   C51926069   0.321   7.312   4.374  0.3355 -0.3988  0.2298
   26MOL   C52026070   0.275   7.253   4.496  0.2890  1.0210  0.3914
   26MOL   C52126071   0.290   7.321   4.621  0.2675 -0.4189  0.7356
   26MOL   N52226072   0.228   7.269   4.739  0.0456 -0.2633 -0.7255
   26MOL   C52326073   0.142   7.338   4.829  0.0260 -0.0165  0.4226
   26MOL   C52426074   0.105   7.259   4.940 -0.2422 -0.9616 -0.2852
   26MOL   C52526075   0.004   7.311   5.029 -0.0437  0.1840  0.0706
   26MOL   C52626076   7.916   7.431   5.002 -0.4686  0.0217 -0.5043
   26MOL   N52726077   7.807   7.475   5.074 -0.6526 -0.0686 -0.0773
   26MOL   C52826078   7.803   7.482   5.213 -0.3898  0.2445 -0.6264
   26MOL   C52926079   7.918   7.497   5.293  0.7803  0.2897  0.1578
   26MOL   C53026080   7.904   7.490   5.434  0.3910 -0.0456 -0.6105
   26MOL   C53126081   7.773   7.492   5.491  0.1668  0.8961  0.3245
   26MOL   C53226082   7.759   7.519   5.644  0.2768 -0.1878  0.2081
   26MOL   C53326083   7.655   7.477   5.415 -0.6526  1.2284 -0.7960
   26MOL   C53426084   7.677   7.463   5.279  0.2933 -0.1896  0.4158
   26MOL   C53526085   7.956   7.513   4.890  0.3522  0.8575 -1.4849
   26MOL   C53626086   0.078   7.466   4.805  0.2869  0.4366  0.5962
   26MOL   C53726087   0.352   7.449   4.622 -0.2417 -0.4440  0.4539
   26MOL   C53826088   0.395   7.511   4.504  0.5800  0.6784 -0.5904
   26MOL   C53926089   0.312   7.723   4.258 -0.0699  0.0976 -0.7078
   26MOL   C54026090   0.286   7.845   4.200  0.4304  0.6128  0.0305
   26MOL   H54126091   0.397   0.047   3.949  0.0806 -1.4217 -0.4030
   26MOL   H54226092   0.482   7.809   3.928  2.8215 -2.9274  0.3548
   26MOL   H54326093   0.528   7.589   4.031 -2.9634 -0.6945 -1.8828
   26MOL   H54426094   0.492   7.446   4.209  0.0874  0.4966 -0.1334
   26MOL   H54526095   0.321   7.269   4.275 -0.6349  1.3690 -0.5586
   26MOL   H54626096   0.222   7.159   4.495  2.0282 -0.0136  2.8261
   26MOL   H54726097   0.220   7.168   4.735 -3.5651 -0.0860  0.8316
   26MOL   H54826098   0.153   7.166   4.967  1.1683 -0.2738 -0.4032
   26MOL   H54926099   7.951   7.261   5.119 -0.9712 -0.9850 -0.9187
   26MOL   H55026100   7.720   7.492   5.025  0.5354 -0.8843 -2.5336
   26MOL   H55126101   0.034   7.492   5.250  1.9413  0.7249  2.6811
   26MOL   H55226102   0.009   7.504   5.496 -0.2901  0.7602  0.1839
   26MOL   H55326103   7.800   7.443   5.710  0.5485 -0.1986  0.0307
   26MOL   H55426104   7.651   7.512   5.657 -0.0358  0.7754 -1.6963
   26MOL   H55526105   7.558   7.479   5.464  0.6438  0.0499  1.9164
   26MOL   H55626106   7.593   7.448   5.212  0.1087  3.5626 -0.3042
   26MOL   H55726107   7.906   7.608   4.874 -1.5601  0.7093  2.8179
   26MOL   H55826108   0.099   7.521   4.714  1.7529 -2.3272 -0.8001
   26MOL   H55926109   0.365   7.511   4.710  1.6643  0.5558 -0.5018
   26MOL   H56026110   0.432   7.612   4.503  0.6635  0.6471 -0.6581
   26MOL   H56126111   0.276   7.691   4.355 -2.3603  2.8938 -0.5873
   26MOL   H56226112   0.215   7.910   4.249 -0.7858 -0.5870 -0.1207
   26MOL   N56326113   7.811   7.645   5.700 -0.1097 -0.1121 -0.0772
   26MOL   C56426114   7.799   7.672   5.831 -1.0314 -0.0358 -0.4510
   26MOL   C56526115   7.903   7.743   5.894  0.3555 -0.2098 -0.4639
   26MOL   C56626116   7.886   7.794   6.022 -0.0495  0.2440  0.2886
   26MOL   C56726117   7.762   7.771   6.094 -0.5018  0.5615 -0.1856
   26MOL   N56826118   7.752   7.820   6.228  0.1694 -0.2506  0.0887
   26MOL   C56926119   7.641   7.808   6.311 -0.3434 -0.1170  0.4748
   26MOL   C57026120   7.518   7.835   6.255  0.1083 -0.1369  0.2351
   26MOL   C57126121   7.399   7.818   6.324 -0.0259 -0.0880 -0.3103
   26MOL   C57226122   7.407   7.770   6.452 -0.1445  0.6238  0.8454
   26MOL   N57326123   7.290   7.739   6.521 -0.4545  0.1382 -0.0557
   26MOL   C57426124   7.260   7.772   6.657 -0.6686 -0.5820 -0.1809
   26MOL   C57526125   7.167   7.698   6.730  0.1295 -0.1744  0.2118
   26MOL   C57626126   7.135   7.744   6.859 -0.2681  0.3503  0.2390
   26MOL   C57726127   7.186   7.864   6.912 -0.6142  0.3990  0.1552
   26MOL   N57826128   7.140   7.905   7.037 -0.9340  0.0676  0.0491
   26MOL   C57926129   7.203   0.026   7.114 -1.1487  0.4947 -0.3814
   26MOL   C58026130   7.119   0.125   7.163 -0.3689  0.3667  0.2327
   26MOL   C58126131   7.166   0.218   7.255 -0.5237  0.6996  0.0498
   26MOL   C58226132   7.298   0.210   7.301 -0.4742 -0.6371  0.1501
   26MOL   C58326133   7.353   0.317   7.397 -0.2389  0.0359 -0.2314
   26MOL   C58426134   7.387   0.106   7.255  0.0400 -0.1717 -0.3065
   26MOL   C58526135   7.337   0.013   7.157  0.0665 -0.1704  0.6020
   26MOL   C58626136   7.277   7.935   6.835 -0.0850  0.0670  0.4141
   26MOL   C58726137   7.310   7.896   6.707  0.3747  0.3180  0.1822
   26MOL   C58826138   7.532   7.745   6.511  0.7738 -0.0734 -0.7036
   26MOL   C58926139   7.652   7.762   6.441 -0.3423 -0.0199  0.3536
   26MOL   C59026140   7.662   7.689   6.033  0.5718 -0.0646 -0.4445
   26MOL   C59126141   7.687   7.631   5.901  0.6182  0.3334 -0.3596
   26MOL   H59226142   7.884   7.702   5.660 -0.2277  0.2221  0.1818
   26MOL   H59326143   0.007   7.768   5.834  1.9409 -1.0332  1.4090
   26MOL   H59426144   7.971   7.841   6.068  0.4007  0.3371 -0.6200
   26MOL   H59526145   7.841   7.831   6.276  0.9693 -2.6646 -0.7830
   26MOL   H59626146   7.501   7.877   6.157  2.5703  0.7805  0.1649
   26MOL   H59726147   7.306   7.844   6.277  0.8431  2.1620 -0.8312
   26MOL   H59826148   7.220   7.691   6.467  1.0464 -0.9431 -1.0734
   26MOL   H59926149   7.122   7.606   6.697 -0.1959 -0.4809  1.4974
   26MOL   H60026150   7.080   7.679   6.926 -1.6387  0.1587 -1.0426
   26MOL   H60126151   7.055   7.862   7.071 -1.5377  0.6150 -0.7626
   26MOL   H60226152   7.016   0.124   7.128 -0.1921 -0.4424 -0.2598
   26MOL   H60326153   7.104   0.298   7.292 -0.4351  1.5345 -1.5990
   26MOL   H60426154   7.281   0.398   7.408 -0.1169  0.1278 -0.1095
   26MOL   H60526155   7.447   0.360   7.364  1.1935 -0.1834  3.3133
   26MOL   H60626156   7.488   0.099   7.291 -0.3691 -0.1189  0.8586
   26MOL   H60726157   7.398   7.912   7.126 -0.6759 -1.2179  1.9089
   26MOL   H60826158   7.316   0.043   6.880  1.7347 -1.5930  2.2874
   26MOL   H60926159   7.379   7.957   6.650 -0.8518  0.8140 -0.8117
   26MOL   H61026160   7.541   7.713   6.613  1.3976  2.2830  0.0144
   26MOL   H61126161   7.748   7.752   6.489 -0.3748 -2.7760 -0.0819
   26MOL   H61226162   7.573   7.652   6.080 -0.8023  1.8909 -1.4058
   26MOL   H61326163   7.608   7.573   5.856  0.8989 -1.2297  1.1410
   26MOL   N61426164   7.374   0.265   7.533 -0.3413 -0.1467  0.4363
   26MOL   C61526165   7.315   0.304   7.653  0.4832  0.1258  0.3376
   26MOL   C61626166   7.293   0.210   7.755  0.3737  0.4972  0.8657
   26MOL   C61726167   7.251   0.243   7.885 -0.3290  0.1745  0.3108
   26MOL   C61826168   7.215   0.375   7.911 -0.0987  0.2567  0.2515
   26MOL   N61926169   7.154   0.401   0.055 -0.1129 -0.0071 -0.2871
   26MOL   C62026170   7.087   0.517   0.097 -0.1087 -0.1463 -0.9427
   26MOL   C62126171   6.955   0.497   0.156 -0.0789  0.3232 -0.5003
   26MOL   C62226172   6.887   0.608   0.200  0.5922 -0.2136 -1.2980
   26MOL   C62326173   6.943   0.737   0.185  0.9767 -0.6326  0.2289
   26MOL   N62426174   6.868   0.855   0.218 -0.2179  0.9729 -0.6855
   26MOL   C62526175   6.741   0.885   0.174  0.2141  0.3884 -0.1009
   26MOL   C62626176   6.678   0.997   0.220  0.5478 -0.7551  0.3242
   26MOL   C62726177   6.551   1.034   0.172  0.4849  0.3082  0.5248
   26MOL   C62826178   6.475   0.944   0.088 -0.1986 -0.7823  0.6333
   26MOL   N62926179   6.346   0.970   0.051  0.2807 -0.6443  0.6099
   26MOL   C63026180   6.284   1.097   0.063  0.0385 -1.4151 -0.0055
   26MOL   C63126181   6.147   1.102   0.100 -0.5290 -0.1330 -0.1698
   26MOL   C63226182   6.076   1.221   0.111  0.1893  0.3073 -0.4571
   26MOL   C63326183   6.139   1.344   0.094  0.0113 -0.2573 -0.3465
   26MOL   C63426184   6.057   1.468   0.113 -0.1594  0.6761 -0.9104
   26MOL   C63526185   6.274   1.341   0.046  0.2874 -0.2683 -1.2225
   26MOL   C63626186   6.349   1.218   0.027 -0.2152 -1.0602 -0.4939
   26MOL   C63726187   6.534   0.820   0.049  0.4570  0.2437  0.3667
   26MOL   C63826188   6.670   0.791   0.079  1.1398 -0.1342 -0.3141
   26MOL   C63926189   7.071   0.761   0.126  0.1814  0.9539 -0.7614
   26MOL   C64026190   7.140   0.647   0.076 -0.2799  0.1288 -0.4445
   26MOL   C64126191   7.230   0.469   7.805 -0.3432  0.3555 -0.0641
   26MOL   C64226192   7.282   0.438   7.681 -0.1597 -0.6998 -0.9167
   26MOL   H64326193   7.408   0.171   7.520 -2.0664 -0.6177 -0.7730
   26MOL   H64426194   7.300   0.103   7.747 -1.5942  0.4183 -0.0822
   26MOL   H64526195   7.230   0.161   7.952 -0.9416  0.2520  0.2196
   26MOL   H64626196   7.145   0.322   0.117 -2.6907  1.0959  0.7910
   26MOL   H64726197   6.915   0.398   0.165 -1.0302  0.7185 -0.2976
   26MOL   H64826198   6.790   0.600   0.246  1.0646 -0.2137 -0.2731
   26MOL   H64926199   6.933   0.920   0.261 -1.8625  1.3659  1.2741
   26MOL   H65026200   6.742   1.069   0.267 -0.1703 -0.6973  1.2168
   26MOL   H65126201   6.519   1.133   0.202 -1.8411 -0.5464  0.9141
   26MOL   H65226202   6.296   0.888   0.021  1.4304 -1.1042 -0.0872
   26MOL   H65326203   6.088   1.013   0.115 -3.8322  2.0622  0.3010
   26MOL   H65426204   5.969   1.210   0.125  0.2725  0.3655  0.2505
   26MOL   H65526205   6.053   1.498   0.218  2.2482  0.6400 -0.7892
   26MOL   H65626206   5.962   1.427   0.077 -1.2828 -0.4989  3.1368
   26MOL   H65726207   6.321   1.435   0.025  0.0826  0.1843  0.2799
   26MOL   H65826208   6.452   1.211   7.979  0.2638  1.0943  0.5603
   26MOL   H65926209   6.478   0.751   7.969  1.1729  0.6706 -0.7660
   26MOL   H66026210   6.725   0.713   0.029  0.5065  0.3464 -1.7652
   26MOL   H66126211   7.119   0.857   0.114  2.4809  0.0293  0.7846
   26MOL   H66226212   7.241   0.664   0.039 -0.1476 -0.6568 -0.4479
   26MOL   H66326213   7.188   0.569   7.813 -2.0657 -0.3174 -0.3952
   26MOL   H66426214   7.293   0.502   7.595  0.0880 -0.5469 -0.7725
   26MOL   N66526215   6.096   1.587   0.041  0.5211  0.3940  1.1195
   26MOL   C66626216   6.152   1.587   7.899  0.7404  0.3399 -0.2844
   26MOL   C66726217   6.272   1.656   7.877 -0.0775  0.4547 -0.5934
   26MOL   C66826218   6.332   1.642   7.751  0.0099 -0.8452  0.3638
   26MOL   C66926219   6.267   1.575   7.648 -0.4970 -0.2899  0.4953
   26MOL   N67026220   6.317   1.549   7.519  0.1048  0.3950 -0.0555
   26MOL   C67126221   6.445   1.499   7.491 -0.3742 -0.2573  0.4351
   26MOL   C67226222   6.556   1.587   7.487  0.0241  0.3421  0.1537
   26MOL   C67326223   6.685   1.538   7.462 -0.2979  0.3048  0.3269
   26MOL   C67426224   6.696   1.401   7.430  0.0108 -0.3863 -0.4174
   26MOL   N67526225   6.821   1.361   7.373  0.3487  0.3860 -0.4197
   26MOL   C67626226   6.842   1.262   7.273 -0.1378  0.3817  0.0509
   26MOL   C67726227   6.743   1.220   7.180 -0.0908 -0.2312  0.3745
   26MOL   C67826228   6.775   1.128   7.084 -0.6597  0.0168  0.2382
   26MOL   C67926229   6.909   1.079   7.073  0.6539  0.8337 -0.7080
   26MOL   N68026230   6.927   0.988   6.968 -0.2442 -0.4138  0.0990
   26MOL   C68126231   7.044   0.968   6.899 -0.3091  0.2449 -0.2533
   26MOL   C68226232   7.134   1.071   6.866  0.5624  0.1508  0.0802
   26MOL   C68326233   7.248   1.041   6.791 -0.0240 -0.4474 -0.2662
   26MOL   C68426234   7.274   0.912   6.745 -0.2141 -0.0419 -0.0664
   26MOL   C68526235   7.397   0.889   6.660 -0.1037  0.6732  0.8049
   26MOL   C68626236   7.187   0.808   6.787 -0.1712  0.2332 -0.0571
   26MOL   C68726237   7.071   0.831   6.862  0.3581 -0.0155 -0.5887
   26MOL   C68826238   7.004   1.117   7.170  0.0508  0.6182 -0.7494
   26MOL   C68926239   6.970   1.206   7.269 -0.1658 -0.2788  0.5386
   26MOL   C69026240   6.586   1.308   7.440  0.1531  0.3040  0.2330
   26MOL   C69126241   6.464   1.359   7.472  0.0622 -0.4112 -0.0540
   26MOL   C69226242   6.145   1.510   7.672 -0.0952  0.3927 -0.0102
   26MOL   C69326243   6.093   1.510   7.799  0.4355 -0.5284  0.8131
   26MOL   H69426244   6.118   1.673   0.089 -2.0238  1.6842  0.0697
   26MOL   H69526245   6.316   1.718   7.953  0.4537 -0.1403 -0.4172
   26MOL   H69626246   6.431   1.679   7.732  0.2346 -1.0537  1.1322
   26MOL   H69726247   6.249   1.497   7.466  1.3347 -0.2690 -1.0028
   26MOL   H69826248   6.521   1.688   7.502  1.1861  1.0281 -1.5436
   26MOL   H69926249   6.768   1.607   7.474 -0.3405  0.3072  0.6001
   26MOL   H70026250   6.888   1.436   7.361  1.4135 -0.3500  0.7639
   26MOL   H70126251   6.647   1.269   7.174 -0.4489 -1.1140 -1.4792
   26MOL   H70226252   6.693   1.096   7.021  1.4365 -0.3754 -2.3639
   26MOL   H70326253   6.850   0.923   6.958 -2.0310  1.2646  2.4374
   26MOL   H70426254   7.106   1.172   6.892  1.9504  0.7154 -0.5923
   26MOL   H70526255   7.314   1.121   6.763 -0.1136 -0.3065 -0.0741
   26MOL   H70626256   7.394   0.792   6.610  2.1786  0.0523  1.8236
   26MOL   H70726257   7.481   0.884   6.729  0.8253  2.9479 -0.1102
   26MOL   H70826258   7.216   0.707   6.763 -0.2412  0.2192 -0.0845
   26MOL   H70926259   7.012   0.744   6.884 -0.6363  0.6490 -0.5830
   26MOL   H71026260   7.100   1.068   7.179  1.1929  2.5004 -2.3101
   26MOL   H71126261   7.044   1.230   7.344 -0.2219  0.7050  0.2815
   26MOL   H71226262   6.608   1.203   7.424 -0.6201  0.1544  0.1232
   26MOL   H71326263   6.380   1.293   7.484  1.0285 -1.3787  1.6579
   26MOL   H71426264   6.104   1.464   7.584 -1.0297  1.0254  0.0871
   26MOL   H71526265   5.995   1.465   7.808  0.2571 -0.2618  0.2421
   26MOL   N71626266   7.432   0.996   6.565 -0.1398 -0.2805  0.3876
   26MOL   C71726267   7.550   0.992   6.489 -0.0363 -0.1959  1.0229
   26MOL   C71826268   7.596   1.104   6.419  0.0465 -0.2439 -0.8357
   26MOL   C71926269   7.727   1.106   6.364 -0.5799  0.1705  0.0001
   26MOL   C72026270   7.798   0.984   6.358 -0.2600  0.2263 -0.4310
   26MOL   N72126271   7.930   0.987   6.315 -0.4831  0.4054  0.5977
   26MOL   C72226272   0.016   0.878   6.260  0.3089  0.6359 -0.5890
   26MOL   C72326273   7.942   0.788   6.170  0.3463  0.1959  0.0366
   26MOL   C72426274   0.034   0.675   6.123 -0.6847  0.2418  0.0095
   26MOL   C72526275   0.173   0.652   6.163 -0.0047  0.1302 -0.0870
   26MOL   N72626276   0.260   0.563   6.096  0.3408  0.1601  0.1490
   26MOL   C72726277   0.321   0.598   5.981 -0.7737  0.1628  0.5961
   26MOL   C72826278   0.319   0.727   5.928  0.2810  0.0291  0.2487
   26MOL   C72926279   0.391   0.759   5.811 -0.3844 -0.3175  0.8610
   26MOL   C73026280   0.485   0.664   5.763  0.5250  0.2815  0.2001
   26MOL   N73126281   0.559   0.689   5.646  0.5471  0.2949 -0.6425
   26MOL   C73226282   0.525   0.773   5.533  0.1964  0.2144 -0.4500
   26MOL   C73326283   0.396   0.798   5.493  0.4450 -0.0593 -0.0633
   26MOL   C73426284   0.371   0.864   5.369 -0.2388 -0.1345 -0.0362
   26MOL   C73526285   0.480   0.900   5.287  0.2788 -0.7956  0.8193
   26MOL   C73626286   0.449   0.952   5.147  0.0652 -0.5881 -0.3916
   26MOL   C73726287   0.611   0.863   5.321  0.2193 -0.0067  0.5694
   26MOL   C73826288   0.634   0.805   5.445  0.2757  0.1636 -0.5642
   26MOL   C73926289   0.502   0.541   5.831  0.1634  0.2745 -0.3585
   26MOL   C74026290   0.411   0.501   5.932  0.0375  0.0549  1.2148
   26MOL   C74126291   0.220   0.741   6.261 -0.0251 -0.3196 -0.2940
   26MOL   C74226292   0.148   0.858   6.299  0.1305 -0.2242 -0.5982
   26MOL   C74326293   7.752   0.869   6.426 -0.0047  0.3725 -0.1244
   26MOL   C74426294   7.628   0.870   6.484  0.1080  0.3562  0.3752
   26MOL   H74526295   7.357   1.056   6.533 -1.1611 -1.6938  0.1146
   26MOL   H74626296   7.542   1.198   6.422 -0.9253 -0.8387  1.0641
   26MOL   H74726297   7.786   1.191   6.333  3.1259 -2.0098  0.7498
   26MOL   H74826298   0.005   1.069   6.324 -0.0383  0.3314 -1.3970
   26MOL   H74926299   7.839   0.806   6.145 -0.0559 -0.8520  0.8838
   26MOL   H75026300   7.958   0.614   6.055 -2.1421 -1.8737  3.0019
   26MOL   H75126301   0.225   0.468   6.099  2.1288 -0.4875  1.9944
   26MOL   H75226302   0.250   0.796   5.975  0.2929 -0.4951  1.0467
   26MOL   H75326303   0.386   0.860   5.774  0.0059 -0.3669  0.6781
   26MOL   H75426304   0.659   0.672   5.656  0.5252 -0.3153 -1.4422
   26MOL   H75526305   0.316   0.766   5.558  1.3756 -1.1808  0.5515
   26MOL   H75626306   0.272   0.878   5.329 -1.0747 -0.9678  1.6920
   26MOL   H75726307   0.417   0.861   5.096 -0.5977 -1.5271  1.6554
   26MOL   H75826308   0.539   0.990   5.097 -0.2268 -0.4258 -0.7975
   26MOL   H75926309   0.698   0.882   5.260  0.6792  0.6064  1.3945
   26MOL   H76026310   0.732   0.783   5.484  0.6220  2.2623 -0.1983
   26MOL   H76126311   0.572   0.465   5.800  1.3741  0.7867  1.0567
   26MOL   H76226312   0.426   0.410   5.987 -2.8887 -0.9524  0.4671
   26MOL   H76326313   0.326   0.738   6.278 -0.1786 -0.1392  0.7093
   26MOL   H76426314   0.188   0.944   6.351 -0.3884 -0.3174 -0.0451
   26MOL   H76526315   7.802   0.774   6.435  0.8378  0.9143  1.2478
   26MOL   H76626316   7.593   0.777   6.527  2.3629 -1.1026 -0.8307
   26MOL   N76726317   0.347   1.054   5.143  0.2939  0.2803  0.6413
   26MOL   C76826318   0.316   1.102   5.015 -0.4749  0.1005  0.2513
   26MOL   C76926319   0.312   1.241   4.999  0.1203 -0.9188  0.1625
   26MOL   C77026320   0.307   1.306   4.873 -0.3100  0.2462 -0.4879
   26MOL   C77126321   0.295   1.228   4.757 -0.7734 -0.0503  0.1376
   26MOL   N77226322   0.264   1.284   4.637 -0.4905 -0.1635 -1.0543
   26MOL   C77326323   0.348   1.277   4.522 -0.5850  0.2397 -0.3309
   26MOL   C77426324   0.296   1.320   4.399 -0.4063 -0.0401 -0.4396
   26MOL   C77526325   0.365   1.297   4.280 -0.0137 -0.5034  0.1351
   26MOL   C77626326   0.490   1.228   4.275 -0.1908  0.2961 -0.6394
   26MOL   N77726327   0.565   1.215   4.163 -0.6017  0.1188 -0.1689
   26MOL   C77826328   0.519   1.199   4.032 -0.0120  0.1155  0.1735
   26MOL   C77926329   0.412   1.114   4.003  0.6401  0.6617 -0.4997
   26MOL   C78026330   0.366   1.099   3.873  0.5891  0.1793  0.4359
   26MOL   C78126331   0.430   1.163   3.763  0.3680 -1.0007 -0.4899
   26MOL   N78226332   0.386   1.146   3.626 -0.4519 -0.6713 -0.4358
   26MOL   C78326333   0.333   1.253   3.552  0.2480 -0.6661 -0.1230
   26MOL   C78426334   0.375   1.383   3.574  0.7554  0.2791  0.0680
   26MOL   C78526335   0.320   1.491   3.495  0.1422  0.0456 -0.6665
   26MOL   C78626336   0.218   1.463   3.401 -0.4742 -0.0034  0.0769
   26MOL   C78726337   0.143   1.578   3.329  0.2412  0.9751 -0.1128
   26MOL   C78826338   0.168   1.333   3.390  0.3156 -0.7102  0.1475
   26MOL   C78926339   0.227   1.228   3.462  0.3317  1.0733 -0.0232
   26MOL   C79026340   0.545   1.238   3.795  0.5634  0.0503  0.6147
   26MOL   C79126341   0.585   1.263   3.929  0.4711  0.4986  0.7924
   26MOL   C79226342   0.549   1.191   4.404  0.0644 -1.0577  0.5886
   26MOL   C79326343   0.478   1.220   4.524  0.7850 -0.1769 -0.2570
   26MOL   C79426344   0.294   1.088   4.772  0.0046  0.4794 -0.2611
   26MOL   C79526345   0.308   1.025   4.900  0.0701  0.0070 -0.4497
   26MOL   H79626346   0.351   1.119   5.220 -2.2641  0.9584  0.2457
   26MOL   H79726347   0.311   1.298   5.090 -1.7695 -0.0275 -0.3707
   26MOL   H79826348   0.301   1.414   4.868  1.6792  0.3544 -0.6650
   26MOL   H79926349   0.216   1.373   4.650  1.0495  0.2656  2.0885
   26MOL   H80026350   0.197   1.360   4.387  0.5155  2.6427  0.4748
   26MOL   H80126351   0.323   1.325   4.185  0.8832 -1.3380 -0.5217
   26MOL   H80226352   0.664   1.232   4.174 -0.6283  0.6489 -0.7134
   26MOL   H80326353   0.366   1.052   4.078  1.5958  1.3949  0.7016
   26MOL   H80426354   0.277   1.038   3.867  1.7678 -1.4110 -1.4747
   26MOL   H80526355   0.347   1.059   3.591 -1.5810 -0.9438  1.4404
   26MOL   H80626356   0.455   1.396   3.646  1.0305 -1.2583  0.0464
   26MOL   H80726357   0.354   1.591   3.517 -0.9561  0.4159 -0.6600
   26MOL   H80826358   0.114   1.540   3.231 -0.2708 -1.1447  0.8265
   26MOL   H80926359   0.219   1.648   3.295 -1.0180  0.4223 -4.3742
   26MOL   H81026360   0.089   1.301   3.324  0.3154  1.8481 -1.1379
   26MOL   H81126361   0.200   1.125   3.449  1.3397  0.6588  1.0739
   26MOL   H81226362   0.600   1.283   3.713  2.0739  1.3080  2.2773
   26MOL   H81326363   0.670   1.325   3.955  1.5239  0.3206 -1.9703
   26MOL   H81426364   0.650   1.155   4.420  0.1418 -0.6501  1.0094
   26MOL   H81526365   0.518   1.180   4.615 -2.9801  0.1809  1.6432
   26MOL   H81626366   0.282   1.034   4.679  1.0062 -1.1883  0.5533
   26MOL   H81726367   0.313   0.918   4.899  0.9109  0.0315  0.4168
   26MOL   N81826368   0.030   1.637   3.412  0.1910  0.2236 -0.1185
   26MOL   C81926369   0.078   1.736   3.497  0.2127  0.8928  0.5777
   26MOL   C82026370   0.041   1.738   3.637 -0.4285 -0.3433 -0.3536
   26MOL   C82126371   0.084   1.839   3.724  0.6743  0.1282 -0.3552
   26MOL   C82226372   0.162   1.946   3.674 -0.1288  0.1161 -0.1437
   26MOL   N82326373   0.207   2.044   3.759  0.3187  0.7316 -0.5894
   26MOL   C82426374   0.327   2.112   3.753 -1.0308 -0.0879  0.3144
   26MOL   C82526375   0.437   2.067   3.675 -0.3954  0.0627  0.1196
   26MOL   C82626376   0.554   2.154   3.659  0.8038 -1.2375  0.0965
   26MOL   C82726377   0.572   2.265   3.742  0.1781 -0.0296 -0.1902
   26MOL   N82826378   0.703   2.321   3.753  0.1695  0.1713 -0.6138
   26MOL   C82926379   0.736   2.437   3.820 -0.1308  0.1936  0.3127
   26MOL   C83026380   0.867   2.457   3.874  0.2880 -0.0770  0.1610
   26MOL   C83126381   0.905   2.584   3.917 -0.1540  0.3268 -0.2461
   26MOL   C83226382   0.816   2.693   3.927 -0.7890  0.0144 -0.0209
   26MOL   N83326383   0.863   2.823   3.955 -0.5452  0.0057  0.2963
   26MOL   C83426384   0.987   2.874   3.933 -0.0027 -0.2227 -0.0813
   26MOL   C83526385   1.071   2.828   3.826 -0.0201 -0.1038  0.0143
   26MOL   C83626386   1.202   2.882   3.817  0.3927  0.3974 -0.1028
   26MOL   C83726387   1.244   2.989   3.902  0.2528  0.0880  0.4039
   26MOL   C83826388   1.384   3.054   3.895  0.1617  0.4782  1.0127
   26MOL   C83926389   1.157   3.044   3.997  0.0950  0.2547 -0.0062
   26MOL   C84026390   1.029   2.978   4.020  0.4689 -0.8371  0.2108
   26MOL   C84126391   0.689   2.673   3.877 -0.0414 -0.3401  0.5147
   26MOL   C84226392   0.648   2.550   3.828 -0.0666  0.2572  0.1560
   26MOL   C84326393   0.459   2.303   3.823 -0.3508 -0.7346 -0.4267
   26MOL   C84426394   0.341   2.226   3.831 -0.0477  0.0334  0.0088
   26MOL   C84526395   0.192   1.950   3.534  0.0390 -0.1883  0.0807
   26MOL   C84626396   0.142   1.851   3.445 -0.8985 -0.4856  0.1172
   26MOL   H84726397   7.966   1.558   3.454 -0.0957  0.9031  0.8528
   26MOL   H84826398   7.962   1.662   3.683 -2.7338  2.1187  0.8308
   26MOL   H84926399   0.068   1.825   3.830 -0.0462 -2.5336 -0.7848
   26MOL   H85026400   0.154   2.065   3.843 -1.2802 -2.5012 -0.7273
   26MOL   H85126401   0.444   1.972   3.624  3.4907  0.8952 -1.0410
   26MOL   H85226402   0.633   2.115   3.596  0.4890 -2.6390  0.5536
   26MOL   H85326403   0.775   2.253   3.737 -3.2544 -3.0231 -3.3239
   26MOL   H85426404   0.937   2.376   3.885 -0.3078 -0.9551 -2.0388
   26MOL   H85526405   1.006   2.609   3.946 -0.1740 -0.5747  0.6207
   26MOL   H85626406   0.793   2.895   3.965  0.8177  1.2781  0.9538
   26MOL   H85726407   1.039   2.740   3.771 -0.7535  0.6510 -0.7941
   26MOL   H85826408   1.269   2.834   3.747  2.5666  1.3412  1.2586
   26MOL   H85926409   1.425   3.026   3.798  1.4886  0.1991  1.6381
   26MOL   H86026410   1.446   3.012   3.973  0.1391 -0.3614  0.5879
   26MOL   H86126411   1.175   3.130   4.060 -0.4693 -0.0144  0.5326
   26MOL   H86226412   0.964   2.999   4.103  1.2566 -1.3155  0.9490
   26MOL   H86326413   0.616   2.752   3.882  0.8424  0.5188  0.0060
   26MOL   H86426414   0.551   2.545   3.781 -1.0273  1.7650  1.9385
   26MOL   H86526415   0.458   2.389   3.889  0.8011 -0.6110 -0.5616
   26MOL   H86626416   0.265   2.267   3.896  0.8697  2.4315 -0.3493
   26MOL   H86726417   0.264   2.019   3.490 -0.7638  0.5093 -0.1502
   26MOL   H86826418   0.175   1.861   3.343 -2.2713  1.2741 -0.1733
   26MOL   N86926419   1.380   3.199   3.879 -0.1691 -0.5286 -0.4447
   26MOL   C87026420   1.486   3.266   3.935 -1.1811  0.4787 -0.0937
   26MOL   C87126421   1.536   3.386   3.880 -0.2380 -0.4469 -0.4343
   26MOL   C87226422   1.644   3.456   3.941 -0.2458  0.5525  0.2848
   26MOL   C87326423   1.704   3.403   4.056 -0.5852  0.4090  0.4860
   26MOL   N87426424   1.824   3.451   4.109  0.2996  0.0631  0.3641
   26MOL   C87526425   1.914   3.542   4.051  0.5927  0.2764 -0.6061
   26MOL   C87626426   1.940   3.543   3.913 -0.0227 -0.1336 -0.0327
   26MOL   C87726427   2.036   3.636   3.861 -0.1182 -1.0385  0.5842
   26MOL   C87826428   2.091   3.729   3.949 -0.7759 -0.0387 -0.9615
   26MOL   N87926429   2.190   3.820   3.911 -0.3553  0.0950 -0.1835
   26MOL   C88026430   2.243   3.872   3.792  0.0858 -0.0984  0.0518
   26MOL   C88126431   2.166   3.879   3.676 -0.9769  0.0497  0.4506
   26MOL   C88226432   2.218   3.923   3.553 -0.4596  0.0762  0.6102
   26MOL   C88326433   2.351   3.962   3.551 -0.0982 -0.4831  0.0197
   26MOL   N88426434   2.406   3.997   3.427 -0.5164  0.0792  0.1583
   26MOL   C88526435   2.538   3.979   3.388 -0.3664  0.0856 -1.1003
   26MOL   C88626436   2.579   4.048   3.271 -0.7655  0.0213  0.7225
   26MOL   C88726437   2.714   4.030   3.222  0.6443 -0.0372 -0.3108
   26MOL   C88826438   2.798   3.940   3.292 -0.0768  0.2868  0.2106
   26MOL   C88926439   2.933   3.906   3.236  0.2454  0.7309 -0.2994
   26MOL   C89026440   2.764   3.885   3.418 -0.1512 -0.0559  0.1510
   26MOL   C89126441   2.635   3.905   3.461  0.2613 -0.5851 -0.4335
   26MOL   C89226442   2.423   3.985   3.668  0.1453  0.9100  0.3870
   26MOL   C89326443   2.374   3.928   3.790  0.2167  0.6009 -0.2305
   26MOL   C89426444   2.064   3.725   4.087  0.4682  0.4805 -0.6524
   26MOL   C89526445   1.971   3.639   4.135 -0.0738 -0.4603  0.3783
   26MOL   C89626446   1.645   3.295   4.124  0.0450  0.6399  0.1497
   26MOL   C89726447   1.534   3.230   4.065 -0.1693  0.1212 -0.3254
   26MOL   H89826448   1.380   3.226   3.781  3.8603 -2.8358 -1.1916
   26MOL   H89926449   1.503   3.427   3.786  0.3968  0.5282 -0.2278
   26MOL   H90026450   1.669   3.549   3.894 -2.5736  0.0202 -2.1038
   26MOL   H90126451   1.858   3.399   4.189 -0.3874 -2.6465 -1.0286
   26MOL   H90226452   1.892   3.479   3.840  1.9704 -0.4657 -1.0917
   26MOL   H90326453   2.048   3.626   3.755 -3.3718 -1.6391  0.2409
   26MOL   H90426454   2.210   3.864   4.000  0.8917 -1.7618  0.4838
   26MOL   H90526455   2.060   3.861   3.689 -0.7340 -0.7547  1.3812
   26MOL   H90626456   2.168   3.927   3.458 -0.8778 -1.3247  0.7618
   26MOL   H90726457   2.346   4.029   3.353 -1.1677  1.2600  1.1776
   26MOL   H90826458   2.516   4.120   3.221 -0.5335 -0.0626  0.3048
   26MOL   H90926459   2.750   4.080   3.134  0.4076  0.3037 -0.2177
   26MOL   H91026460   3.004   3.970   3.289  0.3375 -0.3440  0.8802
   26MOL   H91126461   2.947   3.937   3.132  1.0918  0.8405 -0.1623
   26MOL   H91226462   2.826   3.816   3.473 -1.7524 -0.6314  1.2710
   26MOL   H91326463   2.609   3.867   3.558 -2.1496 -0.0229 -0.8204
   26MOL   H91426464   2.518   4.036   3.666  0.6165 -0.0117 -1.8096
   26MOL   H91526465   2.433   3.939   3.880 -2.1436 -0.0723  1.4415
   26MOL   H91626466   2.114   3.799   4.148  0.8007 -2.3115  2.6139
   26MOL   H91726467   1.938   3.650   4.237 -0.7474  1.6725 -0.0426
   26MOL   H91826468   1.688   3.266   4.219  1.1663  0.3652 -0.4346
   26MOL   H91926469   1.503   3.143   4.122 -1.1779  1.0318  0.5329
   26MOL   N92026470   2.974   3.771   3.242  0.0621 -0.2525 -0.5382
   26MOL   C92126471   3.053   3.716   3.343 -0.2955  0.1239 -0.7834
   26MOL   C92226472   3.104   3.793   3.453 -0.5521 -0.3920  0.4809
   26MOL   C92326473   3.185   3.735   3.554  0.7156  0.0060  0.3982
   26MOL   C92426474   3.219   3.597   3.549 -0.8311  0.8844  0.5653
   26MOL   N92526475   3.274   3.539   3.665  0.2911 -0.3630  0.2429
   26MOL   C92626476   3.363   3.440   3.682 -0.3641 -0.8073  0.2549
   26MOL   C92726477   3.366   3.388   3.814 -0.3884 -0.1956 -0.4058
   26MOL   C92826478   3.458   3.293   3.853  0.0134 -0.1837 -0.4913
   26MOL   C92926479   3.551   3.237   3.764 -0.2245  0.0195 -0.4480
   26MOL   N93026480   3.646   3.138   3.806  0.3715 -0.1010  0.2850
   26MOL   C93126481   3.736   3.068   3.725 -0.7324 -0.6075  0.3838
   26MOL   C93226482   3.706   3.023   3.597  0.1892  0.1969 -0.2993
   26MOL   C93326483   3.797   2.955   3.519  0.1576 -0.1088  0.1444
   26MOL   C93426484   3.929   2.930   3.569 -0.0641 -0.2656 -0.7074
   26MOL   N93526485   4.028   2.875   3.488 -0.0201  0.5396  0.1550
   26MOL   C93626486   4.097   2.938   3.386 -0.1680 -0.3546 -0.1011
   26MOL   C93726487   4.049   3.036   3.300 -0.0450 -0.2041 -0.3072
   26MOL   C93826488   4.129   3.091   3.200  0.1093 -0.2418  0.0115
   26MOL   C93926489   4.260   3.038   3.175 -0.2547  0.2321  0.4112
   26MOL   C94026490   4.352   3.097   3.060 -0.0765 -0.0710 -0.0662
   26MOL   C94126491   4.303   2.930   3.254 -0.1458  0.8254 -0.2453
   26MOL   C94226492   4.231   2.894   3.369  0.0258 -0.1324  0.3446
   26MOL   C94326493   3.956   2.969   3.699 -0.1216  0.1237  0.3162
   26MOL   C94426494   3.862   3.028   3.784  0.3486  0.4874 -0.4421
   26MOL   C94526495   3.542   3.289   3.630 -0.1265  0.3589 -0.2781
   26MOL   C94626496   3.453   3.386   3.584 -0.3033 -0.5165  0.0514
   26MOL   C94726497   3.176   3.520   3.439 -0.1600 -0.3500  0.7826
   26MOL   C94826498   3.093   3.580   3.343 -0.0737 -0.8626 -0.5897
   26MOL   H94926499   2.955   3.707   3.166 -1.4693 -1.9096  1.1843
   26MOL   H95026500   3.066   3.894   3.463 -1.8532 -0.6660 -1.4875
   26MOL   H95126501   3.201   3.789   3.646 -0.9137 -0.5229  1.0147
   26MOL   H95226502   3.232   3.574   3.750 -0.5297  0.4514 -0.4823
   26MOL   H95326503   3.293   3.426   3.884  0.2872  0.4265 -0.0412
   26MOL   H95426504   3.460   3.254   3.954  0.9856 -0.5938 -0.6654
   26MOL   H95526505   3.653   3.129   3.906  1.3874  2.4654  0.4680
   26MOL   H95626506   3.610   3.049   3.553 -0.3052 -0.0952  0.6060
   26MOL   H95726507   3.772   2.915   3.422  0.3490 -2.0297  0.8672
   26MOL   H95826508   4.072   2.795   3.532  2.0727  1.6941  0.2183
   26MOL   H95926509   3.945   3.066   3.310 -0.3479 -0.7346 -1.7476
   26MOL   H96026510   4.100   3.178   3.144  3.1159  2.7291  2.8246
   26MOL   H96126511   4.450   3.100   3.108  1.0492 -2.9606 -2.0385
   26MOL   H96226512   4.327   3.202   3.043  2.1921  0.2097 -1.8695
   26MOL   H96326513   4.402   2.889   3.242 -0.6160 -0.1245 -0.9427
   26MOL   H96426514   4.275   2.826   3.441  1.3034 -2.0835 -2.1688
   26MOL   H96526515   4.051   2.944   3.744  0.4598  1.2658 -0.2407
   26MOL   H96626516   3.882   3.050   3.887  0.8739 -2.2917  0.0878
   26MOL   H96726517   3.612   3.270   3.550  0.8277  2.7320 -0.0437
   26MOL   H96826518   3.460   3.419   3.481  0.0768  0.1021  0.2698
   26MOL   H96926519   3.198   3.414   3.438 -2.9557 -0.9953  2.1733
   26MOL   H97026520   3.047   3.517   3.268  0.5656  0.7954 -2.4137
   26MOL   N97126521   4.351   3.010   2.951  0.7472 -0.3035  0.0398
   26MOL   C97226522   4.340   3.075   2.821  0.0370 -0.1994 -0.0763
   26MOL   C97326523   4.259   3.013   2.729  0.1774  0.3112 -0.1089
   26MOL   C97426524   4.248   3.058   2.598 -0.0911 -0.0703 -0.3018
   26MOL   C97526525   4.313   3.173   2.561 -0.3055 -0.0398 -0.5900
   26MOL   N97626526   4.295   3.220   2.432  0.7081 -0.2298 -0.0420
   26MOL   C97726527   4.252   3.345   2.390 -0.6219 -0.1622 -0.2941
   26MOL   C97826528   4.223   3.448   2.487 -0.1245 -0.0237  0.0901
   26MOL   C97926529   4.175   3.575   2.442  0.6958  0.6855 -0.0182
   26MOL   C98026530   4.150   3.594   2.305 -0.2875 -0.2939 -0.4534
   26MOL   N98126531   4.093   3.719   2.276  0.1195  0.2764 -0.2828
   26MOL   C98226532   4.032   3.764   2.156 -0.5938 -0.1017  0.0689
   26MOL   C98326533   3.923   3.699   2.111  0.2890 -1.1080  0.7638
   26MOL   C98426534   3.849   3.749   1.999 -0.2566 -0.9040  0.9889
   26MOL   C98526535   3.905   3.855   1.928  0.1151  0.0520  0.3311
   26MOL   N98626536   3.824   3.922   1.834 -0.0611  0.1157  0.2319
   26MOL   C98726537   3.696   3.886   1.798 -0.4659  0.0947  0.6264
   26MOL   C98826538   3.594   3.978   1.799 -0.1767  0.1080 -0.4696
   26MOL   C98926539   3.465   3.948   1.757 -0.3493  0.3473 -0.1395
   26MOL   C99026540   3.442   3.828   1.689  0.0982  0.2473 -0.1998
   26MOL   C99126541   3.304   3.796   1.630 -0.1406  0.2617 -0.8335
   26MOL   C99226542   3.547   3.730   1.677  0.0112  0.2854  0.0698
   26MOL   C99326543   3.671   3.762   1.738  0.3946  0.1092 -0.5839
   26MOL   C99426544   4.019   3.919   1.969 -0.3516 -0.0362  0.9281
   26MOL   C99526545   4.081   3.878   2.087 -0.9476 -0.5438 -0.1122
   26MOL   C99626546   4.174   3.496   2.213  0.4056  0.7407  0.4002
   26MOL   C99726547   4.232   3.371   2.251 -0.4565 -0.0881 -0.4137
   26MOL   C99826548   4.402   3.236   2.651  0.6053  0.4866 -0.2649
   26MOL   C99926549   4.424   3.186   2.780 -0.6630 -0.2471  0.3229
   26MOL     H126550   4.283   2.936   2.962 -0.8333  0.5172 -3.3142
   26MOL     H226551   4.204   2.929   2.771 -0.7046  1.7715  1.7457
   26MOL     H326552   4.183   3.008   2.528  0.4181 -0.9543 -0.1581
   26MOL     H426553   4.357   3.166   2.373  1.1631  0.5701 -0.3041
   26MOL     H526554   4.245   3.432   2.592  0.4079  1.7177  0.2542
   26MOL     H626555   4.147   3.649   2.516  3.0285  0.3829  1.2264
   26MOL     H726556   4.136   3.789   2.334 -1.9332  0.0492  1.5767
   26MOL     H826557   3.882   3.613   2.162  0.3325 -0.0647  2.6025
   26MOL     H926558   3.755   3.699   1.980 -0.1573 -1.0300  0.8274
   26MOL    H1026559   3.858   4.011   1.801  2.0121 -0.2790  1.2907
   26MOL    H1126560   3.613   4.077   1.836  1.4191 -0.6681  0.8553
   26MOL    H1226561   3.385   4.021   1.765 -2.6864 -2.2437  1.1653
   26MOL    H1326562   3.236   3.852   1.694 -0.8768 -0.5088 -0.9383
   26MOL    H1426563   3.285   3.689   1.637  0.1448  0.3000  0.8271
   26MOL    H1526564   3.546   3.635   1.626 -2.0070  0.5245 -0.3770
   26MOL    H1626565   3.743   3.683   1.720  0.1258  0.0494 -1.4277
   26MOL    H1726566   4.056   4.008   1.921 -0.1736 -0.7092 -0.2076
   26MOL    H1826567   4.166   3.935   2.120 -0.7635 -0.4370 -0.7594
   26MOL    H1926568   4.153   3.518   2.109 -0.3139 -0.4071  0.3005
   26MOL    H2026569   4.249   3.297   2.175 -0.1055  2.0024 -2.4389
   26MOL    H2126570   4.469   3.313   2.617  0.0798  1.4918  0.9443
   26MOL    H2226571   4.499   3.230   2.844  1.2820  1.2520 -2.8646
   26MOL    H2326572   3.290   3.834   1.529 -0.5962  0.2230 -0.7840
   27MOL     N126573   7.205   4.167   1.911  0.5054 -0.2688  0.0524
   27MOL     C226574   7.148   4.059   1.959  0.2616  0.2272 -0.3136
   27MOL     C326575   7.163   3.932   1.895  0.0563 -0.2882 -0.6469
   27MOL     C426576   7.089   3.822   1.935  0.0165  0.5138 -0.4316
   27MOL     C526577   7.010   3.825   2.053 -0.5605 -0.1912 -0.6308
   27MOL     N626578   6.938   3.714   2.112 -0.1102  0.4658  0.6996
   27MOL     C726579   6.909   3.586   2.061  0.6007  0.1131 -0.0168
   27MOL     C826580   6.882   3.562   1.922  0.0815  0.6455 -0.0316
   27MOL     C926581   6.866   3.431   1.863 -0.9025 -0.4853  0.2308
   27MOL    C1026582   6.877   3.323   1.949 -0.7474  0.4978 -0.8512
   27MOL    N1126583   6.850   3.195   1.901 -0.1842  0.6082  0.0591
   27MOL    C1226584   6.927   3.076   1.909 -1.2098  0.1665 -0.2872
   27MOL    C1326585   7.056   3.074   1.963  0.6066  0.3049 -0.0419
   27MOL    C1426586   7.124   2.950   1.968  0.1532  0.0571 -0.6155
   27MOL    C1526587   7.076   2.830   1.905 -0.0744 -0.4716 -0.4823
   27MOL    N1626588   7.150   2.711   1.910 -0.6877  0.2667 -0.7180
   27MOL    C1726589   7.092   2.587   1.879  0.0275 -0.6727  0.1220
   27MOL    C1826590   6.981   2.538   1.949 -0.2204  0.2813  0.6619
   27MOL    C1926591   6.923   2.417   1.924  0.5802 -0.0213 -0.2074
   27MOL    C2026592   6.974   2.334   1.824 -0.5368 -0.5138  0.2573
   27MOL    C2126593   6.897   2.203   1.809 -1.0352 -0.2195 -0.6388
   27MOL    C2226594   7.085   2.376   1.749  1.2426  0.1543  0.2275
   27MOL    C2326595   7.144   2.500   1.782  0.2213 -0.6600  0.0171
   27MOL    C2426596   6.949   2.842   1.850  0.0245 -0.6042  0.3308
   27MOL    C2526597   6.873   2.960   1.848  0.5384  0.4422 -0.4204
   27MOL    C2626598   6.909   3.341   2.087  0.0677 -0.6032 -0.0832
   27MOL    C2726599   6.930   3.473   2.143  0.7969  0.4811  0.4985
   27MOL    C2826600   6.994   3.953   2.114  0.1164 -0.4703  0.2300
   27MOL    C2926601   7.068   4.064   2.074 -0.1652  0.1772  0.0680
   27MOL    H3026602   7.290   4.151   1.858  0.7342 -0.3432  0.4344
   27MOL    H3126603   7.222   3.942   1.805  0.6953  0.8885 -0.1132
   27MOL    H3226604   7.099   3.724   1.891  1.6807  0.4907 -0.0564
   27MOL    H3326605   6.942   3.706   2.213 -4.4700 -1.7299  0.8180
   27MOL    H3426606   6.872   3.640   1.848 -0.6505 -0.9058 -1.5811
   27MOL    H3526607   6.852   3.422   1.757  2.8748  2.0331 -0.5565
   27MOL    H3626608   6.776   3.192   1.832 -0.2417 -1.5017  0.1777
   27MOL    H3726609   7.106   3.158   2.009  1.5196 -0.3615  0.2009
   27MOL    H3826610   7.222   2.946   2.013  0.3065 -0.7228 -1.0108
   27MOL    H3926611   7.248   2.717   1.886 -0.4997 -1.3996 -0.3918
   27MOL    H4026612   6.941   2.611   2.017 -3.1637 -2.5898  2.1256
   27MOL    H4126613   6.831   2.389   1.972  0.8653  0.2461  0.5012
   27MOL    H4226614   6.792   2.232   1.810 -1.0147 -0.1733  1.1380
   27MOL    H4326615   6.927   2.134   1.889  0.3338  0.3827 -0.6068
   27MOL    H4426616   7.118   2.319   1.663  1.1409 -0.6420  0.7174
   27MOL    H4526617   7.228   2.533   1.721 -0.8249  1.9159 -0.0952
   27MOL    H4626618   6.899   2.763   1.794 -0.6139  0.1674 -0.1975
   27MOL    H4726619   6.779   2.971   1.796 -0.4905  0.6673  1.4323
   27MOL    H4826620   6.915   3.261   2.159 -0.9167 -0.3139  0.3264
   27MOL    H4926621   6.964   3.482   2.245 -0.9863  0.1665  1.1502
   27MOL    H5026622   6.933   3.960   2.203 -1.4165  1.2330 -0.9059
   27MOL    H5126623   7.054   4.153   2.133 -1.9353 -0.4356  0.6041
   27MOL    H5226624   7.224   4.253   1.961 -1.0359  0.2166 -0.1707
   27MOL    N5326625   6.921   2.143   1.679  1.1173 -0.1978 -0.2580
   27MOL    C5426626   7.037   2.060   1.648  0.4956 -0.0771  0.4180
   27MOL    C5526627   7.110   1.997   1.754 -0.1302  0.4391 -0.6449
   27MOL    C5626628   7.223   1.919   1.720  0.3006 -0.2914 -0.7595
   27MOL    C5726629   7.252   1.896   1.588 -0.2753  0.0865  1.1782
   27MOL    N5826630   7.361   1.820   1.552 -0.7707 -0.0675 -0.2042
   27MOL    C5926631   7.386   1.747   1.441 -0.2690  0.3194  0.9614
   27MOL    C6026632   7.284   1.687   1.361 -0.5717  0.5098  0.4020
   27MOL    C6126633   7.311   1.626   1.238  0.1499  0.0311  0.2046
   27MOL    C6226634   7.447   1.625   1.186  0.4578  0.3425 -0.9366
   27MOL    N6326635   7.462   1.574   1.054 -0.3801  0.1153 -0.4932
   27MOL    C6426636   7.582   1.571   0.987  0.5206 -0.0475  0.0059
   27MOL    C6526637   7.636   1.686   0.931  0.3066 -0.1779 -0.7387
   27MOL    C6626638   7.762   1.678   0.869 -0.0225  0.0406 -0.1351
   27MOL    C6726639   7.838   1.561   0.880  0.1716  0.5110 -0.2535
   27MOL    N6826640   7.972   1.558   0.851 -0.6219  0.5234  0.1102
   27MOL    C6926641   0.084   1.664   0.854  0.2297  0.3247  0.5129
   27MOL    C7026642   0.202   1.640   0.779 -0.5788  0.1795 -0.5102
   27MOL    C7126643   0.313   1.731   0.784  0.3413 -0.1173  0.5155
   27MOL    C7226644   0.304   1.841   0.880  0.1469 -0.4193  0.5977
   27MOL    C7326645   0.426   1.933   0.915 -0.0490  0.1040 -0.1571
   27MOL    C7426646   0.185   1.861   0.947  0.2927  0.2785  0.2251
   27MOL    C7526647   0.075   1.774   0.933  0.7844 -0.0581  1.1834
   27MOL    C7626648   7.775   1.439   0.921 -0.3194 -0.1308  0.3550
   27MOL    C7726649   7.650   1.448   0.973 -0.2942  0.4310  0.7590
   27MOL    C7826650   7.551   1.673   1.268 -0.4905  0.4174  0.0869
   27MOL    C7926651   7.520   1.736   1.393 -0.2106 -0.6162 -0.5509
   27MOL    C8026652   7.183   1.960   1.480  0.1409 -0.3003  0.6482
   27MOL    C8126653   7.071   2.035   1.512 -0.9994 -0.0351 -0.5079
   27MOL    H8226654   6.843   2.109   1.625  0.4437 -0.8405  1.0855
   27MOL    H8326655   7.093   2.011   1.859  0.2078 -0.7582 -0.4271
   27MOL    H8426656   7.272   1.872   1.804 -0.3602  0.2995 -0.0437
   27MOL    H8526657   7.435   1.828   1.620 -0.7561 -2.5715  0.1083
   27MOL    H8626658   7.182   1.688   1.397 -0.8290 -1.4891 -0.1848
   27MOL    H8726659   7.237   1.586   1.169  0.4254  0.1720 -0.1751
   27MOL    H8826660   7.385   1.513   1.029 -0.6476  1.0200 -1.9247
   27MOL    H8926661   7.585   1.781   0.922 -2.2355 -1.5550 -1.1637
   27MOL    H9026662   7.794   1.770   0.822  0.6661  0.2613  0.7598
   27MOL    H9126663   0.030   1.466   0.839 -0.7522  0.1470  2.3276
   27MOL    H9226664   0.203   1.549   0.722 -2.4751 -0.7013  0.7916
   27MOL    H9326665   0.407   1.724   0.733  0.2902  1.2645  0.2264
   27MOL    H9426666   0.515   1.897   0.863  0.5834  0.2276  0.8373
   27MOL    H9526667   0.471   1.907   1.011 -0.3921 -0.4825 -0.1495
   27MOL    H9626668   0.180   1.949   1.010 -0.6045  0.6526 -0.3485
   27MOL    H9726669   7.969   1.805   0.988 -1.7545  1.1825 -3.3123
   27MOL    H9826670   7.824   1.343   0.920  1.2055  0.6306  0.2504
   27MOL    H9926671   7.609   1.353   1.005  2.6522 -2.1375 -2.6250
   27MOL   H10026672   7.654   1.670   1.238 -0.6300  3.6807 -0.8789
   27MOL   H10126673   7.605   1.767   1.452 -0.7607 -1.7597  0.8526
   27MOL   H10226674   7.216   1.944   1.378 -1.5194 -0.4229  0.1089
   27MOL   H10326675   7.017   2.084   1.432  1.1475 -0.5145 -2.2962
   27MOL   N10426676   0.396   2.073   0.906  0.2199 -0.0347  0.8021
   27MOL   C10526677   0.497   2.168   0.922  0.3725  0.1744  0.2274
   27MOL   C10626678   0.636   2.133   0.924  0.6344 -0.7445  0.8640
   27MOL   C10726679   0.731   2.239   0.936  0.5892  0.8198 -0.1750
   27MOL   C10826680   0.693   2.373   0.943  0.9877  0.1344  0.0885
   27MOL   N10926681   0.785   2.482   0.941  0.0774  0.3812  0.4538
   27MOL   C11026682   0.919   2.472   0.985 -0.5927 -0.2310 -0.3042
   27MOL   C11126683   0.959   2.380   1.084 -0.2932  0.1175 -0.1384
   27MOL   C11226684   1.097   2.361   1.105 -0.0764 -0.6816  0.2669
   27MOL   C11326685   1.190   2.435   1.033  0.6731 -1.8551  0.5022
   27MOL   N11426686   1.330   2.419   1.060 -0.4974 -0.2517 -0.0640
   27MOL   C11526687   1.399   2.317   1.131 -0.2214 -1.2755  0.0520
   27MOL   C11626688   1.512   2.275   1.061 -0.8954 -0.1486 -0.1145
   27MOL   C11726689   1.590   2.172   1.111 -0.0884 -0.7100  0.5440
   27MOL   C11826690   1.563   2.104   1.231  0.5545  0.1321  0.2544
   27MOL   N11926691   1.647   2.000   1.270 -0.1968  0.1238  0.6221
   27MOL   C12026692   1.622   1.902   1.364 -0.1144 -0.0841  0.5011
   27MOL   C12126693   1.496   1.849   1.397 -0.3649 -0.2526  0.8635
   27MOL   C12226694   1.489   1.753   1.499  0.4628 -0.0369 -0.7910
   27MOL   C12326695   1.604   1.691   1.559 -0.0698 -0.5505 -0.3653
   27MOL   C12426696   1.586   1.599   1.676 -0.4066 -0.3588 -0.5211
   27MOL   C12526697   1.729   1.733   1.518  0.6246 -0.0021  0.0139
   27MOL   C12626698   1.733   1.838   1.428 -0.8844 -0.1473  0.9755
   27MOL   C12726699   1.445   2.142   1.302 -0.0580  0.1308 -0.0157
   27MOL   C12826700   1.370   2.255   1.255 -0.1529 -0.2044 -0.0039
   27MOL   C12926701   1.156   2.539   0.941  0.8341  0.5618 -0.6194
   27MOL   C13026702   1.016   2.552   0.911 -0.2217 -0.0079 -0.0858
   27MOL   C13126703   0.552   2.406   0.936  0.2113 -0.3351 -0.4945
   27MOL   C13226704   0.459   2.302   0.922 -0.5043  0.1567 -0.8047
   27MOL   H13326705   0.301   2.089   0.937 -0.5349 -2.4460 -0.1596
   27MOL   H13426706   0.675   2.034   0.906  0.0859 -0.5949 -1.3145
   27MOL   H13526707   0.836   2.216   0.923  0.5880  0.4763  0.3968
   27MOL   H13626708   0.757   2.570   0.900 -0.3420 -0.3264 -0.8068
   27MOL   H13726709   0.880   2.321   1.127 -0.1482 -1.4443 -1.9321
   27MOL   H13826710   1.126   2.280   1.170 -0.5970  0.3314  1.8005
   27MOL   H13926711   1.389   2.489   1.018 -2.1602  1.5691  0.5195
   27MOL   H14026712   1.534   2.314   0.963  1.7176  0.4676  0.6732
   27MOL   H14126713   1.676   2.132   1.060 -2.4436 -3.7430 -1.2009
   27MOL   H14226714   1.745   1.999   1.245  0.2844 -2.5233  2.4353
   27MOL   H14326715   1.408   1.892   1.350  0.3764  0.3975  0.0686
   27MOL   H14426716   1.391   1.724   1.534  0.3030  0.2297 -1.0139
   27MOL   H14526717   1.575   1.498   1.636  0.3402 -0.4170 -0.5841
   27MOL   H14626718   1.508   1.629   1.746 -0.7971 -0.8909 -0.7295
   27MOL   H14726719   1.825   1.695   1.551 -0.0772  0.6960  2.9460
   27MOL   H14826720   1.834   1.862   1.397 -1.9048  0.2993 -2.1963
   27MOL   H14926721   1.414   2.106   1.399 -0.9977  0.6164 -0.1295
   27MOL   H15026722   1.294   2.299   1.317  1.3151  1.3428  0.7391
   27MOL   H15126723   1.229   2.592   0.881  0.5551  0.7906 -0.7547
   27MOL   H15226724   0.990   2.611   0.825  3.1936  1.2568 -0.3233
   27MOL   H15326725   0.516   2.508   0.934 -1.3967 -0.8996 -0.6620
   27MOL   H15426726   0.355   2.330   0.918 -0.7539 -1.0165 -3.2972
   27MOL   N15526727   1.712   1.604   1.757 -0.0560 -0.1470  0.0722
   27MOL   C15626728   1.791   1.491   1.787 -0.0195 -0.5404 -0.0421
   27MOL   C15726729   1.808   1.385   1.693  0.7898  0.0656 -0.1741
   27MOL   C15826730   1.867   1.266   1.736  0.3284  0.6734  0.1308
   27MOL   C15926731   1.935   1.257   1.858 -0.2068 -0.0924  0.2103
   27MOL   N16026732   1.994   1.137   1.902 -0.5128 -0.1314  0.1281
   27MOL   C16126733   1.956   1.010   1.874  0.3781 -0.3198  0.1309
   27MOL   C16226734   1.821   0.976   1.871 -0.0545 -0.0920 -0.4897
   27MOL   C16326735   1.786   0.842   1.853  0.0054  0.2109  0.1913
   27MOL   C16426736   1.878   0.743   1.830 -0.5426  0.5434  0.0665
   27MOL   N16526737   1.845   0.610   1.804  0.9672  0.3265  0.1279
   27MOL   C16626738   1.722   0.553   1.779 -0.2087  0.1807  0.3168
   27MOL   C16726739   1.639   0.603   1.678  1.4399 -0.1609  0.2576
   27MOL   C16826740   1.517   0.538   1.653  0.0036 -0.4810  0.5916
   27MOL   C16926741   1.489   0.420   1.717 -0.0011  0.8062 -0.1335
   27MOL   N17026742   1.377   0.348   1.681 -0.2130 -0.2123  0.2475
   27MOL   C17126743   1.252   0.402   1.642  0.9245  0.7199  0.0900
   27MOL   C17226744   1.209   0.524   1.687 -0.3194 -0.9390 -0.7820
   27MOL   C17326745   1.085   0.578   1.659 -0.6195 -0.1543 -0.4016
   27MOL   C17426746   1.006   0.504   1.566  0.1160 -0.5544  0.0975
   27MOL   C17526747   0.866   0.552   1.518  0.0797  0.6591  0.1040
   27MOL   C17626748   1.051   0.387   1.510 -0.0033  0.2298  0.1357
   27MOL   C17726749   1.174   0.328   1.548  0.3947 -0.5121  0.0005
   27MOL   C17826750   1.581   0.360   1.801  0.6285  0.3592 -0.3293
   27MOL   C17926751   1.689   0.431   1.843  0.1527 -0.8965  0.1385
   27MOL   C18026752   2.013   0.776   1.836  0.8068  0.0762 -0.4483
   27MOL   C18126753   2.052   0.913   1.848  0.1785 -0.3915 -0.0224
   27MOL   C18226754   1.940   1.374   1.941  0.4493  0.7713  0.1084
   27MOL   C18326755   1.854   1.482   1.909 -0.3732 -0.0956  0.2565
   27MOL   H18426756   1.714   1.679   1.825  2.4404  0.5760 -0.7324
   27MOL   H18526757   1.762   1.385   1.596 -0.7074  0.5204  0.5125
   27MOL   H18626758   1.867   1.180   1.670 -1.6661  0.4414  0.3929
   27MOL   H18726759   2.090   1.143   1.935 -0.9430  0.4536  1.2981
   27MOL   H18826760   1.743   1.047   1.893  1.4771  1.9634 -1.5283
   27MOL   H18926761   1.681   0.816   1.849  0.1908 -0.5536  0.0985
   27MOL   H19026762   1.928   0.553   1.802 -0.3066 -1.5841 -0.3210
   27MOL   H19126763   1.663   0.691   1.620 -1.0528  0.9781  0.8642
   27MOL   H19226764   1.450   0.583   1.581  0.5825  1.0520  0.9729
   27MOL   H19326765   1.381   0.249   1.699 -2.6648 -0.4747 -0.3674
   27MOL   H19426766   1.269   0.576   1.761 -0.6947 -3.8112  1.6779
   27MOL   H19526767   1.052   0.673   1.700 -0.6866 -0.0542 -0.6898
   27MOL   H19626768   0.870   0.546   1.409  0.5225  1.0552  0.0972
   27MOL   H19726769   0.859   0.657   1.548 -1.8229 -0.4731  3.9021
   27MOL   H19826770   0.982   0.340   1.441  1.1285 -1.6569  0.2541
   27MOL   H19926771   1.216   0.236   1.510  1.0975 -0.7788  1.3959
   27MOL   H20026772   1.563   0.265   1.850  2.2019  0.9727  1.4745
   27MOL   H20126773   1.763   0.392   1.910  0.3992  2.7394  2.1380
   27MOL   H20226774   2.093   0.704   1.832 -0.3819 -1.2005 -2.0556
   27MOL   H20326775   2.158   0.933   1.850  0.2745 -0.9620  0.5907
   27MOL   H20426776   2.002   1.372   2.030  1.6441  1.2685 -0.7096
   27MOL   H20526777   1.850   1.561   1.983  3.2633 -0.8341  1.3534
   27MOL   N20626778   0.755   0.481   1.583  0.1637  0.0720  0.5985
   27MOL   C20726779   0.638   0.473   1.512  0.2006  0.4762 -0.4118
   27MOL   C20826780   0.552   0.362   1.528 -0.4437  0.0727  0.5619
   27MOL   C20926781   0.439   0.350   1.447 -0.0912  0.2478  0.4504
   27MOL   C21026782   0.413   0.444   1.344 -0.5191  0.1804 -0.5401
   27MOL   N21126783   0.294   0.429   1.267  0.0446 -0.4171 -0.2726
   27MOL   C21226784   0.193   0.522   1.234  0.8985 -0.4902  0.7206
   27MOL   C21326785   0.184   0.634   1.317  0.4501  0.0501 -0.1205
   27MOL   C21426786   0.090   0.735   1.282  0.0523 -1.0164 -0.0817
   27MOL   C21526787   0.004   0.718   1.171  0.1582 -0.1436  0.0536
   27MOL   N21626788   7.891   0.816   1.136  0.0755 -0.4546 -0.0884
   27MOL   C21726789   7.890   0.958   1.158 -1.2408  0.2524 -0.0917
   27MOL   C21826790   0.031   1.030   1.164  0.4664  0.1194  0.5805
   27MOL   C21926791   0.037   1.162   1.199 -0.3636 -0.4320  0.6445
   27MOL   C22026792   7.902   1.238   1.204  0.8344  0.0920 -0.8029
   27MOL   N22126793   7.910   1.376   1.233  0.1279  0.1549  0.4624
   27MOL   C22226794   7.856   1.447   1.341 -0.2312 -0.0270 -0.4268
   27MOL   C22326795   7.754   1.385   1.430 -0.6764 -0.2178  0.4114
   27MOL   C22426796   7.718   1.450   1.547 -0.0078 -0.0635 -0.0688
   27MOL   C22526797   7.771   1.578   1.573 -0.6659 -0.4169 -0.4688
   27MOL   C22626798   7.734   1.661   1.693 -0.1496  0.1051 -0.0679
   27MOL   C22726799   7.866   1.647   1.481 -0.1736 -0.8843  0.0256
   27MOL   C22826800   7.903   1.578   1.369  0.4782 -0.0881  0.4837
   27MOL   C22926801   7.778   1.174   1.176 -0.1203  0.1856  0.0675
   27MOL   C23026802   7.771   1.035   1.162 -0.2055 -0.4322  0.1119
   27MOL   C23126803   0.011   0.600   1.095  0.7372 -0.4612 -0.4022
   27MOL   C23226804   0.110   0.505   1.124  0.3655  0.3907  0.0252
   27MOL   C23326805   0.494   0.555   1.336  0.3281 -0.4539  0.6919
   27MOL   C23426806   0.608   0.567   1.414 -0.0392  0.5931  0.3257
   27MOL   H23526807   0.779   0.408   1.649  2.1598  0.7787  0.7120
   27MOL   H23626808   0.574   0.289   1.604 -0.3504 -1.4876 -0.9488
   27MOL   H23726809   0.372   0.268   1.469 -2.1792  1.8660  0.1765
   27MOL   H23826810   0.277   0.332   1.243 -0.4276 -0.7873  1.4635
   27MOL   H23926811   0.249   0.648   1.403  2.6207  0.1161 -1.7233
   27MOL   H24026812   0.069   0.824   1.340 -3.6581 -0.7272 -1.6988
   27MOL   H24126813   7.799   0.780   1.118 -1.3813  2.8098  0.6195
   27MOL   H24226814   0.122   0.972   1.152  0.2342 -0.3665  1.1249
   27MOL   H24326815   0.133   1.212   1.201  0.6741 -1.9600 -3.8252
   27MOL   H24426816   7.975   1.425   1.173 -0.8828 -0.5291 -1.2250
   27MOL   H24526817   7.713   1.285   1.424  1.2192 -1.0039  0.2189
   27MOL   H24626818   7.641   1.419   1.616 -0.1750 -0.6939 -0.5284
   27MOL   H24726819   7.748   1.765   1.666 -3.6556  0.6673 -0.0083
   27MOL   H24826820   7.810   1.632   1.766  0.1277  0.3440 -0.2599
   27MOL   H24926821   7.914   1.739   1.513 -0.1480 -1.1511  0.7553
   27MOL   H25026822   7.966   1.624   1.294 -1.0235  0.3556 -0.5107
   27MOL   H25126823   7.685   1.225   1.196  0.0914  0.4477  0.3889
   27MOL   H25226824   7.675   0.985   1.157 -0.1009 -0.6450  0.2266
   27MOL   H25326825   7.925   0.585   1.012 -0.6075 -1.1186  0.8087
   27MOL   H25426826   0.116   0.413   1.068  1.8272  0.4809  0.0107
   27MOL   H25526827   0.472   0.636   1.268 -3.0813 -1.2031  0.8220
   27MOL   H25626828   0.672   0.653   1.403  1.8946 -1.0992 -2.1348
   27MOL   N25726829   7.594   1.638   1.732 -0.0015 -0.1452  0.1659
   27MOL   C25826830   7.541   1.707   1.842  0.3928 -1.0317  0.0030
   27MOL   C25926831   7.553   1.845   1.858  0.0713  0.3272 -0.4672
   27MOL   C26026832   7.504   1.904   1.976 -0.9649 -0.2432  0.9260
   27MOL   C26126833   7.427   1.832   2.069 -0.9437  0.6570 -0.1408
   27MOL   N26226834   7.366   1.891   2.179 -0.2909  0.4207 -0.1329
   27MOL   C26326835   7.312   2.021   2.180  0.2174 -0.0424 -0.0500
   27MOL   C26426836   7.302   2.075   2.310 -0.0308  0.4747  0.2924
   27MOL   C26526837   7.258   2.205   2.328  0.6003 -0.3687  0.5063
   27MOL   C26626838   7.227   2.287   2.219  0.3601  0.4756 -0.7733
   27MOL   N26726839   7.170   2.415   2.229 -0.3013 -0.0177  0.2196
   27MOL   C26826840   7.176   2.515   2.327 -0.4497  0.0566 -0.9908
   27MOL   C26926841   7.277   2.527   2.426 -0.0967 -0.5436 -0.1153
   27MOL   C27026842   7.268   2.623   2.528 -0.8056 -0.7409 -0.2531
   27MOL   C27126843   7.158   2.716   2.532 -0.5146 -0.4892 -0.8396
   27MOL   N27226844   7.155   2.819   2.626 -0.6908 -0.3962  0.0349
   27MOL   C27326845   7.175   2.805   2.766  0.1633  0.0744  0.1014
   27MOL   C27426846   7.161   2.679   2.822 -0.2323 -0.7427  0.3623
   27MOL   C27526847   7.169   2.665   2.957  0.0424 -0.4694 -0.0845
   27MOL   C27626848   7.182   2.776   3.044  0.3801 -0.5582 -0.1504
   27MOL   C27726849   7.207   2.761   3.193  0.6428  0.6921  0.4663
   27MOL   C27826850   7.199   2.906   2.988 -0.5882  0.6399 -0.2005
   27MOL   C27926851   7.191   2.921   2.848 -0.0353  0.3030  0.1825
   27MOL   C28026852   7.068   2.710   2.430  0.3979  0.3795 -0.3272
   27MOL   C28126853   7.069   2.607   2.337 -0.8088 -0.2638 -0.3963
   27MOL   C28226854   7.236   2.231   2.089  0.2379 -0.3922 -0.3644
   27MOL   C28326855   7.279   2.103   2.069 -0.5976  0.1308 -0.5582
   27MOL   C28426856   7.429   1.692   2.057  0.2504 -0.8849  0.0070
   27MOL   C28526857   7.479   1.632   1.940  0.4818  0.7601 -0.1449
   27MOL   H28626858   7.556   1.545   1.725  0.2810 -0.4109  1.9348
   27MOL   H28726859   7.616   1.906   1.796  1.1247 -0.0892  0.1824
   27MOL   H28826860   7.513   2.012   1.980  0.9153 -0.4522  3.3018
   27MOL   H28926861   7.342   1.828   2.254  2.8680  0.1642  0.7286
   27MOL   H29026862   7.328   2.017   2.397 -0.9361 -2.2564 -1.1985
   27MOL   H29126863   7.251   2.239   2.430 -0.7780  0.2232  0.2241
   27MOL   H29226864   7.118   2.433   2.144 -0.5500 -3.8408 -0.5143
   27MOL   H29326865   7.370   2.475   2.418  0.1542 -0.2330  0.6898
   27MOL   H29426866   7.356   2.625   2.591 -1.2338 -2.9884  0.4582
   27MOL   H29526867   7.091   2.894   2.605 -2.1376 -1.7334 -0.3899
   27MOL   H29626868   7.164   2.597   2.752 -2.5563 -2.4466  2.2099
   27MOL   H29726869   7.155   2.567   3.000 -1.7609  0.3252  1.2139
   27MOL   H29826870   7.107   2.743   3.233 -0.8934  2.5554 -2.3835
   27MOL   H29926871   7.242   2.853   3.240  1.7709  0.4365  0.1465
   27MOL   H30026872   7.211   2.989   3.056 -0.6697  0.8870 -0.4883
   27MOL   H30126873   7.191   3.019   2.804  0.5267  2.6274  5.0196
   27MOL   H30226874   6.983   2.777   2.421  0.8568  0.9570 -0.3420
   27MOL   H30326875   6.981   2.597   2.277 -0.7561 -1.0560 -0.3452
   27MOL   H30426876   7.197   2.282   2.001 -1.4263 -0.8316  0.1039
   27MOL   H30526877   7.288   2.056   1.972  0.3389 -2.9406  0.9505
   27MOL   H30626878   7.379   1.631   2.130  1.7799 -0.8533  1.0998
   27MOL   H30726879   7.471   1.524   1.931  0.2023  0.9052 -1.6113
   27MOL   N30826880   7.284   2.641   3.227  0.8773 -0.2414  0.5403
   27MOL   C30926881   7.422   2.629   3.206 -0.7098 -0.2369 -0.0326
   27MOL   C31026882   7.478   2.503   3.238  0.1112 -0.6236  0.1881
   27MOL   C31126883   7.614   2.474   3.211 -0.0023 -0.4237 -0.2506
   27MOL   C31226884   7.705   2.572   3.162  0.3804  0.6615 -0.3811
   27MOL   N31326885   7.840   2.542   3.160 -0.5859  0.1810  0.2987
   27MOL   C31426886   7.938   2.565   3.067 -0.1108 -0.2564 -0.5993
   27MOL   C31526887   7.916   2.641   2.953  0.1940  0.2505 -0.0789
   27MOL   C31626888   0.042   2.662   2.862  0.4280 -1.1169 -0.1485
   27MOL   C31726889   0.170   2.605   2.887  0.2999  0.3891  0.6489
   27MOL   N31826890   0.260   2.615   2.780 -0.2766  0.2917  0.2136
   27MOL   C31926891   0.396   2.595   2.798 -0.0627 -0.7257  0.7514
   27MOL   C32026892   0.461   2.495   2.731  0.3412  0.5354 -0.0939
   27MOL   C32126893   0.600   2.468   2.741  0.4069  0.4654 -0.4708
   27MOL   C32226894   0.669   2.531   2.841  0.4356 -0.6260 -0.4875
   27MOL   N32326895   0.810   2.515   2.860 -0.0312 -0.0792 -0.4240
   27MOL   C32426896   0.903   2.578   2.939  0.3911 -0.1077 -0.7011
   27MOL   C32526897   0.984   2.509   3.028  0.2929  0.0315 -0.0659
   27MOL   C32626898   1.091   2.573   3.084 -0.1665  0.7967 -0.0137
   27MOL   C32726899   1.122   2.705   3.050 -0.6317 -0.3578 -0.4212
   27MOL   C32826900   1.262   2.761   3.094 -0.6739 -0.0486 -0.1493
   27MOL   C32926901   1.031   2.786   2.979 -0.4057  0.4336 -0.7032
   27MOL   C33026902   0.917   2.717   2.930  0.4812  0.1864  0.0281
   27MOL   C33126903   0.596   2.618   2.932 -0.0495 -0.2857 -0.2802
   27MOL   C33226904   0.467   2.662   2.900  0.5709 -0.3924  0.3220
   27MOL   C33326905   0.191   2.535   3.006  0.2165 -1.3295 -1.3317
   27MOL   C33426906   0.085   2.517   3.100  0.5696 -0.5062 -0.4553
   27MOL   C33526907   7.642   2.699   3.130  0.2433  0.6061  0.5244
   27MOL   C33626908   7.509   2.730   3.155 -0.2380  0.0909  0.1388
   27MOL   H33726909   7.226   2.559   3.233 -1.9568  1.4153 -2.5366
   27MOL   H33826910   7.416   2.421   3.270 -2.4041  1.1674  0.0039
   27MOL   H33926911   7.638   2.373   3.240  0.6454 -0.3633 -0.5862
   27MOL   H34026912   7.879   2.493   3.239  0.0560  0.0841 -0.0756
   27MOL   H34126913   7.818   2.684   2.942  0.3321  0.9757  1.3567
   27MOL   H34226914   0.021   2.726   2.777 -0.9806  0.4074  1.3165
   27MOL   H34326915   0.228   2.596   2.686 -0.4135  0.4521  0.2278
   27MOL   H34426916   0.406   2.447   2.651 -0.2949 -0.1653  0.7597
   27MOL   H34526917   0.646   2.392   2.681 -0.0026 -0.6938  0.6485
   27MOL   H34626918   0.847   2.462   2.783  0.1777 -0.1013 -0.3077
   27MOL   H34726919   0.968   2.403   3.045 -1.4709  0.2689 -0.1328
   27MOL   H34826920   1.147   2.516   3.157 -1.4201 -3.0483 -1.9167
   27MOL   H34926921   1.320   2.695   3.158  2.8343  1.3175 -1.8022
   27MOL   H35026922   1.250   2.856   3.146 -1.5327  0.9390 -2.0995
   27MOL   H35126923   1.041   2.892   2.966  2.2502  0.2534 -0.4939
   27MOL   H35226924   0.850   2.785   2.879  0.7198 -0.5015 -1.2274
   27MOL   H35326925   0.657   2.672   3.003  0.1792  1.7271 -1.9529
   27MOL   H35426926   0.420   2.740   2.958  0.8733 -0.6086  0.8640
   27MOL   H35526927   0.286   2.493   3.035 -0.2938 -1.3907  0.2985
   27MOL   H35626928   0.107   2.463   3.191 -1.2701  0.9963  0.9371
   27MOL   H35726929   7.714   2.776   3.105  0.2294  1.1163  2.0257
   27MOL   H35826930   7.483   2.834   3.141  1.5181  0.3218 -1.5806
   27MOL   N35926931   1.342   2.803   2.973 -0.5903  0.1811  0.1491
   27MOL   C36026932   1.463   2.866   2.984  0.4005 -0.3875 -0.4656
   27MOL   C36126933   1.511   2.938   2.872 -0.2844  0.6190  0.1241
   27MOL   C36226934   1.635   3.007   2.879  1.0687 -0.2673  0.1377
   27MOL   C36326935   1.703   3.019   3.006  0.1169 -0.0579  0.4106
   27MOL   N36426936   1.822   3.092   3.027  0.2533  1.0737  0.3968
   27MOL   C36526937   1.827   3.218   3.088  0.8364  0.4663  0.6108
   27MOL   C36626938   1.943   3.286   3.124  0.3122 -0.1986 -0.6218
   27MOL   C36726939   1.937   3.418   3.164 -0.0059 -0.3265 -0.0111
   27MOL   C36826940   1.820   3.490   3.174 -0.5009 -0.3465 -0.3980
   27MOL   N36926941   1.819   3.617   3.230  0.4084 -0.5146 -0.0361
   27MOL   C37026942   1.725   3.722   3.218 -0.8799  0.1980 -0.1590
   27MOL   C37126943   1.642   3.734   3.104  0.3197  0.1992  0.0359
   27MOL   C37226944   1.572   3.857   3.074  0.6696 -0.0040  0.4585
   27MOL   C37326945   1.555   3.954   3.178  0.5242  0.3401  0.7990
   27MOL   N37426946   1.465   4.061   3.162 -0.0816  0.7511 -0.2709
   27MOL   C37526947   1.442   4.161   3.259 -0.1834 -0.5164 -0.2853
   27MOL   C37626948   1.426   4.134   3.392  0.6613  0.6320  0.0254
   27MOL   C37726949   1.369   4.236   3.468 -0.2509 -0.0288 -0.3972
   27MOL   C37826950   1.340   4.362   3.428 -0.1668  0.5887 -0.3864
   27MOL   C37926951   1.274   4.469   3.519 -0.5817 -0.4686  0.0087
   27MOL   C38026952   1.375   4.390   3.290  1.0309 -0.1088  0.1683
   27MOL   C38126953   1.419   4.291   3.203  0.0352 -0.1421 -0.0464
   27MOL   C38226954   1.642   3.951   3.285 -0.2203 -0.3728  0.1255
   27MOL   C38326955   1.730   3.838   3.306  0.3802 -1.4190  0.3408
   27MOL   C38426956   1.701   3.417   3.150 -0.4940 -0.1311  0.0205
   27MOL   C38526957   1.706   3.290   3.098 -0.5096  0.3858 -0.2240
   27MOL   C38626958   1.651   2.953   3.114 -0.3117 -0.1006 -0.2224
   27MOL   C38726959   1.534   2.874   3.105 -0.6807 -0.5461  0.3394
   27MOL   H38826960   1.284   2.844   2.902  1.8122 -1.7161 -3.0348
   27MOL   H38926961   1.467   2.930   2.774  1.0964  1.1415 -0.5531
   27MOL   H39026962   1.682   3.066   2.802  1.9523 -1.9577 -0.6241
   27MOL   H39126963   1.906   3.038   3.042 -1.6145 -1.9114  0.4662
   27MOL   H39226964   2.039   3.237   3.118  0.4832  0.0816 -0.2313
   27MOL   H39326965   2.027   3.466   3.201 -0.2128 -0.3561  0.5242
   27MOL   H39426966   1.874   3.618   3.315  1.4535 -0.8157 -0.7047
   27MOL   H39526967   1.636   3.660   3.025  0.6227  0.5158 -0.2891
   27MOL   H39626968   1.516   3.862   2.982 -1.3669  1.7245  1.7435
   27MOL   H39726969   1.445   4.091   3.067  0.7816 -2.3433 -1.4855
   27MOL   H39826970   1.443   4.038   3.440 -0.0160 -0.2609 -1.4945
   27MOL   H39926971   1.348   4.209   3.571  0.6701  1.9032  0.3230
   27MOL   H40026972   1.270   4.428   3.620  0.1092  0.8934  0.5962
   27MOL   H40126973   1.170   4.465   3.486 -0.3947 -0.0165 -0.6640
   27MOL   H40226974   1.352   4.486   3.246 -1.6230 -0.9112 -0.2924
   27MOL   H40326975   1.448   4.315   3.102  0.8260  1.3895  0.5207
   27MOL   H40426976   1.634   4.033   3.355  0.5287 -2.1962  2.3924
   27MOL   H40526977   1.796   3.852   3.390 -1.9426  0.3822  1.9221
   27MOL   H40626978   1.607   3.468   3.166 -0.3653  0.0827  0.1043
   27MOL   H40726979   1.612   3.243   3.075 -0.0990 -0.7451  0.3562
   27MOL   H40826980   1.701   2.951   3.210 -1.1938 -0.7102  0.2246
   27MOL   H40926981   1.504   2.830   3.199 -2.3382 -0.0113  0.0822
   27MOL   N41026982   1.347   4.595   3.501 -0.5370  0.0331 -0.1365
   27MOL   C41126983   1.325   4.680   3.608  0.2955 -0.5638  0.1427
   27MOL   C41226984   1.197   4.687   3.668  0.0558  0.3780  0.3627
   27MOL   C41326985   1.178   4.764   3.782  0.9412  0.0738 -0.8531
   27MOL   C41426986   1.286   4.832   3.836 -0.1606 -0.2128 -0.6510
   27MOL   N41526987   1.271   4.911   3.951  0.6757  0.4214  0.0745
   27MOL   C41626988   1.346   5.012   4.008  0.3395 -0.1540  0.0227
   27MOL   C41726989   1.421   5.106   3.936 -0.3495  0.6030 -0.3137
   27MOL   C41826990   1.484   5.209   4.004 -0.6053 -0.8566 -0.6890
   27MOL   C41926991   1.477   5.226   4.144 -0.3466  0.2799 -0.6386
   27MOL   N42026992   1.552   5.329   4.205  0.4848  0.0378  0.0913
   27MOL   C42126993   1.521   5.400   4.317  0.3928 -0.6105  0.4619
   27MOL   C42226994   1.625   5.470   4.381 -0.4779 -0.5679 -0.2717
   27MOL   C42326995   1.606   5.542   4.494  0.5202 -0.5211  0.0964
   27MOL   C42426996   1.472   5.566   4.537 -0.0849 -0.4124  0.0138
   27MOL   N42526997   1.454   5.644   4.652 -0.5192 -0.2875 -0.0777
   27MOL   C42626998   1.347   5.619   4.739 -0.3157 -0.4869 -0.0386
   27MOL   C42726999   1.265   5.726   4.794  0.2324 -0.2253 -0.4740
   27MOL   C42827000   1.145   5.703   4.872 -0.3538  0.0498 -0.0660
   27MOL   C42927001   1.115   5.571   4.902  0.5237 -0.1017  0.4428
   27MOL   C43027002   0.992   5.533   4.984 -0.0491  0.5729  0.8157
   27MOL   C43127003   1.194   5.469   4.842  0.8995  0.2709 -0.3816
   27MOL   C43227004   1.310   5.489   4.767  0.1338  0.3341 -0.0324
   27MOL   C43327005   1.364   5.509   4.468  0.4226 -0.1666 -0.8618
   27MOL   C43427006   1.390   5.425   4.357 -0.1296  0.2164 -0.0375
   27MOL   C43527007   1.408   5.134   4.221  0.0125 -1.0695  0.5190
   27MOL   C43627008   1.344   5.029   4.151  0.2552 -0.6872  0.0966
   27MOL   C43727009   1.416   4.822   3.778 -0.3673  0.4487  0.0012
   27MOL   C43827010   1.436   4.752   3.656  0.3207 -0.2726  0.1530
   27MOL   H43927011   1.445   4.576   3.488 -0.1994 -0.0764  2.2478
   27MOL   H44027012   1.112   4.638   3.623  1.4651 -1.5934 -0.2598
   27MOL   H44127013   1.084   4.779   3.833  1.4966 -0.2894  0.2819
   27MOL   H44227014   1.196   4.880   4.012  1.0260 -0.6211 -0.0182
   27MOL   H44327015   1.419   5.108   3.828  0.1340 -1.0335 -0.3623
   27MOL   H44427016   1.532   5.287   3.947  0.2586 -1.4016 -0.7288
   27MOL   H44527017   1.639   5.357   4.162 -0.1217  1.3576 -0.3044
   27MOL   H44627018   1.726   5.457   4.347 -0.2261 -0.3825  0.4147
   27MOL   H44727019   1.687   5.592   4.545  0.1914 -0.3047  0.4051
   27MOL   H44827020   1.531   5.701   4.686 -0.6020 -0.6448  0.7272
   27MOL   H44927021   1.288   5.828   4.766  1.1235 -0.4105 -0.4320
   27MOL   H45027022   1.076   5.781   4.900 -0.6208 -0.6188  1.2117
   27MOL   H45127023   0.917   5.519   4.907  1.0989  0.2082 -0.2442
   27MOL   H45227024   0.960   5.620   5.042  0.5104  0.8234  0.7540
   27MOL   H45327025   1.148   5.371   4.845 -1.6445  1.4792  3.9332
   27MOL   H45427026   1.367   5.406   4.728 -1.3326  0.3282 -2.3153
   27MOL   H45527027   1.263   5.538   4.495  0.4167 -1.4681  0.5507
   27MOL   H45627028   1.306   5.380   4.307  0.7620 -0.4760 -0.9306
   27MOL   H45727029   1.418   5.137   4.329  0.2828  3.7621  0.4543
   27MOL   H45827030   1.282   4.965   4.212 -0.3160 -1.0889 -0.8824
   27MOL   H45927031   1.500   4.866   3.829 -0.7609 -1.6609  2.6032
   27MOL   H46027032   1.532   4.739   3.608  0.6360 -0.1677  0.7502
   27MOL   N46127033   1.000   5.409   5.058 -0.3456  0.6043  0.0482
   27MOL   C46227034   1.027   5.393   5.196  0.7099  0.6884 -0.4478
   27MOL   C46327035   1.059   5.259   5.231 -0.1682 -0.5100  0.0848
   27MOL   C46427036   1.095   5.230   5.367 -0.1150 -1.0988  0.2991
   27MOL   C46527037   1.079   5.326   5.473  0.3373  0.2373 -0.1936
   27MOL   N46627038   1.113   5.292   5.600 -0.7163  0.4090  0.4936
   27MOL   C46727039   1.220   5.344   5.674 -0.5877  0.7831 -0.7241
   27MOL   C46827040   1.304   5.454   5.640 -0.0453  0.5264 -1.1204
   27MOL   C46927041   1.410   5.493   5.724  0.2872  0.4732 -1.5342
   27MOL   C47027042   1.444   5.421   5.840 -0.7396 -0.0606  0.0598
   27MOL   N47127043   1.548   5.451   5.930 -0.3547  0.0278  0.5816
   27MOL   C47227044   1.633   5.562   5.931 -0.4324  0.1167 -0.6639
   27MOL   C47327045   1.570   5.684   5.940 -0.1659 -0.3214  0.5624
   27MOL   C47427046   1.646   5.802   5.957 -0.4977 -0.1894 -0.2534
   27MOL   C47527047   1.787   5.794   5.966 -0.4721 -0.0524  0.0565
   27MOL   N47627048   1.855   5.915   5.987 -0.1629 -0.0092 -0.5889
   27MOL   C47727049   1.987   5.960   5.948  0.4616  0.0734 -0.2942
   27MOL   C47827050   2.040   6.078   6.002 -0.1944 -0.2327 -0.8049
   27MOL   C47927051   2.165   6.129   5.958  0.0133  0.0654  1.0376
   27MOL   C48027052   2.234   6.071   5.849 -0.3236  0.0512 -0.3525
   27MOL   C48127053   2.367   6.132   5.797  0.3790 -0.9054 -0.0332
   27MOL   C48227054   2.177   5.959   5.789 -0.1123 -0.4467 -0.1208
   27MOL   C48327055   2.055   5.905   5.837 -0.1320  0.8743 -0.5134
   27MOL   C48427056   1.852   5.671   5.943 -0.1692 -0.0893 -0.3523
   27MOL   C48527057   1.772   5.553   5.929 -0.0616  0.4782 -1.1191
   27MOL   C48627058   1.364   5.311   5.870 -0.2954  0.2624  0.4114
   27MOL   C48727059   1.255   5.274   5.790 -0.8053  0.1000  0.5827
   27MOL   C48827060   1.044   5.460   5.435  0.0483  0.4854  0.4031
   27MOL   C48927061   1.021   5.491   5.302 -0.2407 -0.6198 -0.3645
   27MOL   H49027062   0.986   5.318   5.015  1.1709 -0.5301  1.8472
   27MOL   H49127063   1.076   5.182   5.157 -0.9866 -0.0968 -0.5468
   27MOL   H49227064   1.123   5.130   5.396  2.3477 -0.1276  1.3596
   27MOL   H49327065   1.101   5.194   5.621 -2.9243  0.4807 -0.2397
   27MOL   H49427066   1.287   5.513   5.551 -1.1631  0.5985 -0.8753
   27MOL   H49527067   1.465   5.580   5.692 -0.1521  0.7199 -1.6361
   27MOL   H49627068   1.577   5.379   5.995  3.0102 -0.4424 -1.3620
   27MOL   H49727069   1.464   5.703   5.944 -0.0767  0.2056  0.4624
   27MOL   H49827070   1.595   5.896   5.974  1.1607  0.8355 -0.8858
   27MOL   H49927071   1.809   5.964   6.063 -0.8760 -1.4954 -0.0448
   27MOL   H50027072   1.992   6.130   6.084 -1.1657 -0.1862 -1.4030
   27MOL   H50127073   2.203   6.217   6.009 -1.9618  2.0145 -0.7461
   27MOL   H50227074   2.450   6.062   5.805 -0.8436 -1.9529  4.1452
   27MOL   H50327075   2.392   6.218   5.859 -1.6237 -0.7863  0.6223
   27MOL   H50427076   2.220   5.925   5.696 -1.5531  0.8958 -1.2910
   27MOL   H50527077   2.010   5.820   5.788  0.5268  0.1445  0.1439
   27MOL   H50627078   1.960   5.666   5.942 -0.0734  1.6557  0.0919
   27MOL   H50727079   1.817   5.456   5.913 -3.1069 -1.2848  0.6334
   27MOL   H50827080   1.380   5.255   5.960 -0.8090 -0.6045 -0.0326
   27MOL   H50927081   1.191   5.194   5.826  0.0436 -1.8080 -1.9800
   27MOL   H51027082   1.027   5.529   5.517 -0.8584  0.1479  0.5110
   27MOL   H51127083   0.992   5.591   5.273  2.9549  0.6410  0.5657
   27MOL   N51227084   2.345   6.183   5.661  0.4207 -0.2631  0.1176
   27MOL   C51327085   2.441   6.148   5.566  0.0235 -0.1771 -0.6653
   27MOL   C51427086   2.391   6.092   5.450  0.1320  0.2719 -0.4000
   27MOL   C51527087   2.479   6.048   5.348  0.4517  0.5342  0.8943
   27MOL   C51627088   2.617   6.042   5.369  0.0190 -0.1176 -0.4813
   27MOL   N51727089   2.713   5.991   5.276  0.3273 -0.5561 -0.7240
   27MOL   C51827090   2.687   5.931   5.151 -0.2096 -0.5257 -0.0715
   27MOL   C51927091   2.776   5.942   5.046 -0.4881 -1.0488 -0.2250
   27MOL   C52027092   2.755   5.876   4.926 -0.3097 -0.0057  0.1336
   27MOL   C52127093   2.638   5.809   4.895 -0.0333  0.0010  0.5280
   27MOL   N52227094   2.609   5.755   4.766 -0.3367  0.1226  0.3270
   27MOL   C52327095   2.576   5.830   4.654 -0.4313  0.3709 -0.1853
   27MOL   C52427096   2.623   5.964   4.630 -0.1309  0.2186  0.5054
   27MOL   C52527097   2.576   6.044   4.522  0.7757  0.1833  0.1234
   27MOL   C52627098   2.482   5.988   4.434 -0.1409 -0.3587 -0.4633
   27MOL   N52727099   2.428   6.067   4.342  0.1527  0.2403  0.5594
   27MOL   C52827100   2.359   6.035   4.223 -0.3979  0.4737  0.0961
   27MOL   C52927101   2.242   6.104   4.196 -0.4020 -0.5053 -0.2487
   27MOL   C53027102   2.153   6.059   4.094 -0.0137  0.3352  0.6362
   27MOL   C53127103   2.184   5.945   4.015 -0.0140  0.1019 -0.6026
   27MOL   C53227104   2.081   5.894   3.910  0.2449  0.2832  0.1369
   27MOL   C53327105   2.298   5.869   4.051  0.7760 -0.3724  1.4010
   27MOL   C53427106   2.398   5.921   4.142  0.3889  0.3655  0.7472
   27MOL   C53527107   2.433   5.859   4.451 -0.4521 -0.1449 -0.5006
   27MOL   C53627108   2.482   5.780   4.559 -0.5697 -0.3609 -0.9849
   27MOL   C53727109   2.554   5.789   5.004  0.4317 -0.1113  1.1161
   27MOL   C53827110   2.582   5.841   5.134  0.0488 -0.3642 -0.0238
   27MOL   C53927111   2.663   6.088   5.494 -0.0465  0.9682 -0.0982
   27MOL   C54027112   2.581   6.141   5.595 -0.4455  0.0371  0.7582
   27MOL   H54127113   2.250   6.161   5.635  0.1281  0.4103  0.5962
   27MOL   H54227114   2.284   6.095   5.443  0.0738 -1.0164 -0.1219
   27MOL   H54327115   2.433   6.006   5.260  0.0827  0.5148  1.0917
   27MOL   H54427116   2.802   6.038   5.278 -0.0050  0.0348  0.2188
   27MOL   H54527117   2.861   6.008   5.053 -1.0411 -0.3310 -0.1893
   27MOL   H54627118   2.832   5.883   4.851 -0.1357 -0.6402  0.2488
   27MOL   H54727119   2.551   5.672   4.771 -0.1096  0.0783  2.6783
   27MOL   H54827120   2.694   6.020   4.689 -1.6992 -0.3877  3.0198
   27MOL   H54927121   2.611   6.145   4.506  2.6428 -0.9302 -3.2813
   27MOL   H55027122   2.435   6.167   4.357 -0.4813  0.4653 -0.6192
   27MOL   H55127123   2.208   6.171   4.274  0.5974  0.6507 -0.7864
   27MOL   H55227124   2.059   6.108   4.070 -0.0962 -0.2484 -0.2403
   27MOL   H55327125   2.011   5.978   3.913  0.7423  0.8264 -2.4608
   27MOL   H55427126   2.035   5.807   3.955  0.0731  0.1254 -0.3368
   27MOL   H55527127   2.314   5.777   3.996 -0.2984  0.4436 -0.3085
   27MOL   H55627128   2.490   5.867   4.156  0.1257 -0.5599 -0.9423
   27MOL   H55727129   2.359   5.822   4.381  1.0420 -2.9080 -0.7184
   27MOL   H55827130   2.436   5.683   4.570 -1.1920 -0.0277 -0.6406
   27MOL   H55927131   2.461   5.736   4.987  0.7573 -0.0082 -1.1716
   27MOL   H56027132   2.521   5.824   5.221 -1.0223  1.3653 -0.4202
   27MOL   H56127133   2.771   6.081   5.502 -0.0918  2.5059  2.1817
   27MOL   H56227134   2.626   6.181   5.684 -1.0915  2.2806  0.1078
   27MOL   N56327135   2.144   5.881   3.787 -0.0126  0.8067 -0.4230
   27MOL   C56427136   2.069   5.870   3.675  1.0005 -0.0399 -0.0760
   27MOL   C56527137   1.937   5.812   3.685 -0.8501  0.1969  0.0849
   27MOL   C56627138   1.860   5.794   3.567  0.2561  0.5320 -0.2514
   27MOL   C56727139   1.916   5.814   3.442 -0.1663 -0.4981 -0.5579
   27MOL   N56827140   1.842   5.771   3.332 -0.7260 -0.0801 -0.0313
   27MOL   C56927141   1.860   5.801   3.197 -1.0155 -0.2036  0.0453
   27MOL   C57027142   1.808   5.719   3.105 -0.3236  0.8289  0.4415
   27MOL   C57127143   1.824   5.739   2.962 -0.1302 -0.6755  0.0131
   27MOL   C57227144   1.884   5.861   2.915 -0.1736 -0.3465  0.9490
   27MOL   N57327145   1.915   5.878   2.778  0.1968  0.2192  0.5247
   27MOL   C57427146   1.854   5.829   2.663  0.2671 -0.1085  0.1186
   27MOL   C57527147   1.716   5.800   2.670 -0.7653  0.4287  0.0388
   27MOL   C57627148   1.657   5.719   2.576  1.1396 -0.7133  0.0457
   27MOL   C57727149   1.730   5.687   2.458 -0.1638 -0.6784  0.2568
   27MOL   N57827150   1.663   5.617   2.355 -0.8042  0.0671  0.0179
   27MOL   C57927151   1.561   5.518   2.361  0.1262 -0.7079  0.3949
   27MOL   C58027152   1.536   5.447   2.479 -0.0571  0.4149 -0.3740
   27MOL   C58127153   1.425   5.357   2.498  0.3706 -0.2454 -0.3143
   27MOL   C58227154   1.352   5.321   2.381 -0.5361  0.0818  0.3220
   27MOL   C58327155   1.229   5.237   2.385  0.7376  0.3906  0.3251
   27MOL   C58427156   1.387   5.386   2.259 -0.0748 -0.5588  0.6367
   27MOL   C58527157   1.483   5.486   2.248 -0.5349 -0.0810 -0.3311
   27MOL   C58627158   1.861   5.737   2.443  0.1773 -0.5105  0.1972
   27MOL   C58727159   1.933   5.801   2.552  0.5739  0.8020  0.7425
   27MOL   C58827160   1.933   5.951   3.013  1.1924 -0.0077  0.4305
   27MOL   C58927161   1.908   5.930   3.152 -1.1223 -0.4651  0.3024
   27MOL   C59027162   2.044   5.874   3.434  0.8271  0.4833 -0.2707
   27MOL   C59127163   2.123   5.896   3.551 -0.4844  0.3304  0.0626
   27MOL   H59227164   2.244   5.885   3.776  0.1577  1.6754  1.2482
   27MOL   H59327165   1.888   5.773   3.773 -0.3688 -1.1694 -0.2345
   27MOL   H59427166   1.766   5.741   3.570  0.4597  0.1352 -0.9157
   27MOL   H59527167   1.770   5.702   3.344 -1.7964  1.3620  2.2126
   27MOL   H59627168   1.741   5.645   3.146 -0.6502 -0.2195 -1.8717
   27MOL   H59727169   1.770   5.673   2.896 -0.5924 -0.3290  0.0401
   27MOL   H59827170   2.015   5.892   2.774  0.7375 -2.7222  2.3550
   27MOL   H59927171   1.666   5.843   2.755 -1.8778 -0.8027  0.0188
   27MOL   H60027172   1.551   5.697   2.582  1.3494 -0.8690  4.0641
   27MOL   H60127173   1.688   5.634   2.258  0.1704 -0.1066  0.2339
   27MOL   H60227174   1.589   5.462   2.572  0.2162  2.6244 -0.8556
   27MOL   H60327175   1.401   5.316   2.595 -0.9586  0.2343 -0.4390
   27MOL   H60427176   1.244   5.177   2.295 -0.6875  2.0568 -1.0595
   27MOL   H60527177   1.135   5.290   2.369 -1.2460 -2.3196  2.4523
   27MOL   H60627178   1.331   5.373   2.168 -0.3312  0.4983  0.6402
   27MOL   H60727179   1.499   5.542   2.157 -0.2826 -2.0970 -1.5435
   27MOL   H60827180   1.909   5.709   2.351 -0.3850 -1.0912  0.0803
   27MOL   H60927181   2.040   5.812   2.550  0.5817  0.7334  0.7897
   27MOL   H61027182   1.981   6.038   2.971  0.3773 -0.4219 -1.4033
   27MOL   H61127183   1.934   6.010   3.219 -3.1593  0.9240 -0.5060
   27MOL   H61227184   2.089   5.910   3.343  3.6850 -0.8881  0.5587
   27MOL   H61327185   2.228   5.924   3.546  0.0779 -1.9845 -2.6728
   27MOL   N61427186   1.212   5.164   2.510  0.1223 -0.2410  0.0936
   27MOL   C61527187   1.101   5.083   2.529 -0.0370 -0.5224  0.3654
   27MOL   C61627188   0.988   5.075   2.432  0.0239 -0.3978 -0.4443
   27MOL   C61727189   0.879   4.991   2.460 -0.1961 -0.1919 -0.0160
   27MOL   C61827190   0.874   4.916   2.578 -0.5449 -0.0528 -0.4162
   27MOL   N61927191   0.776   4.823   2.584 -0.1987 -0.0439  0.6003
   27MOL   C62027192   0.725   4.751   2.693 -0.0113  0.0722 -0.5974
   27MOL   C62127193   0.729   4.810   2.828 -0.1808 -0.0411  0.1335
   27MOL   C62227194   0.679   4.732   2.940 -0.4714  0.2683 -0.0161
   27MOL   C62327195   0.619   4.607   2.917 -0.1901 -0.2971  0.4272
   27MOL   N62427196   0.587   4.520   3.026  0.4347 -0.3037 -0.4959
   27MOL   C62527197   0.598   4.534   3.162 -0.7659 -0.1064  0.2176
   27MOL   C62627198   0.574   4.648   3.235 -0.2921 -0.0730  1.3729
   27MOL   C62727199   0.599   4.656   3.373 -0.0661 -0.1992  0.0597
   27MOL   C62827200   0.632   4.536   3.441 -0.4788 -0.2816  0.0174
   27MOL   N62927201   0.653   4.538   3.580 -0.4227 -0.1228  0.2587
   27MOL   C63027202   0.689   4.642   3.656  0.7900 -0.6481 -0.2429
   27MOL   C63127203   0.622   4.668   3.779  0.0549  0.1232  0.1946
   27MOL   C63227204   0.651   4.776   3.862  0.8147  0.3731 -0.1537
   27MOL   C63327205   0.756   4.864   3.822 -0.1521 -0.9286  0.1461
   27MOL   C63427206   0.762   4.996   3.896 -0.6354 -1.0364  0.0345
   27MOL   C63527207   0.822   4.839   3.700  0.0181  0.1989  0.0455
   27MOL   C63627208   0.794   4.727   3.617 -0.3132 -1.2759  0.5311
   27MOL   C63727209   0.636   4.414   3.367 -0.0011  0.2935  0.0129
   27MOL   C63827210   0.623   4.412   3.229 -0.4538  0.2784 -0.1105
   27MOL   C63927211   0.612   4.551   2.789 -0.3897 -0.3923  0.6304
   27MOL   C64027212   0.670   4.625   2.684  0.2854  0.2431  0.5117
   27MOL   C64127213   0.975   4.936   2.676 -0.6263 -0.0772  0.5020
   27MOL   C64227214   1.088   5.011   2.651  0.1570 -0.0340 -0.0940
   27MOL   H64327215   1.303   5.136   2.546  0.4017 -0.9703 -1.1459
   27MOL   H64427216   0.978   5.129   2.340 -1.0972 -0.9854 -0.6808
   27MOL   H64527217   0.802   4.992   2.385  1.1431 -0.2073 -1.4082
   27MOL   H64627218   0.730   4.798   2.498  1.3901 -1.7336  0.1908
   27MOL   H64727219   0.761   4.912   2.845  0.6821 -0.3991  0.7176
   27MOL   H64827220   0.698   4.772   3.039  0.1033 -0.5521  0.2104
   27MOL   H64927221   0.602   4.424   3.001  1.8259 -0.2220  0.0088
   27MOL   H65027222   0.540   4.738   3.185  2.3054 -0.7674 -1.8611
   27MOL   H65127223   0.595   4.754   3.417 -0.9013 -1.0016  1.7983
   27MOL   H65227224   0.619   4.454   3.625  2.2707 -1.6610 -0.4537
   27MOL   H65327225   0.537   4.605   3.799 -0.8262  1.3942  0.5411
   27MOL   H65427226   0.598   4.799   3.954  0.1722  0.6237 -0.5874
   27MOL   H65527227   0.724   4.995   3.998 -0.3107  0.7938  0.1927
   27MOL   H65627228   0.686   5.066   3.860  0.6202  1.9077  2.8113
   27MOL   H65727229   0.891   4.912   3.660 -0.4512 -1.3520 -3.8869
   27MOL   H65827230   0.848   4.720   3.524  0.4847 -1.8546  1.0378
   27MOL   H65927231   0.659   4.325   3.424  1.9452 -0.0255 -1.2423
   27MOL   H66027232   0.629   4.318   3.175 -1.1687  0.6454 -0.8494
   27MOL   H66127233   0.575   4.453   2.766 -0.0433 -0.4678  0.3926
   27MOL   H66227234   0.656   4.569   2.593  1.4213 -1.4559  1.3372
   27MOL   H66327235   0.985   4.870   2.761  0.8988  0.4905  0.7587
   27MOL   H66427236   1.174   5.011   2.717 -0.3828 -1.0183  0.6147
   27MOL   N66527237   0.898   5.054   3.892 -0.0744 -0.1414 -0.7070
   27MOL   C66627238   0.914   5.178   3.835 -0.1328  0.0052  0.4848
   27MOL   C66727239   1.004   5.201   3.732 -0.1517 -0.5382 -0.0074
   27MOL   C66827240   1.037   5.335   3.692  0.1559  0.3337  0.6483
   27MOL   C66927241   0.960   5.440   3.743 -0.1505 -0.3838  0.3802
   27MOL   N67027242   0.970   5.569   3.694  0.6551 -0.1482 -0.0434
   27MOL   C67127243   1.047   5.670   3.744 -0.7730  0.5324  0.8535
   27MOL   C67227244   1.036   5.803   3.690  1.0202 -0.2138  0.3105
   27MOL   C67327245   1.131   5.904   3.714  0.1820  0.2340 -0.3749
   27MOL   C67427246   1.223   5.876   3.823  0.2732 -0.4186  0.5221
   27MOL   N67527247   1.299   5.984   3.872  0.1308  0.4581  0.7555
   27MOL   C67627248   1.413   5.980   3.953  0.6426  0.3114 -1.1173
   27MOL   C67727249   1.420   6.048   4.074  0.1742 -0.7109 -0.6086
   27MOL   C67827250   1.534   6.040   4.158 -0.3711 -0.5139  0.3353
   27MOL   C67927251   1.648   5.975   4.112 -0.0190 -0.1300  0.2975
   27MOL   N68027252   1.775   5.973   4.178  0.3824 -0.0209 -0.1695
   27MOL   C68127253   1.795   5.935   4.308 -0.6060 -0.3381 -0.0359
   27MOL   C68227254   1.692   5.901   4.400 -0.7969  0.6152 -0.0902
   27MOL   C68327255   1.729   5.863   4.530 -0.4513 -0.0939 -0.5666
   27MOL   C68427256   1.868   5.854   4.567  0.2159 -0.6198  0.3210
   27MOL   C68527257   1.915   5.821   4.701  1.0298 -0.0106  0.2212
   27MOL   C68627258   1.968   5.897   4.474 -0.2956 -0.5661 -0.4623
   27MOL   C68727259   1.929   5.930   4.347  0.8849  0.4456 -0.0755
   27MOL   C68827260   1.643   5.900   3.990 -0.6991 -0.7009 -0.6685
   27MOL   C68927261   1.525   5.900   3.919 -0.2388 -0.2437 -0.1506
   27MOL   C69027262   1.227   5.752   3.893 -0.6911  0.3590  0.6917
   27MOL   C69127263   1.143   5.650   3.844  0.1701  0.5323 -0.8570
   27MOL   C69227264   0.857   5.416   3.837 -0.0167 -0.5891 -0.0988
   27MOL   C69327265   0.840   5.285   3.882  0.1269  0.3860  0.7457
   27MOL   H69427266   0.979   4.993   3.901  0.0687  0.1318 -0.0953
   27MOL   H69527267   1.059   5.123   3.682  1.4160  1.9542 -2.3234
   27MOL   H69627268   1.091   5.362   3.602 -0.0509  1.4922  0.8646
   27MOL   H69727269   0.889   5.605   3.645  0.5862 -0.3191 -0.0556
   27MOL   H69827270   0.968   5.833   3.611  1.9058  1.9570  0.3186
   27MOL   H69927271   1.109   6.006   3.686  0.8373  0.1894 -1.0518
   27MOL   H70027272   1.257   6.075   3.854  1.9388  0.7301 -2.3818
   27MOL   H70127273   1.342   6.113   4.113  0.3146 -0.9204  0.0125
   27MOL   H70227274   1.542   6.100   4.248  2.7203  1.5951 -1.2454
   27MOL   H70327275   1.855   5.992   4.120  2.1388  0.7002  2.3869
   27MOL   H70427276   1.588   5.890   4.371 -1.0353 -0.7487  1.2468
   27MOL   H70527277   1.651   5.831   4.598 -0.3416 -0.4774 -0.6262
   27MOL   H70627278   1.890   5.903   4.769 -1.2680  0.3607 -0.9983
   27MOL   H70727279   2.024   5.818   4.702  1.1119  0.5438 -2.5141
   27MOL   H70827280   2.072   5.902   4.501 -0.7961  0.1191  1.4030
   27MOL   H70927281   2.007   5.959   4.278  1.3821  0.4595  0.4864
   27MOL   H71027282   1.730   5.843   3.960 -1.6307 -2.9292  0.7626
   27MOL   H71127283   1.520   5.838   3.831 -1.2795  0.4308 -0.5845
   27MOL   H71227284   1.296   5.743   3.975  0.2939 -1.2897 -0.2890
   27MOL   H71327285   1.148   5.555   3.895  0.0332  0.9848  0.0098
   27MOL   H71427286   0.794   5.497   3.871  0.2379 -1.2014  1.9069
   27MOL   H71527287   0.770   5.276   3.964 -0.5222 -0.1380  0.1423
   27MOL   N71627288   1.851   5.698   4.749  0.0879  0.5104 -0.7488
   27MOL   C71727289   1.893   5.564   4.722  0.2796  0.1719  0.7305
   27MOL   C71827290   1.836   5.459   4.796 -0.4946  0.3470  0.1287
   27MOL   C71927291   1.875   5.325   4.771 -0.0983 -1.4921 -0.9207
   27MOL   C72027292   1.974   5.299   4.681  0.5154 -0.1281  0.2293
   27MOL   N72127293   2.008   5.168   4.658 -0.2160 -0.5599 -0.9376
   27MOL   C72227294   2.119   5.108   4.598  0.3456  0.3143  0.5210
   27MOL   C72327295   2.250   5.174   4.599  0.6355  0.0809  0.1991
   27MOL   C72427296   2.358   5.107   4.534 -0.2449  0.1236 -0.7939
   27MOL   C72527297   2.341   4.976   4.480  0.0567 -0.3386 -0.1009
   27MOL   N72627298   2.455   4.908   4.435 -0.2948  0.1334  0.6415
   27MOL   C72727299   2.548   4.951   4.335 -1.1413 -0.4325 -0.9852
   27MOL   C72827300   2.554   5.084   4.287  0.3720 -0.1555 -0.2839
   27MOL   C72927301   2.651   5.124   4.194 -0.3328  0.5028  0.0429
   27MOL   C73027302   2.753   5.037   4.159 -0.0933 -0.8205 -0.1614
   27MOL   N73127303   2.868   5.068   4.080  0.2503  0.0480 -0.3267
   27MOL   C73227304   2.915   5.199   4.045 -0.2440 -0.5909 -0.0081
   27MOL   C73327305   2.965   5.218   3.915 -0.5124  0.1247 -0.3984
   27MOL   C73427306   3.010   5.349   3.871 -0.2691  0.3648  0.0233
   27MOL   C73527307   3.015   5.454   3.965  0.5995 -0.0847  0.1022
   27MOL   C73627308   3.049   5.590   3.914 -0.7538 -0.2002  0.6286
   27MOL   C73727309   2.966   5.431   4.099 -0.2811  0.1244  0.2828
   27MOL   C73827310   2.929   5.300   4.146 -0.1200  0.4703  0.1714
   27MOL   C73927311   2.750   4.906   4.209 -0.3955 -0.7557 -0.2014
   27MOL   C74027312   2.645   4.862   4.289  0.2593 -0.4706 -0.3759
   27MOL   C74127313   2.214   4.911   4.484 -0.6344 -0.2851  0.2634
   27MOL   C74227314   2.104   4.978   4.541 -0.1504 -0.0023 -0.0352
   27MOL   C74327315   2.029   5.401   4.603 -0.1134 -0.1789  0.1419
   27MOL   C74427316   1.994   5.536   4.624 -0.2316 -0.1033  0.5477
   27MOL   H74527317   1.768   5.713   4.805 -0.2027  1.6476 -1.4841
   27MOL   H74627318   1.760   5.477   4.870 -0.3360 -1.0235  0.6463
   27MOL   H74727319   1.832   5.248   4.835 -1.1805  1.5784  2.2195
   27MOL   H74827320   1.938   5.100   4.683  1.7366 -2.3971 -0.3122
   27MOL   H74927321   2.278   5.268   4.643 -0.5591  0.0903  0.9687
   27MOL   H75027322   2.459   5.145   4.547  0.1762 -2.2213  4.2030
   27MOL   H75127323   2.464   4.819   4.482 -2.3176 -0.1120  0.6132
   27MOL   H75227324   2.490   5.161   4.327  0.3198  0.3593 -1.3403
   27MOL   H75327325   2.660   5.230   4.176 -1.8892  0.7225  0.4537
   27MOL   H75427326   2.872   5.002   4.003 -1.6727  0.2503 -0.6172
   27MOL   H75527327   2.954   5.141   3.841  1.1778 -1.2131  0.7155
   27MOL   H75627328   3.035   5.364   3.767 -0.6878 -1.0362 -0.2982
   27MOL   H75727329   3.105   5.580   3.822  0.1884  0.8813  1.0845
   27MOL   H75827330   3.124   5.630   3.982 -0.6310 -0.9927  0.9756
   27MOL   H75927331   2.965   5.501   4.182  2.3631  0.7520 -0.1474
   27MOL   H76027332   2.890   5.285   4.245  1.7765 -0.7007  0.7546
   27MOL   H76127333   2.811   4.821   4.182 -0.5726 -0.9925  0.1451
   27MOL   H76227334   2.653   4.756   4.310  1.6230 -0.3313 -0.1294
   27MOL   H76327335   2.203   4.811   4.445  1.5910 -0.0550 -1.0405
   27MOL   H76427336   2.009   4.928   4.534 -0.8073  0.9305  2.0912
   27MOL   H76527337   2.093   5.370   4.522  0.6827  0.4448  0.5242
   27MOL   H76627338   2.035   5.614   4.561  2.0319  0.1485  2.2476
   27MOL   N76727339   2.932   5.668   3.887 -0.1540 -0.0948  0.0373
   27MOL   C76827340   2.950   5.810   3.905 -0.1121  0.3475  0.4442
   27MOL   C76927341   3.054   5.885   3.847 -0.0972  0.3872 -0.0698
   27MOL   C77027342   3.064   6.026   3.858 -1.0149 -0.0123 -0.3162
   27MOL   C77127343   2.966   6.098   3.934 -0.8487 -0.4060  0.4558
   27MOL   N77227344   2.984   6.236   3.952  0.9149  0.0101 -0.1640
   27MOL   C77327345   2.909   6.337   3.897  0.5587 -0.0844  0.8950
   27MOL   C77427346   2.820   6.311   3.795  0.4197 -0.6284  0.3208
   27MOL   C77527347   2.747   6.414   3.730  0.3429  0.0220  0.4117
   27MOL   C77627348   2.752   6.544   3.784 -0.0088 -0.1829  0.2142
   27MOL   N77727349   2.676   6.649   3.732 -0.0007 -0.0925  0.1027
   27MOL   C77827350   2.623   6.769   3.786  0.1433  0.0290 -0.5835
   27MOL   C77927351   2.582   6.771   3.920  0.5872  0.5904  0.1689
   27MOL   C78027352   2.520   6.884   3.974  0.0568 -0.1810 -0.3190
   27MOL   C78127353   2.489   6.994   3.887  0.0625 -0.3137  0.1211
   27MOL   N78227354   2.414   7.108   3.931 -0.1558 -0.1018 -0.7656
   27MOL   C78327355   2.417   7.172   4.054  0.6481  0.1219 -0.1281
   27MOL   C78427356   2.332   7.286   4.065  0.5177  0.0038 -0.1637
   27MOL   C78527357   2.338   7.358   4.185  0.3309 -0.4676  0.0516
   27MOL   C78627358   2.437   7.328   4.283 -0.4394  0.5082 -0.1257
   27MOL   C78727359   2.458   7.422   4.397  0.1499  0.6100  0.3482
   27MOL   C78827360   2.517   7.217   4.269 -0.1009  0.4330  0.1924
   27MOL   C78927361   2.505   7.133   4.156 -0.3663 -0.3680  0.4775
   27MOL   C79027362   2.532   6.995   3.756 -0.0109  0.0070  0.0709
   27MOL   C79127363   2.601   6.881   3.706 -0.0114 -0.2686  0.1002
   27MOL   C79227364   2.840   6.568   3.893 -0.8012  0.1830 -0.4147
   27MOL   C79327365   2.914   6.462   3.958  0.6169  0.3562  0.2579
   27MOL   C79427366   2.860   6.025   3.991  0.9987 -0.1776 -0.0483
   27MOL   C79527367   2.850   5.884   3.973 -0.2304 -0.1989 -0.2083
   27MOL   H79627368   2.853   5.630   3.938 -1.5492  0.2980 -1.7590
   27MOL   H79727369   3.132   5.828   3.798  0.4197  1.9567 -1.1001
   27MOL   H79827370   3.150   6.081   3.823 -1.6398  0.4373 -1.1648
   27MOL   H79927371   3.002   6.246   4.051 -0.7320 -1.0241  0.2455
   27MOL   H80027372   2.826   6.214   3.747 -0.1874 -0.5473  0.0740
   27MOL   H80127373   2.670   6.391   3.659 -0.3412  0.7681  0.9006
   27MOL   H80227374   2.660   6.631   3.634 -3.2627  1.7208  0.2190
   27MOL   H80327375   2.591   6.683   3.983  1.3994 -0.8984 -1.9465
   27MOL   H80427376   2.489   6.874   4.077  0.3359  2.7563  0.0940
   27MOL   H80527377   2.353   7.143   3.860 -1.1755  0.5197  0.3984
   27MOL   H80627378   2.271   7.314   3.980  0.4241  0.7371  0.1507
   27MOL   H80727379   2.279   7.448   4.199  0.0753 -0.6169 -0.0638
   27MOL   H80827380   2.513   7.514   4.377  1.5653  0.0309  1.4341
   27MOL   H80927381   2.530   7.372   4.463  1.5664 -0.0562 -1.6533
   27MOL   H81027382   2.592   7.197   4.344 -2.7009 -1.5744  2.3415
   27MOL   H81127383   2.580   7.057   4.144  2.5093  2.6661 -2.0519
   27MOL   H81227384   2.530   7.081   3.692  2.7222  0.7356  0.9269
   27MOL   H81327385   2.645   6.896   3.609 -0.6188 -1.8428 -0.4278
   27MOL   H81427386   2.836   6.674   3.911 -2.3989  0.2499 -1.1161
   27MOL   H81527387   2.983   6.480   4.038  2.8647  1.2468 -1.8151
   27MOL   H81627388   2.785   6.080   4.047  2.6273 -1.6203  3.7567
   27MOL   H81727389   2.764   5.831   4.011 -2.0105  2.7409  0.0527
   27MOL   N81827390   2.335   7.455   4.455  0.6858  0.2083  0.2894
   27MOL   C81927391   2.335   7.554   4.552 -0.5670 -0.1159  0.7894
   27MOL   C82027392   2.218   7.617   4.580  0.4763  0.3331 -0.3450
   27MOL   C82127393   2.212   7.726   4.665  0.2824  0.0825 -0.6051
   27MOL   C82227394   2.327   7.758   4.743  0.7152 -0.2142 -0.4629
   27MOL   N82327395   2.319   7.864   4.836  0.5867  0.2257 -0.6939
   27MOL   C82427396   2.309   0.018   4.791 -0.5350 -1.0076 -0.3031
   27MOL   C82527397   2.254   0.119   4.881 -0.4335  0.1610 -0.2971
   27MOL   C82627398   2.269   0.258   4.857  0.0581  0.6103 -0.6854
   27MOL   C82727399   2.322   0.301   4.732 -0.2934 -0.7809  0.6647
   27MOL   N82827400   2.309   0.434   4.694  0.7457 -0.2375  0.2912
   27MOL   C82927401   2.320   0.485   4.561  0.1936 -0.5468  0.3442
   27MOL   C83027402   2.201   0.515   4.490 -0.2965 -0.8892 -0.6574
   27MOL   C83127403   2.203   0.544   4.352 -0.1894 -0.2426 -0.5963
   27MOL   C83227404   2.328   0.533   4.288 -0.4716 -0.0997  0.1498
   27MOL   N83327405   2.338   0.536   4.149  0.4264 -0.0100 -0.3581
   27MOL   C83427406   2.451   0.490   4.081 -0.0110  0.7146  0.8395
   27MOL   C83527407   2.536   0.584   4.027 -0.7393 -0.0090 -0.2544
   27MOL   C83627408   2.655   0.550   3.964  0.3245  0.1013  0.3731
   27MOL   C83727409   2.680   0.414   3.947  0.3193 -0.1156  0.8718
   27MOL   C83827410   2.800   0.368   3.864  0.4571 -0.8719 -0.5695
   27MOL   C83927411   2.593   0.318   3.989 -0.2019  0.3846 -0.2386
   27MOL   C84027412   2.484   0.353   4.071 -0.4295  0.0653  0.8245
   27MOL   C84127413   2.443   0.497   4.362  0.7934  0.8467 -0.6836
   27MOL   C84227414   2.441   0.473   4.500 -0.3906 -1.0943 -0.1179
   27MOL   C84327415   2.378   0.209   4.645 -0.2993  0.9085  0.2145
   27MOL   C84427416   2.373   0.070   4.675  0.2553 -0.0412 -0.2508
   27MOL   C84527417   2.447   7.683   4.725  0.2939 -0.4316 -0.1993
   27MOL   C84627418   2.453   7.588   4.624  0.5742 -0.0654  0.4390
   27MOL   H84727419   2.255   7.442   4.395  0.7422 -1.3273  0.5283
   27MOL   H84827420   2.133   7.594   4.517 -1.0213  0.8953  1.4136
   27MOL   H84927421   2.119   7.780   4.679  0.0932 -0.7402  1.4442
   27MOL   H85027422   2.396   7.860   4.902  0.4568 -1.3902 -0.6088
   27MOL   H85127423   2.211   0.089   4.976 -1.1418  2.2548  0.0584
   27MOL   H85227424   2.235   0.324   4.935 -1.2883  0.2999 -0.9943
   27MOL   H85327425   2.240   0.474   4.757 -0.7337 -1.4140 -0.5810
   27MOL   H85427426   2.100   0.517   4.528 -0.7038 -1.2304 -1.7079
   27MOL   H85527427   2.119   0.567   4.288 -0.3868 -0.7579 -0.5273
   27MOL   H85627428   2.314   0.625   4.109 -0.1707 -0.5967 -1.3356
   27MOL   H85727429   2.501   0.684   4.047  0.4160 -0.0827  2.3840
   27MOL   H85827430   2.720   0.622   3.917 -0.5518 -1.2586 -3.0472
   27MOL   H85927431   2.801   0.435   3.778 -0.6567 -0.7562 -0.4948
   27MOL   H86027432   2.791   0.261   3.842 -0.7932 -1.5334  2.8534
   27MOL   H86127433   2.616   0.214   3.976 -0.2642  0.6606 -2.8038
   27MOL   H86227434   2.406   0.293   4.116  0.1609 -1.6009 -0.3234
   27MOL   H86327435   2.541   0.494   4.317  0.6278 -1.4413 -0.9429
   27MOL   H86427436   2.526   0.442   4.559 -0.1338 -0.1477  0.0170
   27MOL   H86527437   2.436   0.239   4.559  0.8135  0.2707  0.7379
   27MOL   H86627438   2.428   0.001   4.613  0.6700  0.3117 -0.2721
   27MOL   H86727439   2.544   7.702   4.770 -1.6647  2.0392  3.2653
   27MOL   H86827440   2.542   7.527   4.612  0.9802  0.6641 -0.2725
   27MOL   N86927441   2.931   0.393   3.933  0.1231  0.5977 -0.3637
   27MOL   C87027442   3.035   0.325   3.867  0.2198 -0.0264  0.0248
   27MOL   C87127443   3.061   0.342   3.729 -0.3352  0.9617  0.2319
   27MOL   C87227444   3.162   0.259   3.672 -0.2247 -0.6081  0.4284
   27MOL   C87327445   3.238   0.172   3.755  0.2813  0.0538  0.2359
   27MOL   N87427446   3.338   0.089   3.697  0.2923  0.3063 -0.4393
   27MOL   C87527447   3.452   0.027   3.752 -0.7320 -0.4992  0.7472
   27MOL   C87627448   3.448   7.892   3.828  0.2922  0.2342 -0.1623
   27MOL   C87727449   3.572   7.832   3.862 -0.0861 -0.8559  0.5524
   27MOL   C87827450   3.694   7.895   3.833 -0.3973  0.0943 -0.7574
   27MOL   N87927451   3.810   7.826   3.871 -0.4558  0.1497  0.2283
   27MOL   C88027452   3.939   7.874   3.905  0.2323 -0.5920  0.7317
   27MOL   C88127453   3.985   7.833   4.032 -0.4997 -0.5676  1.6918
   27MOL   C88227454   4.107   7.880   4.079  0.0842 -1.0674  0.6250
   27MOL   C88327455   4.182   7.963   3.995 -0.1142  0.4126  0.1110
   27MOL   N88427456   4.308   0.021   4.042 -0.2599  0.0135  0.2673
   27MOL   C88527457   4.417   7.925   4.081 -0.3869 -0.1917 -0.4062
   27MOL   C88627458   4.535   0.016   4.117  0.5910 -0.0124  1.1309
   27MOL   C88727459   4.654   7.933   4.134 -0.0738 -0.7461  0.5603
   27MOL   C88827460   4.663   7.795   4.114  0.3352 -0.2610 -0.3236
   27MOL   C88927461   4.798   7.731   4.127  0.3684 -0.5534 -0.3498
   27MOL   C89027462   4.541   7.724   4.094 -0.3561 -0.3560  0.2409
   27MOL   C89127463   4.423   7.786   4.062 -0.0050  0.8309 -0.0131
   27MOL   C89227464   4.142   0.009   3.860  0.2530 -0.5272  0.1693
   27MOL   C89327465   4.021   7.950   3.812  0.3024  0.0457 -0.4185
   27MOL   C89427466   3.693   0.042   3.771 -0.1258  0.1497 -0.0806
   27MOL   C89527467   3.574   0.091   3.724  0.6646 -0.0651 -0.7032
   27MOL   C89627468   3.219   0.173   3.895 -0.1709 -0.4789 -0.6381
   27MOL   C89727469   3.113   0.244   3.954 -0.1750 -0.0815 -1.1301
   27MOL   H89827470   2.956   0.491   3.932 -0.1584  0.6908  0.7365
   27MOL   H89927471   3.015   0.414   3.663 -0.3592  0.5729 -0.1769
   27MOL   H90027472   3.187   0.260   3.567  1.3144  2.9438  0.7791
   27MOL   H90127473   3.341   0.095   3.596 -1.9857  2.0480 -0.4337
   27MOL   H90227474   3.353   7.844   3.846  0.1160  0.7014  0.1552
   27MOL   H90327475   3.574   7.734   3.907 -0.3501 -0.5204  1.3110
   27MOL   H90427476   3.784   7.737   3.911 -0.3552 -0.6788 -1.5157
   27MOL   H90527477   3.923   7.769   4.092 -3.3375  0.6449  0.1258
   27MOL   H90627478   4.130   7.864   4.183 -1.0949  1.4176  1.2980
   27MOL   H90727479   4.338   0.104   3.993  0.4690  0.8558  2.1106
   27MOL   H90827480   4.526   0.122   4.133 -0.4830 -0.2449  2.0613
   27MOL   H90927481   4.748   0.001   4.153  0.5840 -1.2497 -1.3271
   27MOL   H91027482   4.773   7.632   4.166  0.1066 -1.2413 -2.2029
   27MOL   H91127483   4.855   7.778   4.207  0.6055 -0.8992 -0.3141
   27MOL   H91227484   4.530   7.617   4.084 -0.8723 -0.0881 -2.5538
   27MOL   H91327485   4.331   7.732   4.046  0.1268  0.8859 -0.9525
   27MOL   H91427486   4.205   0.064   3.792  1.3110 -3.4194 -1.2542
   27MOL   H91527487   3.996   7.972   3.709 -1.2093 -1.4662 -0.4025
   27MOL   H91627488   3.790   0.087   3.759 -0.3950  1.6661  2.9405
   27MOL   H91727489   3.575   0.190   3.681  2.2105  0.7603  1.1828
   27MOL   H91827490   3.263   0.102   3.964  1.8078 -0.5044 -1.8985
   27MOL   H91927491   3.092   0.237   4.060 -0.3287 -3.7475 -1.3460
   27MOL   N92027492   4.873   7.712   4.001 -0.4768 -0.5635  0.2329
   27MOL   C92127493   5.016   7.718   4.013  0.7550 -0.8177 -0.4914
   27MOL   C92227494   5.093   7.646   4.103  0.2143  0.1555  0.0203
   27MOL   C92327495   5.229   7.660   4.098  0.3151 -0.8214 -0.5183
   27MOL   C92427496   5.295   7.747   4.006  0.1579 -0.4556  0.5492
   27MOL   N92527497   5.437   7.770   3.997  0.0607  0.4397 -0.2968
   27MOL   C92627498   5.529   7.775   4.103  0.6222  0.3915 -0.7369
   27MOL   C92727499   5.667   7.775   4.070 -0.2538 -0.0169 -0.0782
   27MOL   C92827500   5.764   7.776   4.178 -0.0789  0.2309  1.1395
   27MOL   C92927501   5.731   7.780   4.307  0.6469 -0.5412  0.7579
   27MOL   N93027502   5.815   7.772   4.414 -0.0079 -0.0434 -0.2403
   27MOL   C93127503   5.940   7.832   4.429  0.9001  0.0370 -0.4667
   27MOL   C93227504   5.980   7.953   4.361 -0.1463 -0.8822  0.0005
   27MOL   C93327505   6.114   0.024   4.370 -0.4954  0.3833 -0.8062
   27MOL   C93427506   6.204   7.938   4.460  0.5748 -0.4193  0.0979
   27MOL   N93527507   6.332   0.001   4.464 -0.1836  0.0951 -0.1403
   27MOL   C93627508   6.380   0.128   4.429  0.1683  0.1183  0.1285
   27MOL   C93727509   6.316   0.252   4.450 -0.0904  0.0388 -0.1039
   27MOL   C93827510   6.385   0.373   4.432 -0.0796 -0.2773 -0.3854
   27MOL   C93927511   6.518   0.371   4.374 -0.1816 -0.1700 -0.1401
   27MOL   C94027512   6.608   0.497   4.370  0.8571  0.3627  0.1123
   27MOL   C94127513   6.576   0.248   4.335 -0.3143 -0.1057 -0.1823
   27MOL   C94227514   6.512   0.130   4.380  0.4896 -0.0030  0.0988
   27MOL   C94327515   6.160   7.827   4.538 -0.6135  0.5469  0.2886
   27MOL   C94427516   6.033   7.769   4.517  0.4464  0.4586  0.5083
   27MOL   C94527517   5.594   7.778   4.336  0.0412  0.3665  0.2859
   27MOL   C94627518   5.492   7.784   4.240  0.0277 -0.4346  0.6919
   27MOL   C94727519   5.217   7.826   3.921 -0.0441  0.3384  0.1572
   27MOL   C94827520   5.077   7.807   3.923 -0.7201  0.3247  0.9514
   27MOL   H94927521   4.834   7.754   3.918  1.0279  0.0995 -0.1555
   27MOL   H95027522   5.041   7.587   4.178 -0.4612  2.3563  1.3232
   27MOL   H95127523   5.294   7.612   4.170  0.3989  1.1674  0.7840
   27MOL   H95227524   5.469   7.786   3.903 -0.8988 -0.6219 -0.8176
   27MOL   H95327525   5.693   7.779   3.965 -0.1165  0.7202 -0.0182
   27MOL   H95427526   5.863   7.781   4.135 -0.6440  0.9801 -0.1326
   27MOL   H95527527   5.790   7.700   4.481 -0.3768  0.6143  0.3395
   27MOL   H95627528   5.903   0.027   4.310  1.8208  1.4540 -0.4775
   27MOL   H95727529   6.133   0.115   4.314 -0.7870  1.3693  0.6835
   27MOL   H95827530   6.404   7.917   4.488  0.3312  0.0949 -1.6094
   27MOL   H95927531   6.219   0.254   4.498  0.9744  0.8617  2.1129
   27MOL   H96027532   6.337   0.463   4.466 -0.9938 -1.0243  0.3362
   27MOL   H96127533   6.581   0.566   4.290 -0.6239 -1.0389 -0.6350
   27MOL   H96227534   6.708   0.459   4.347  1.6370  2.3581  0.1007
   27MOL   H96327535   6.676   0.245   4.293 -0.0598  0.4922  0.3700
   27MOL   H96427536   6.576   0.043   4.385 -1.3482 -1.3638  0.2410
   27MOL   H96527537   6.228   7.790   4.612 -0.5077  1.0667  0.4507
   27MOL   H96627538   6.012   7.678   4.572  0.4158  0.2726  0.1913
   27MOL   H96727539   5.566   7.771   4.440 -0.4568  0.0523  0.1320
   27MOL   H96827540   5.390   7.786   4.276 -0.5976 -0.4939 -1.0459
   27MOL   H96927541   5.265   7.894   3.853 -0.5224 -0.1317 -0.6594
   27MOL   H97027542   5.031   7.880   3.858 -1.3224 -1.2848 -0.4596
   27MOL   N97127543   6.611   0.565   4.499 -0.0390  0.0203 -0.2046
   27MOL   C97227544   6.724   0.642   4.526 -0.2059 -0.0364  0.3610
   27MOL   C97327545   6.784   0.719   4.423 -0.5336  0.2539  0.2223
   27MOL   C97427546   6.905   0.791   4.459  1.1095 -0.0027  0.0864
   27MOL   C97527547   6.958   0.779   4.588 -0.2894 -0.9234  0.2680
   27MOL   N97627548   7.078   0.845   4.617 -0.1854 -0.2177  0.5078
   27MOL   C97727549   7.174   0.831   4.712  0.6877  0.3538  0.4677
   27MOL   C97827550   7.239   0.943   4.765 -0.4818 -1.1285  0.6632
   27MOL   C97927551   7.339   0.932   4.857  0.1884  0.2189 -0.0830
   27MOL   C98027552   7.374   0.806   4.903  0.3171 -0.1018 -0.2034
   27MOL   N98127553   7.475   0.801   5.007  0.9665  0.1251  0.3516
   27MOL   C98227554   7.456   0.821   5.147 -0.4312  0.1006  0.2945
   27MOL   C98327555   7.336   0.793   5.213  0.6002 -0.0685  0.3559
   27MOL   C98427556   7.329   0.805   5.356  0.2577 -0.6524 -0.0162
   27MOL   C98527557   7.444   0.844   5.427  0.1675 -0.5664 -0.4767
   27MOL   N98627558   7.437   0.837   5.566  0.0638 -0.3008 -0.0102
   27MOL   C98727559   7.515   0.905   5.663  0.1793 -0.4660 -0.3685
   27MOL   C98827560   7.560   1.038   5.647 -0.0944  0.3762  0.7038
   27MOL   C98927561   7.637   1.107   5.751 -0.3740  0.3676 -0.5215
   27MOL   C99027562   7.653   1.050   5.883 -0.4206 -0.3146 -0.5379
   27MOL   C99127563   7.733   1.132   5.983  0.9048  0.1004  0.1442
   27MOL   C99227564   7.596   0.919   5.901  0.3528 -0.7103 -0.5464
   27MOL   C99327565   7.534   0.852   5.793 -0.2347 -0.4537 -0.1225
   27MOL   C99427566   7.560   0.879   5.358  0.7114  0.3629 -0.2714
   27MOL   C99527567   7.561   0.871   5.220 -0.4708 -0.2397 -0.2550
   27MOL   C99627568   7.311   0.694   4.852  0.4069  0.2746 -0.2564
   27MOL   C99727569   7.199   0.706   4.767 -0.3572  0.3046  0.1561
   27MOL   C99827570   6.897   0.709   4.689  0.2828  0.3476  0.6764
   27MOL   C99927571   6.773   0.649   4.656 -0.4243  0.1267 -0.2108
   27MOL     H127572   6.562   0.511   4.569  3.4161 -1.1714  1.4335
   27MOL     H227573   6.750   0.721   4.321  1.5911  0.9778 -0.5059
   27MOL     H327574   6.955   0.843   4.379  2.4744 -0.6932  0.4642
   27MOL     H427575   7.100   0.913   4.545 -0.2296  1.0303  1.6503
   27MOL     H527576   7.207   1.043   4.739  0.9981 -0.7820  0.0970
   27MOL     H627577   7.388   1.021   4.894  0.2450  1.8179 -3.8510
   27MOL     H727578   7.569   0.803   4.971  1.5865 -0.7027  1.8638
   27MOL     H827579   7.251   0.756   5.157  0.0954  2.0064 -0.3156
   27MOL     H927580   7.231   0.783   5.395 -0.2436  0.6791 -0.5206
   27MOL    H1027581   7.384   0.754   5.589  0.5245 -0.6841 -0.3364
   27MOL    H1127582   7.556   1.094   5.554  0.6883  1.1488  1.1274
   27MOL    H1227583   7.677   1.205   5.730 -1.3873  1.2346  1.4641
   27MOL    H1327584   7.670   1.203   6.035 -0.3420  0.4339 -1.7752
   27MOL    H1427585   7.792   1.210   5.936 -0.2348  0.0295 -1.4584
   27MOL    H1527586   7.597   0.871   5.998 -0.8038  1.0808  0.3856
   27MOL    H1627587   7.504   0.750   5.809  1.3714 -1.0422 -0.8181
   27MOL    H1727588   7.649   0.897   5.418  0.7033 -2.3436  0.6136
   27MOL    H1827589   7.656   0.894   5.176 -0.7498  1.6472  0.0855
   27MOL    H1927590   7.337   0.597   4.892 -0.0433  0.8375  1.4215
   27MOL    H2027591   7.149   0.621   4.723  1.3138 -0.4448 -0.3496
   27MOL    H2127592   6.938   0.707   4.789  0.5264  1.2404  0.5962
   27MOL    H2227593   6.734   0.591   4.738  0.3127 -1.2275 -0.7994
   27MOL    H2327594   7.780   1.071   6.060  1.4468 -0.1110 -0.3478
   28MOL     N127595   0.749   5.036   0.689  0.7846 -0.4492  0.4764
   28MOL     C227596   0.727   5.105   0.806 -0.2893 -0.4369 -0.0208
   28MOL     C327597   0.829   5.125   0.895  0.0504  0.0380 -0.1180
   28MOL     C427598   0.799   5.180   1.024  0.6199 -0.0974  0.0973
   28MOL     C527599   0.669   5.231   1.056 -0.2854 -0.0880  0.5639
   28MOL     N627600   0.655   5.300   1.176  0.7078  0.5846 -0.9158
   28MOL     C727601   0.538   5.330   1.248  0.1123  0.3257  0.3028
   28MOL     C827602   0.425   5.246   1.253  0.1160  0.2359  0.5002
   28MOL     C927603   0.309   5.280   1.317  0.1877 -0.5982  0.6731
   28MOL    C1027604   0.299   5.417   1.360 -0.0979  0.1436  0.9414
   28MOL    N1127605   0.175   5.453   1.410 -0.1971 -1.0046 -0.7974
   28MOL    C1227606   0.103   5.573   1.403  0.3222 -0.4165 -0.8602
   28MOL    C1327607   0.123   5.648   1.294  0.3726 -0.5326  0.4270
   28MOL    C1427608   0.045   5.769   1.285 -0.4454 -0.0855 -0.3154
   28MOL    C1527609   7.940   5.806   1.390 -0.1111  0.1388 -0.7973
   28MOL    N1627610   7.861   5.915   1.377  0.6703 -0.4238 -0.1981
   28MOL    C1727611   7.744   5.923   1.298 -0.6592  0.5539 -0.3915
   28MOL    C1827612   7.712   5.832   1.189 -0.0029  0.6353  0.7374
   28MOL    C1927613   7.594   5.843   1.114  0.2194  1.1112 -0.5094
   28MOL    C2027614   7.498   5.940   1.144 -0.1279  0.3218  0.1356
   28MOL    C2127615   7.364   5.945   1.067  0.9104  0.5415  0.4160
   28MOL    C2227616   7.525   6.020   1.259 -0.7849 -0.6923 -0.2047
   28MOL    C2327617   7.645   6.017   1.329  0.4358 -0.1187 -0.0896
   28MOL    C2427618   7.934   5.725   1.505  0.0004 -0.7067 -0.3008
   28MOL    C2527619   0.019   5.605   1.509  0.4595  0.8873 -0.0786
   28MOL    C2627620   0.403   5.507   1.343  0.1801 -0.7854 -0.1126
   28MOL    C2727621   0.527   5.464   1.295 -0.9218  0.5059 -0.2602
   28MOL    C2827622   0.569   5.214   0.963  0.3742 -0.2394 -0.1952
   28MOL    C2927623   0.592   5.138   0.844 -0.3134 -0.2974 -0.5242
   28MOL    H3027624   0.846   5.007   0.682  0.6354 -1.0714  0.9066
   28MOL    H3127625   0.930   5.094   0.872 -0.3775 -2.7776  1.5855
   28MOL    H3227626   0.882   5.181   1.093  0.7357 -0.0673 -0.0423
   28MOL    H3327627   0.741   5.294   1.229  0.2211 -0.1781 -0.1954
   28MOL    H3427628   0.440   5.151   1.204 -0.7103 -0.7623  2.1325
   28MOL    H3527629   0.225   5.212   1.316 -0.5972  0.3547  0.4841
   28MOL    H3627630   0.131   5.375   1.457  1.8111 -0.0469  2.8356
   28MOL    H3727631   0.192   5.617   1.216  1.1345 -0.9317  1.2523
   28MOL    H3827632   0.037   5.838   1.202  1.1938  0.8829  0.3106
   28MOL    H3927633   7.848   5.974   1.458 -2.5432 -0.3523 -0.6920
   28MOL    H4027634   7.772   5.747   1.161 -3.2443 -0.9672 -1.7184
   28MOL    H4127635   7.583   5.776   1.030  2.2395 -0.6411  0.5767
   28MOL    H4227636   7.339   6.048   1.042  2.3780  1.1649  1.4506
   28MOL    H4327637   7.296   5.918   1.148  1.9531 -0.3198  1.0219
   28MOL    H4427638   7.452   6.089   1.299  0.1640 -1.4128  2.8839
   28MOL    H4527639   7.657   6.088   1.409  0.2169  0.0183 -0.1762
   28MOL    H4627640   7.884   5.758   1.595  0.8550 -0.3362  0.0503
   28MOL    H4727641   0.019   5.545   1.599  3.2225 -1.7145 -1.7043
   28MOL    H4827642   0.390   5.607   1.380  0.0517 -0.8228 -0.0571
   28MOL    H4927643   0.607   5.534   1.278  0.5812 -1.5736 -1.9477
   28MOL    H5027644   0.469   5.253   0.976  0.3685 -1.1174  2.5927
   28MOL    H5127645   0.512   5.112   0.776 -0.5475  1.8166 -1.0847
   28MOL    H5227646   0.686   4.960   0.665  1.1242 -1.0160  1.3367
   28MOL    N5327647   7.350   5.851   0.957 -0.0920 -0.0480  0.2050
   28MOL    C5427648   7.225   5.843   0.888  0.0430 -0.0107 -0.1013
   28MOL    C5527649   7.194   5.731   0.815 -0.2432  0.2589 -0.1237
   28MOL    C5627650   7.076   5.713   0.738  0.8451 -1.0313 -0.0808
   28MOL    C5727651   6.979   5.812   0.749  0.0499 -0.1227 -0.0385
   28MOL    N5827652   6.851   5.799   0.691  0.2485 -0.4875 -0.2610
   28MOL    C5927653   6.762   5.702   0.737  0.5226 -0.1857 -0.4181
   28MOL    C6027654   6.637   5.682   0.668 -0.3040  0.1655 -0.7931
   28MOL    C6127655   6.546   5.587   0.720  0.6219 -0.1792  0.1666
   28MOL    C6227656   6.578   5.506   0.830 -0.0692  0.6052  0.0621
   28MOL    N6327657   6.502   5.396   0.860  0.2128 -0.0253 -0.0423
   28MOL    C6427658   6.364   5.374   0.850  0.2848 -0.4215  0.3587
   28MOL    C6527659   6.311   5.243   0.823 -1.1410 -0.3298  0.9422
   28MOL    C6627660   6.172   5.224   0.811 -0.3018  0.0840 -0.3043
   28MOL    C6727661   6.084   5.336   0.795  0.1362 -1.0541  0.1945
   28MOL    N6827662   5.943   5.313   0.784  0.4804  0.6003  0.1290
   28MOL    C6927663   5.842   5.403   0.743 -0.6190  0.7040  0.2744
   28MOL    C7027664   5.719   5.384   0.798  0.1163  0.0057  0.5169
   28MOL    C7127665   5.614   5.480   0.776 -0.1758 -0.0359  0.2512
   28MOL    C7227666   5.640   5.584   0.687 -0.6011  0.3006 -0.2599
   28MOL    C7327667   5.521   5.676   0.647  0.2884  0.0293  0.1939
   28MOL    C7427668   5.764   5.597   0.623 -0.2615  0.1374  0.4411
   28MOL    C7527669   5.873   5.512   0.655  0.4110 -0.3517  0.2688
   28MOL    C7627670   6.136   5.461   0.822 -0.3183 -0.3218 -0.7894
   28MOL    C7727671   6.273   5.481   0.848 -0.1912  0.4696 -0.3955
   28MOL    C7827672   6.700   5.533   0.898  0.3892  0.6404 -0.0405
   28MOL    C7927673   6.785   5.636   0.861 -0.0472 -0.2657  0.4132
   28MOL    C8027674   6.998   5.929   0.824 -0.0850 -0.2016  0.4957
   28MOL    C8127675   7.122   5.942   0.894 -0.3736  0.4179 -0.4843
   28MOL    H8227676   7.390   5.761   0.976 -1.3317 -0.3651  1.4147
   28MOL    H8327677   7.266   5.650   0.814 -0.3096  0.1196  2.4335
   28MOL    H8427678   7.060   5.628   0.673 -3.9730  0.0707 -0.5519
   28MOL    H8527679   6.804   5.883   0.661 -0.5115 -0.0328  2.1113
   28MOL    H8627680   6.603   5.735   0.580 -1.7319  0.3740 -0.1387
   28MOL    H8727681   6.453   5.563   0.671 -0.8596  1.6018  2.0091
   28MOL    H8827682   6.545   5.322   0.914  0.1238  0.6659  0.9881
   28MOL    H8927683   6.366   5.150   0.824  0.4353  0.5890  1.0409
   28MOL    H9027684   6.140   5.123   0.792  1.5004 -0.5385 -0.0770
   28MOL    H9127685   5.909   5.224   0.817  3.1333 -1.2710 -1.8814
   28MOL    H9227686   5.700   5.298   0.860  0.3564 -0.4288 -0.0107
   28MOL    H9327687   5.519   5.465   0.823 -0.4246 -0.0406 -0.2489
   28MOL    H9427688   5.433   5.676   0.710 -0.3805 -1.4129 -0.7358
   28MOL    H9527689   5.484   5.631   0.555  0.8196  0.4863 -0.2481
   28MOL    H9627690   5.781   5.679   0.555 -1.1291  0.7670  0.9608
   28MOL    H9727691   5.973   5.528   0.617  0.4117 -1.4806 -0.2315
   28MOL    H9827692   6.075   5.550   0.826  0.3464  0.0368  2.6227
   28MOL    H9927693   6.304   5.584   0.861 -0.8286  0.4380  1.5326
   28MOL   H10027694   6.727   5.475   0.986 -0.0886 -0.9329 -0.9153
   28MOL   H10127695   6.871   5.651   0.924  0.8773 -0.3607 -0.8235
   28MOL   H10227696   6.933   6.015   0.822  0.3964  0.1280 -0.9651
   28MOL   H10327697   7.124   6.026   0.962 -0.8466 -1.1825  1.5926
   28MOL   N10427698   5.564   5.809   0.603  0.0231 -0.3977  0.2732
   28MOL   C10527699   5.492   5.908   0.669 -0.0958  0.3720  0.2480
   28MOL   C10627700   5.487   5.907   0.811 -0.0584  0.1968  0.6977
   28MOL   C10727701   5.427   6.011   0.878  0.2794 -0.8884  0.1392
   28MOL   C10827702   5.368   6.120   0.804 -0.3041  0.3583 -0.7855
   28MOL   N10927703   5.305   6.217   0.877  0.1161  0.1317  0.3357
   28MOL   C11027704   5.271   6.347   0.841 -0.0452  1.4177  0.2700
   28MOL   C11127705   5.158   6.358   0.754  0.1165 -0.1480 -0.3206
   28MOL   C11227706   5.096   6.487   0.752  0.9668  0.0982  0.2006
   28MOL   C11327707   5.148   6.597   0.820  0.3742 -0.3099  0.0556
   28MOL   N11427708   5.066   6.710   0.822 -0.7808 -0.5565 -0.1247
   28MOL   C11527709   5.075   6.823   0.900 -0.1115 -0.5388  0.2194
   28MOL   C11627710   5.049   6.949   0.847 -0.0913 -0.0587  0.5796
   28MOL   C11727711   5.043   7.065   0.927  0.1252  0.7293  0.0355
   28MOL   C11827712   5.067   7.060   1.062 -0.7583  0.1752  1.1148
   28MOL   N11927713   5.056   7.168   1.153  0.1894 -0.1849 -0.1719
   28MOL   C12027714   5.049   7.302   1.118 -0.7193 -0.1699  0.0221
   28MOL   C12127715   5.142   7.362   1.030  0.1175  0.5501 -0.7835
   28MOL   C12227716   5.132   7.499   1.006 -0.3100  0.5742 -0.1585
   28MOL   C12327717   5.035   7.583   1.071 -0.7326  0.2606 -0.0917
   28MOL   C12427718   5.038   7.731   1.045  0.1614 -0.2199  0.6666
   28MOL   C12527719   4.950   7.521   1.168  0.3286 -0.2505 -0.3757
   28MOL   C12627720   4.958   7.383   1.189 -0.5768  0.3322 -0.7488
   28MOL   C12727721   5.087   6.933   1.115 -0.3705 -0.6707  0.3565
   28MOL   C12827722   5.094   6.817   1.039  0.7187  0.4959  0.2287
   28MOL   C12927723   5.265   6.581   0.891 -0.4867  1.0125  0.1726
   28MOL   C13027724   5.327   6.455   0.903 -0.0853  0.4710  0.0275
   28MOL   C13127725   5.373   6.119   0.664 -0.0318 -0.0316  0.4376
   28MOL   C13227726   5.436   6.015   0.598 -0.1060  0.6207  0.7530
   28MOL   H13327727   5.583   5.835   0.507  1.5923  3.1480  1.4777
   28MOL   H13427728   5.533   5.825   0.864  0.3459 -0.2970 -0.4053
   28MOL   H13527729   5.428   6.016   0.986 -0.1708  0.0500  0.1070
   28MOL   H13627730   5.324   6.221   0.976  4.3067  1.7250 -0.3979
   28MOL   H13727731   5.122   6.278   0.691 -0.4392  1.1929 -1.7284
   28MOL   H13827732   5.006   6.498   0.692  1.0502  1.8031  0.3582
   28MOL   H13927733   5.007   6.713   0.739 -1.8915  0.6208  0.6890
   28MOL   H14027734   5.031   6.953   0.741 -2.8753 -1.0833  0.9825
   28MOL   H14127735   5.029   7.161   0.880 -0.1586  1.0439  0.7583
   28MOL   H14227736   5.029   7.139   1.246 -0.0938 -2.9724 -1.0729
   28MOL   H14327737   5.218   7.298   0.987  1.4988  2.2417 -0.8962
   28MOL   H14427738   5.217   7.532   0.949  0.2012  1.3018  1.0028
   28MOL   H14527739   5.128   7.767   1.095  0.6344 -0.9945  0.3982
   28MOL   H14627740   4.962   7.791   1.093 -0.3836 -0.3914  0.0302
   28MOL   H14727741   4.878   7.575   1.227  0.8240  0.8072 -0.7141
   28MOL   H14827742   4.891   7.338   1.261  0.0693 -0.3701 -0.5839
   28MOL   H14927743   5.090   6.919   1.222 -1.7013 -2.2443  0.2116
   28MOL   H15027744   5.100   6.721   1.088  1.2251 -0.8426 -2.3447
   28MOL   H15127745   5.310   6.657   0.953  2.7153 -0.7375  0.1061
   28MOL   H15227746   5.415   6.443   0.965 -0.1765 -0.3340  0.0047
   28MOL   H15327747   5.336   6.198   0.599  1.8808  0.4850 -0.0711
   28MOL   H15427748   5.429   6.014   0.490 -0.9062  0.7501  0.8023
   28MOL   N15527749   5.053   7.770   0.910  0.4737 -0.4282 -0.2781
   28MOL   C15627750   4.960   7.736   0.810  0.8077 -0.0486  0.1290
   28MOL   C15727751   4.840   7.663   0.818  0.0352  0.2640 -0.5166
   28MOL   C15827752   4.763   7.630   0.705 -0.2343 -0.2702 -0.4897
   28MOL   C15927753   4.808   7.669   0.575 -0.1556 -0.1360  0.0181
   28MOL   N16027754   4.755   7.626   0.456 -0.1960  0.1710 -0.3087
   28MOL   C16127755   4.620   7.636   0.415 -0.2083  0.0256  0.1647
   28MOL   C16227756   4.600   7.658   0.280 -0.1600 -0.1962 -0.2959
   28MOL   C16327757   4.470   7.685   0.232 -0.0920 -0.4165 -0.6351
   28MOL   C16427758   4.354   7.694   0.315  0.6444  0.2370 -0.0836
   28MOL   N16527759   4.224   7.720   0.268 -0.3615  0.5404  0.0658
   28MOL   C16627760   4.167   7.682   0.143  0.3821  0.4184 -0.1766
   28MOL   C16727761   4.074   7.775   0.098  0.1065 -0.2846  0.1231
   28MOL   C16827762   4.009   7.755   7.960 -0.3402 -0.2611 -0.1035
   28MOL   C16927763   4.040   7.648   7.874  0.1490 -0.1887  0.0887
   28MOL   N17027764   3.988   7.623   7.743 -0.2890 -0.2507  0.9774
   28MOL   C17127765   3.916   7.715   7.664 -0.8062  0.3764  0.0035
   28MOL   C17227766   3.816   7.666   7.577 -0.3444  0.2241  0.1822
   28MOL   C17327767   3.745   7.750   7.492 -0.1038  0.1309  0.7436
   28MOL   C17427768   3.758   7.887   7.505  0.2893 -0.0188 -0.2529
   28MOL   C17527769   3.686   7.982   7.422  0.2257 -0.4753 -0.0571
   28MOL   C17627770   3.856   7.937   7.589 -0.4072  0.3887  0.2783
   28MOL   C17727771   3.944   7.850   7.666 -0.7740  0.1606  0.2769
   28MOL   C17827772   4.136   7.555   7.917  0.1750  0.5392 -0.2027
   28MOL   C17927773   4.201   7.567   0.065  0.1943 -0.4592  0.3252
   28MOL   C18027774   4.380   7.679   0.452 -0.1505 -0.7883  0.8711
   28MOL   C18127775   4.510   7.649   0.508 -0.0666 -0.3876 -0.6870
   28MOL   C18227776   4.927   7.743   0.564  0.3348 -0.8960 -0.2691
   28MOL   C18327777   5.006   7.768   0.678  0.3671  0.0581 -0.7281
   28MOL   H18427778   5.146   7.799   0.884  0.4416 -0.9878 -1.0195
   28MOL   H18527779   4.795   7.634   0.912  1.2807  1.6605  0.5517
   28MOL   H18627780   4.675   7.574   0.732 -0.8515  0.2286 -1.4214
   28MOL   H18727781   4.816   7.627   0.376 -0.6632 -1.7691 -0.7191
   28MOL   H18827782   4.679   7.648   0.208 -0.2684  0.5771 -0.5318
   28MOL   H18927783   4.441   7.707   0.131 -1.3369  1.4642  0.1073
   28MOL   H19027784   4.152   7.761   0.327 -1.1261  0.8298 -1.0312
   28MOL   H19127785   4.048   7.858   0.162 -0.3077 -0.0215 -0.3766
   28MOL   H19227786   3.927   7.821   7.934  1.3695  1.9232 -0.0962
   28MOL   H19327787   3.993   7.526   7.717  1.8757  0.5234 -1.6679
   28MOL   H19427788   3.811   7.558   7.570  2.8754  0.0929 -1.3289
   28MOL   H19527789   3.663   7.707   7.436  1.0652 -0.4501 -0.5707
   28MOL   H19627790   3.614   7.931   7.358  1.7076 -0.4561 -1.7723
   28MOL   H19727791   3.757   0.046   7.353 -1.5335  0.5718 -1.1971
   28MOL   H19827792   3.873   0.061   7.598 -0.3969  0.5643 -1.6426
   28MOL   H19927793   4.032   7.889   7.715  0.6941 -1.1113 -1.3077
   28MOL   H20027794   4.164   7.468   7.860  1.8856  1.2086 -0.3977
   28MOL   H20127795   4.279   7.502   0.101  0.7486 -0.9191 -1.6117
   28MOL   H20227796   4.297   7.684   0.521 -0.7335  1.9372  0.0275
   28MOL   H20327797   4.515   7.639   0.615 -0.7834 -1.7603 -0.7622
   28MOL   H20427798   4.970   7.770   0.469 -1.0181 -0.0694 -0.6540
   28MOL   H20527799   5.097   7.823   0.659 -0.6604  2.4587  0.9969
   28MOL   N20627800   3.602   0.097   7.484  0.1926  0.0359  0.0853
   28MOL   C20727801   3.596   0.215   7.415 -0.7449 -0.3932 -0.0490
   28MOL   C20827802   3.568   0.221   7.277  0.1503 -0.2798 -0.0877
   28MOL   C20927803   3.576   0.342   7.209 -0.0823  0.4583 -0.5606
   28MOL   C21027804   3.622   0.456   7.280  0.1768  0.4167  0.5060
   28MOL   N21127805   3.669   0.562   7.204  0.5033 -0.0784 -0.0691
   28MOL   C21227806   3.687   0.687   7.247  0.4108  0.0643 -0.2110
   28MOL   C21327807   3.605   0.784   7.183  0.4014  0.6421 -0.1801
   28MOL   C21427808   3.619   0.919   7.228 -0.1346  1.0080  0.3281
   28MOL   C21527809   3.711   0.954   7.333  1.1613 -0.4206 -0.5548
   28MOL   N21627810   3.709   1.082   7.398  0.1369 -0.1272  0.7197
   28MOL   C21727811   3.624   1.184   7.375 -0.3905 -0.4201 -0.2046
   28MOL   C21827812   3.664   1.320   7.357  0.1973  0.6860 -0.3699
   28MOL   C21927813   3.563   1.418   7.334 -0.5146 -0.3242  0.0079
   28MOL   C22027814   3.424   1.384   7.322 -0.0487 -0.2195  0.2331
   28MOL   N22127815   3.319   1.474   7.300 -0.2881 -0.0963 -0.6546
   28MOL   C22227816   3.340   1.609   7.251 -0.2889 -1.0338 -0.2202
   28MOL   C22327817   3.431   1.636   7.149  0.5659 -0.0531  0.5425
   28MOL   C22427818   3.447   1.770   7.111  0.1541 -0.2310  0.2232
   28MOL   C22527819   3.380   1.880   7.169 -0.3907 -0.2788  0.4928
   28MOL   C22627820   3.405   2.022   7.125  0.3299  0.3525 -0.4597
   28MOL   C22727821   3.293   1.849   7.270  0.1286 -0.6823 -0.2399
   28MOL   C22827822   3.273   1.717   7.315 -0.2446 -0.8947  0.0771
   28MOL   C22927823   3.393   1.249   7.349  0.3458  0.4282  0.6397
   28MOL   C23027824   3.488   1.154   7.382  0.0279  0.2398  0.2411
   28MOL   C23127825   3.796   0.856   7.379 -0.1262 -0.3137  0.1261
   28MOL   C23227826   3.789   0.723   7.331  0.0916  0.4275 -0.3844
   28MOL   C23327827   3.640   0.451   7.418 -0.2868  0.5083  0.2272
   28MOL   C23427828   3.611   0.335   7.488 -0.2173 -0.7947 -0.1999
   28MOL   H23527829   3.594   0.101   7.585  4.1289 -1.4260  0.5602
   28MOL   H23627830   3.547   0.127   7.227  0.5735  0.3226 -1.4297
   28MOL   H23727831   3.563   0.344   7.102  1.9959  3.4652 -0.8348
   28MOL   H23827832   3.632   0.554   7.110  0.0916 -0.2143  0.1015
   28MOL   H23927833   3.530   0.765   7.108  0.4844 -0.2941 -0.0396
   28MOL   H24027834   3.553   0.993   7.186  0.0240  1.7186  1.3053
   28MOL   H24127835   3.784   1.107   7.460 -0.2246  3.0619 -0.0114
   28MOL   H24227836   3.769   1.346   7.360  0.4146 -0.1570 -0.6103
   28MOL   H24327837   3.599   1.519   7.323 -2.6362  0.5235  0.5944
   28MOL   H24427838   3.233   1.455   7.351 -0.4048 -1.9773 -1.5075
   28MOL   H24527839   3.494   1.559   7.107  4.0516  0.5937  4.2381
   28MOL   H24627840   3.525   1.790   7.039 -2.0051  2.1428 -1.5395
   28MOL   H24727841   3.498   2.034   7.070  0.6987  1.4290  0.3864
   28MOL   H24827842   3.402   2.082   7.216 -3.5631 -2.0074  1.1244
   28MOL   H24927843   3.236   1.931   7.311  0.8081 -1.3333  2.0374
   28MOL   H25027844   3.207   1.708   7.400 -0.3144 -1.9203 -0.0813
   28MOL   H25127845   3.291   1.216   7.351  0.4934  0.0449  3.1050
   28MOL   H25227846   3.456   1.054   7.405  0.9937  0.0556  0.8041
   28MOL   H25327847   3.860   0.880   7.463 -0.1117  1.0149 -0.2625
   28MOL   H25427848   3.863   0.653   7.368  1.5054  2.0884  0.0014
   28MOL   H25527849   3.677   0.538   7.472 -0.8830  1.4087 -0.8002
   28MOL   H25627850   3.619   0.335   7.596  1.0732  1.9924 -0.2400
   28MOL   N25727851   3.311   2.076   7.037  0.6186  0.0411 -0.3198
   28MOL   C25827852   3.292   2.213   7.055  0.1971 -0.2925  0.7075
   28MOL   C25927853   3.389   2.306   7.101  0.6674 -0.3687  0.4801
   28MOL   C26027854   3.349   2.434   7.129 -0.3881  0.2045 -0.0412
   28MOL   C26127855   3.219   2.484   7.101  0.2871  0.3346  0.9388
   28MOL   N26227856   3.195   2.615   7.145 -0.0378  0.3052  0.4252
   28MOL   C26327857   3.085   2.695   7.110  0.0178  0.5093  0.3154
   28MOL   C26427858   3.026   2.767   7.213  0.1997  0.4720  0.0822
   28MOL   C26527859   2.907   2.843   7.183 -0.2700  0.7832  0.0201
   28MOL   C26627860   2.853   2.844   7.052  0.4963 -0.1539 -0.6397
   28MOL   N26727861   2.727   2.911   7.030 -0.3960  0.4419  0.6511
   28MOL   C26827862   2.678   2.960   6.908  0.1198  0.1264  0.4485
   28MOL   C26927863   2.751   3.036   6.813 -0.2377  0.1995  0.0848
   28MOL   C27027864   2.691   3.086   6.692 -0.5035 -0.2279 -0.4450
   28MOL   C27127865   2.552   3.055   6.671  0.1916 -0.0407 -0.9567
   28MOL   N27227866   2.486   3.067   6.545 -0.1571  0.3060  0.0287
   28MOL   C27327867   2.543   3.074   6.414 -0.2120  0.1245 -0.6455
   28MOL   C27427868   2.469   3.143   6.314 -0.6452 -0.4350 -0.5200
   28MOL   C27527869   2.521   3.159   6.187  0.0482 -0.1202 -0.6037
   28MOL   C27627870   2.649   3.106   6.158 -0.0867 -0.6417  0.1671
   28MOL   C27727871   2.713   3.136   6.020  0.4820  0.1680 -0.3082
   28MOL   C27827872   2.722   3.040   6.260 -0.3525 -0.2878 -0.2437
   28MOL   C27927873   2.670   3.014   6.384  0.6946  0.7999 -0.3631
   28MOL   C28027874   2.476   2.998   6.771 -0.4018  0.5538 -0.3552
   28MOL   C28127875   2.538   2.953   6.886 -0.0433  0.0501 -0.5695
   28MOL   C28227876   2.932   2.778   6.951  0.0974  0.1170  0.2849
   28MOL   C28327877   3.044   2.702   6.981  0.6521  0.2067 -0.1136
   28MOL   C28427878   3.125   2.395   7.046 -0.0594 -0.6567  0.3127
   28MOL   C28527879   3.164   2.262   7.025  0.6020 -0.6824 -0.0579
   28MOL   H28627880   3.233   2.018   7.009 -0.1232  0.1847  1.3844
   28MOL   H28727881   3.493   2.286   7.124  1.0733  0.5551 -0.5248
   28MOL   H28827882   3.423   2.505   7.164 -0.5715 -0.5013  1.8315
   28MOL   H28927883   3.266   2.658   7.203  1.0174  2.7227 -2.5375
   28MOL   H29027884   3.059   2.767   7.316  1.0985  0.5728 -0.2041
   28MOL   H29127885   2.869   2.899   7.268 -0.3767  0.4027  0.2238
   28MOL   H29227886   2.689   2.952   7.114 -0.6382 -1.3490  1.4453
   28MOL   H29327887   2.858   3.037   6.829 -0.0023 -1.0150 -1.2836
   28MOL   H29427888   2.748   3.121   6.608  0.3214  0.0254  0.2111
   28MOL   H29527889   2.394   3.107   6.554  0.9383  2.8259  0.3438
   28MOL   H29627890   2.370   3.175   6.342  0.0136  1.6889 -0.5565
   28MOL   H29727891   2.472   3.217   6.109  0.0933  0.5272 -0.1555
   28MOL   H29827892   2.804   3.192   6.039 -0.1694  1.3747 -0.6536
   28MOL   H29927893   2.654   3.210   5.965 -2.0214 -0.8231  0.9401
   28MOL   H30027894   2.823   3.012   6.236  0.1350  2.5686 -1.8033
   28MOL   H30127895   2.715   2.934   6.441 -1.2630  0.4306  0.6851
   28MOL   H30227896   2.370   2.983   6.759 -0.2019 -0.7841 -0.6139
   28MOL   H30327897   2.484   2.899   6.962  1.4035  2.9562  2.6597
   28MOL   H30427898   2.884   2.784   6.855 -2.9456  3.5490  1.9037
   28MOL   H30527899   3.098   2.647   6.905 -0.2861  0.7785 -1.2199
   28MOL   H30627900   3.023   2.425   7.028  0.3532  0.9652  0.5859
   28MOL   H30727901   3.084   2.200   6.988  0.2000 -1.3406  1.8549
   28MOL   N30827902   2.734   3.020   5.935 -0.4383 -0.5365  0.3495
   28MOL   C30927903   2.623   2.945   5.899  0.0975  1.4018  0.7823
   28MOL   C31027904   2.638   2.809   5.870 -0.0875 -0.0821  0.2516
   28MOL   C31127905   2.523   2.732   5.832 -0.0919  0.0134  0.6814
   28MOL   C31227906   2.396   2.785   5.828  0.1514  1.4923  0.2923
   28MOL   N31327907   2.287   2.704   5.797  0.2057  0.3800  0.0769
   28MOL   C31427908   2.171   2.670   5.865 -0.6576 -0.1293  0.1088
   28MOL   C31527909   2.148   2.711   6.000 -0.1953 -0.4162  0.4800
   28MOL   C31627910   2.019   2.705   6.058 -0.3173 -0.2265  0.8655
   28MOL   C31727911   1.919   2.624   5.997 -1.0865 -0.0393  0.5661
   28MOL   N31827912   1.800   2.598   6.060  0.5497  0.5361  0.3575
   28MOL   C31927913   1.748   2.470   6.090  0.0400  0.6713 -0.7703
   28MOL   C32027914   1.833   2.360   6.108  0.8721 -0.1817  0.1796
   28MOL   C32127915   1.792   2.238   6.166 -0.1303 -0.1755 -0.5169
   28MOL   C32227916   1.655   2.217   6.203  0.0217  0.3069  0.4443
   28MOL   N32327917   1.622   2.108   6.281 -0.3815 -0.2557 -0.3949
   28MOL   C32427918   1.691   1.985   6.288  0.2221 -0.2999  0.5280
   28MOL   C32527919   1.633   1.865   6.237  0.0569 -0.5226  0.0892
   28MOL   C32627920   1.713   1.750   6.238  0.1438  0.4152  0.7648
   28MOL   C32727921   1.844   1.752   6.286  0.6588 -0.4061 -0.0757
   28MOL   C32827922   1.935   1.633   6.275 -0.2916 -0.3288  0.8030
   28MOL   C32927923   1.889   1.868   6.352 -0.2294  0.2910 -0.2380
   28MOL   C33027924   1.816   1.983   6.356 -0.1720  0.1688 -0.1637
   28MOL   C33127925   1.566   2.323   6.180 -0.3297  0.5553  0.1931
   28MOL   C33227926   1.611   2.438   6.113  0.2469 -0.2369  0.1873
   28MOL   C33327927   1.942   2.575   5.867  0.2655 -0.1452  0.4943
   28MOL   C33427928   2.065   2.605   5.800  0.1707 -0.1335 -0.0897
   28MOL   C33527929   2.380   2.923   5.859 -0.4856  0.3016 -0.3010
   28MOL   C33627930   2.492   3.002   5.886  0.3192  0.2727  0.2144
   28MOL   H33727931   2.822   2.973   5.951  0.2227 -0.5183 -2.7432
   28MOL   H33827932   2.732   2.756   5.876 -0.3611 -0.4960  0.9450
   28MOL   H33927933   2.527   2.628   5.804 -0.6972  0.6070 -1.7005
   28MOL   H34027934   2.320   2.623   5.747 -4.0919 -1.0133 -0.7223
   28MOL   H34127935   2.225   2.761   6.058  1.0611 -0.7089 -0.9079
   28MOL   H34227936   2.010   2.762   6.149  0.2884  0.3806  0.5492
   28MOL   H34327937   1.776   2.672   6.124 -1.8560  0.3176 -0.2182
   28MOL   H34427938   1.939   2.377   6.099  1.2071 -2.9344 -1.7011
   28MOL   H34527939   1.867   2.164   6.189 -0.0803  0.2469  0.7379
   28MOL   H34627940   1.529   2.113   6.322 -1.0974  0.7667 -2.1041
   28MOL   H34727941   1.539   1.859   6.185 -1.8449  2.2517  3.0379
   28MOL   H34827942   1.670   1.661   6.193  0.3112  1.9072 -2.4962
   28MOL   H34927943   1.892   1.537   6.302  0.6200 -0.4000  2.0203
   28MOL   H35027944   1.997   1.632   6.364  0.8730 -0.7748  0.0053
   28MOL   H35127945   1.982   1.867   6.407 -1.2172  3.2829  1.6263
   28MOL   H35227946   1.853   2.076   6.396 -3.0574  0.9447  0.8411
   28MOL   H35327947   1.465   2.323   6.218 -1.5786 -0.7897 -2.9407
   28MOL   H35427948   1.533   2.513   6.110  0.7453  0.2214 -1.8430
   28MOL   H35527949   1.856   2.543   5.809 -0.2413  1.7015  0.1835
   28MOL   H35627950   2.084   2.586   5.695  2.0579  0.8331  0.0538
   28MOL   H35727951   2.281   2.965   5.855 -0.7232 -0.3254 -1.1608
   28MOL   H35827952   2.469   3.104   5.913  0.8116  0.5364 -0.3312
   28MOL   N35927953   2.007   1.618   6.149 -0.0609  0.9278  0.2196
   28MOL   C36027954   2.127   1.552   6.140 -0.0362  0.4184  0.5502
   28MOL   C36127955   2.163   1.442   6.222 -0.1724  0.2181 -0.3471
   28MOL   C36227956   2.286   1.373   6.209  0.2338  0.4555 -0.1483
   28MOL   C36327957   2.376   1.425   6.115  0.0247 -0.4006 -0.5340
   28MOL   N36427958   2.508   1.394   6.115 -0.5077 -0.3630 -0.0419
   28MOL   C36527959   2.562   1.263   6.132 -0.1932  0.0310  0.1190
   28MOL   C36627960   2.681   1.244   6.194 -0.0692 -0.1797  0.7316
   28MOL   C36727961   2.731   1.117   6.227  0.3473  0.0910  0.6318
   28MOL   C36827962   2.651   1.002   6.201 -0.1517  0.4624  0.3925
   28MOL   N36927963   2.697   0.875   6.235  0.0986 -0.5549  0.1172
   28MOL   C37027964   2.679   0.822   6.365 -0.1026  0.2898  0.5249
   28MOL   C37127965   2.655   0.901   6.481 -0.8738  0.1004 -0.1926
   28MOL   C37227966   2.620   0.845   6.604  0.4440 -0.0380  0.4360
   28MOL   C37327967   2.599   0.710   6.619 -0.0566  0.3357 -0.0653
   28MOL   N37427968   2.560   0.646   6.738 -0.2181 -0.0628  0.0601
   28MOL   C37527969   2.434   0.672   6.798 -0.7508 -0.4546  0.2257
   28MOL   C37627970   2.412   0.651   6.930 -0.0636  0.6349 -0.7692
   28MOL   C37727971   2.287   0.672   6.993 -0.2917 -0.4655 -0.0292
   28MOL   C37827972   2.173   0.702   6.913  0.3136  0.2043 -0.9376
   28MOL   C37927973   2.038   0.726   6.980  0.1258 -0.0378  0.4218
   28MOL   C38027974   2.194   0.709   6.773  0.0724  0.3171 -0.0749
   28MOL   C38127975   2.321   0.702   6.719  0.5279 -1.1974 -0.3060
   28MOL   C38227976   2.631   0.629   6.516 -0.1417 -0.1545 -0.2471
   28MOL   C38327977   2.662   0.683   6.382 -0.7897  0.0394 -0.0162
   28MOL   C38427978   2.522   1.020   6.149 -0.1298 -0.0824  0.2932
   28MOL   C38527979   2.482   1.148   6.112 -0.1840  0.1365 -0.0444
   28MOL   C38627980   2.345   1.535   6.035 -0.1524  0.0368 -0.7944
   28MOL   C38727981   2.220   1.602   6.048 -0.6349  0.5081  0.2796
   28MOL   H38827982   2.011   1.705   6.097 -2.0112  1.6855  1.2810
   28MOL   H38927983   2.100   1.421   6.307 -2.7896  4.4930 -1.0678
   28MOL   H39027984   2.307   1.290   6.275 -2.7676  1.0827  1.6701
   28MOL   H39127985   2.570   1.463   6.075  0.7553 -0.5109  1.6073
   28MOL   H39227986   2.739   1.333   6.212  2.1834 -0.9273 -2.2722
   28MOL   H39327987   2.829   1.101   6.270  1.1760 -0.4107 -1.3781
   28MOL   H39427988   2.675   0.797   6.175 -1.9706  1.2492 -1.5680
   28MOL   H39527989   2.671   1.008   6.477 -2.5556  0.4411  1.6316
   28MOL   H39627990   2.614   0.900   6.697  0.7453 -0.5296  0.7458
   28MOL   H39727991   2.629   0.662   6.810  0.4505 -1.3182 -0.2949
   28MOL   H39827992   2.499   0.630   6.991 -1.5740 -1.6154  0.6841
   28MOL   H39927993   2.277   0.656   7.099 -0.9717 -2.9012 -0.4380
   28MOL   H40027994   2.040   0.825   7.026 -0.4686  0.1405  0.0746
   28MOL   H40127995   2.033   0.664   7.069 -0.3208  0.7224  0.9289
   28MOL   H40227996   2.101   0.722   6.719 -1.0437 -0.4094  1.5900
   28MOL   H40327997   2.328   0.712   6.612 -3.1420  2.0589 -0.3977
   28MOL   H40427998   2.615   0.524   6.531 -1.1836  0.0924  0.4253
   28MOL   H40527999   2.685   0.615   6.301 -0.0441  3.6507 -2.9624
   28MOL   H40628000   2.459   0.934   6.132  1.2774 -1.2584  0.9184
   28MOL   H40728001   2.383   1.171   6.076 -0.3347  0.0825  0.3284
   28MOL   H40828002   2.417   1.584   5.971  1.6127 -0.1586  1.0113
   28MOL   H40928003   2.191   1.681   5.981 -0.1565  1.2256  0.9127
   28MOL   N41028004   1.923   0.688   6.894 -0.0958  0.2922 -0.8002
   28MOL   C41128005   1.861   0.778   6.806 -0.3028 -1.2700 -0.1956
   28MOL   C41228006   1.783   0.725   6.707 -0.0924  0.3860 -0.4884
   28MOL   C41328007   1.720   0.807   6.617  0.0265  0.3584  0.0859
   28MOL   C41428008   1.740   0.943   6.620  0.5761  0.6558  0.3468
   28MOL   N41528009   1.679   1.036   6.536 -0.2050 -0.6998  0.0660
   28MOL   C41628010   1.548   1.022   6.481 -0.3403  0.4034  0.0750
   28MOL   C41728011   1.449   0.952   6.556 -0.0354  0.3165 -0.3937
   28MOL   C41828012   1.316   0.940   6.506  0.3850 -1.0179 -0.7161
   28MOL   C41928013   1.278   1.010   6.387  0.3037  0.5746  0.0386
   28MOL   N42028014   1.145   1.011   6.332 -0.0343 -0.1206  0.2609
   28MOL   C42128015   1.027   1.006   6.403 -0.3637  0.2583  0.3440
   28MOL   C42228016   0.910   0.950   6.353  0.1085 -0.1686  0.3723
   28MOL   C42328017   0.799   0.921   6.430  0.5357 -1.0324  0.0197
   28MOL   C42428018   0.797   0.969   6.562 -0.2177 -0.0198  0.0513
   28MOL   N42528019   0.683   0.945   6.642 -0.2234 -0.0371  0.4398
   28MOL   C42628020   0.593   0.840   6.642 -0.1991  0.1425  0.5844
   28MOL   C42728021   0.626   0.715   6.594  1.0468 -0.8721 -0.3196
   28MOL   C42828022   0.534   0.605   6.601 -0.4543 -0.3374 -0.8524
   28MOL   C42928023   0.405   0.619   6.645  1.0050  0.0471  0.6082
   28MOL   C43028024   0.309   0.502   6.631 -0.1748 -0.4400  0.2104
   28MOL   C43128025   0.376   0.746   6.696  0.0404 -0.6443  0.0914
   28MOL   C43228026   0.463   0.855   6.698  0.2868  0.4955 -0.3179
   28MOL   C43328027   0.904   1.042   6.616  0.4407 -0.3714  0.3356
   28MOL   C43428028   1.019   1.056   6.533 -0.0594  0.0538 -0.4039
   28MOL   C43528029   1.374   1.078   6.315 -0.4925 -0.4407 -0.2463
   28MOL   C43628030   1.508   1.079   6.362 -0.2182 -0.2050  0.3797
   28MOL   C43728031   1.842   0.994   6.700  0.5312  0.1642 -0.2825
   28MOL   C43828032   1.897   0.917   6.799  0.2002 -0.5660  0.4170
   28MOL   H43928033   1.935   0.594   6.858  0.9043  0.2429 -0.3723
   28MOL   H44028034   1.754   0.622   6.718  1.3087  0.1407  1.2478
   28MOL   H44128035   1.651   0.763   6.545  1.2706 -3.1814  0.9700
   28MOL   H44228036   1.735   1.115   6.511 -0.5072 -0.5120 -0.0275
   28MOL   H44328037   1.472   0.899   6.647 -1.3358 -0.7286 -0.6509
   28MOL   H44428038   1.243   0.878   6.556 -1.9559  0.3439 -2.3405
   28MOL   H44528039   1.141   0.994   6.233  1.5140  0.5356  0.0723
   28MOL   H44628040   0.918   0.911   6.252  0.0745  1.6493 -0.3529
   28MOL   H44728041   0.717   0.867   6.386  1.5983 -0.6120 -2.6096
   28MOL   H44828042   0.671   1.009   6.719 -0.4838 -1.0231  1.2194
   28MOL   H44928043   0.731   0.709   6.569  1.2908  0.0241  0.4625
   28MOL   H45028044   0.568   0.510   6.562  0.7749 -0.7432  1.1032
   28MOL   H45128045   0.314   0.448   6.725 -1.2677  0.5273  0.8366
   28MOL   H45228046   0.347   0.437   6.552 -1.2435  0.8820 -1.4318
   28MOL   H45328047   0.282   0.758   6.748 -0.3416  0.8756 -0.9280
   28MOL   H45428048   0.433   0.949   6.741  1.0268  0.4993  0.1924
   28MOL   H45528049   0.902   1.101   6.706  3.2372  1.6772 -0.8761
   28MOL   H45628050   1.098   1.117   6.573  1.8815 -1.4678 -1.8426
   28MOL   H45728051   1.342   1.137   6.231  1.6767  1.4549  0.2043
   28MOL   H45828052   1.588   1.120   6.303 -0.2504 -1.2981 -0.4394
   28MOL   H45928053   1.884   1.093   6.689 -0.5077  0.4880 -1.4524
   28MOL   H46028054   1.973   0.969   6.856  0.7452 -0.7824 -0.1131
   28MOL   N46128055   0.173   0.554   6.608 -0.9813  0.1744 -0.0788
   28MOL   C46228056   0.066   0.474   6.567 -0.1363 -0.0351  0.1051
   28MOL   C46328057   0.079   0.332   6.562  0.1879 -0.0946 -0.8256
   28MOL   C46428058   7.958   0.254   6.511 -0.0493 -0.2016  0.0028
   28MOL   C46528059   7.841   0.319   6.462  0.2881 -0.1234 -0.1657
   28MOL   N46628060   7.744   0.236   6.400 -0.0621 -0.8151  0.0485
   28MOL   C46728061   7.607   0.247   6.427  0.2623 -0.2844  0.0531
   28MOL   C46828062   7.550   0.324   6.530 -0.0776 -0.2977 -0.0544
   28MOL   C46928063   7.418   0.319   6.562 -0.3842  0.5432  0.1375
   28MOL   C47028064   7.333   0.230   6.489  0.2937  0.8026 -0.0478
   28MOL   N47128065   7.195   0.241   6.505  0.1083  0.0552  0.5051
   28MOL   C47228066   7.109   0.264   6.614 -0.3449  0.3749  0.7488
   28MOL   C47328067   6.974   0.275   6.597  0.0757  0.0379 -0.2327
   28MOL   C47428068   6.885   0.291   6.706 -0.1580  0.0222 -0.0899
   28MOL   C47528069   6.934   0.296   6.837  0.8927 -0.2228 -0.4748
   28MOL   N47628070   6.843   0.322   6.945 -0.1667 -0.2879 -0.2083
   28MOL   C47728071   6.882   0.378   7.066  0.1284 -0.0709  0.2902
   28MOL   C47828072   6.834   0.326   7.189  0.0090 -0.6315 -0.2382
   28MOL   C47928073   6.857   0.387   7.309  0.8275 -0.0467 -0.5663
   28MOL   C48028074   6.924   0.510   7.315  0.4020  0.2278 -0.0941
   28MOL   C48128075   6.954   0.576   7.450 -0.0143  0.5019  0.1065
   28MOL   C48228076   6.977   0.561   7.194 -0.1256  0.0844 -0.2886
   28MOL   C48328077   6.962   0.495   7.071 -0.5396  0.8205  0.3001
   28MOL   C48428078   7.071   0.275   6.855 -0.5136 -0.4124  0.3335
   28MOL   C48528079   7.161   0.256   6.747  0.5418 -0.8603 -0.2131
   28MOL   C48628080   7.384   0.154   6.385 -0.2542 -0.3751 -0.3016
   28MOL   C48728081   7.519   0.163   6.350  0.3091  0.4203 -0.0714
   28MOL   C48828082   7.829   0.459   6.463  0.2661  0.0381  0.1046
   28MOL   C48928083   7.929   0.534   6.526  0.1951  0.3330 -0.0566
   28MOL   H49028084   0.163   0.654   6.594 -2.4539  0.0897  0.2804
   28MOL   H49128085   0.172   0.284   6.587 -0.1792 -0.8158 -0.8352
   28MOL   H49228086   7.977   0.149   6.502  0.2489 -0.0703 -0.9145
   28MOL   H49328087   7.773   0.147   6.362 -1.2706 -0.9637 -0.5463
   28MOL   H49428088   7.612   0.382   6.597  2.0409 -0.7351 -1.5637
   28MOL   H49528089   7.376   0.388   6.633  0.9355  1.6833 -0.1707
   28MOL   H49628090   7.149   0.201   6.425  0.1372 -1.6985  1.3321
   28MOL   H49728091   6.932   0.273   6.498  2.2211 -0.8337 -1.1582
   28MOL   H49828092   6.782   0.317   6.688  0.2559  0.3236 -2.1191
   28MOL   H49928093   6.745   0.299   6.946 -0.2581  0.0789  2.1636
   28MOL   H50028094   6.776   0.235   7.188  0.5975 -1.0491  1.9812
   28MOL   H50128095   6.818   0.343   7.399  1.3760 -0.8767 -0.7321
   28MOL   H50228096   7.041   0.541   7.507 -0.1300  0.6014  0.3438
   28MOL   H50328097   6.869   0.537   7.507 -0.0865  1.6187  0.7742
   28MOL   H50428098   7.045   0.645   7.200  1.3263 -1.1347  0.5168
   28MOL   H50528099   7.011   0.521   6.979 -1.6003 -1.3005 -0.8946
   28MOL   H50628100   7.110   0.280   6.956  0.9862 -2.8368 -0.0831
   28MOL   H50728101   7.267   0.243   6.762  0.6035 -1.6562 -1.2285
   28MOL   H50828102   7.318   0.089   6.330 -2.9727  0.2258  2.1238
   28MOL   H50928103   7.567   0.122   6.263 -0.1271  0.0857 -0.1573
   28MOL   H51028104   7.739   0.510   6.432  0.9470  0.9452 -0.4037
   28MOL   H51128105   7.906   0.639   6.537  1.5792  0.6587 -0.2093
   28MOL   N51228106   6.938   0.720   7.446  0.2495  0.1862  0.0455
   28MOL   C51328107   6.925   0.795   7.561 -0.5603 -0.1703  0.3543
   28MOL   C51428108   6.926   0.745   7.693 -1.0874  0.2822  0.4531
   28MOL   C51528109   6.913   0.835   7.800 -0.1473 -0.2669  0.1313
   28MOL   C51628110   6.892   0.970   7.779 -0.0694  0.7999 -0.2467
   28MOL   N51728111   6.876   1.063   7.884 -0.7697 -0.4119  0.4463
   28MOL   C51828112   6.813   1.194   7.876 -0.6399 -0.5735  0.6754
   28MOL   C51928113   6.725   1.237   7.775 -0.7200 -0.8589  0.5174
   28MOL   C52028114   6.659   1.364   7.792  0.5536  0.2849  0.3557
   28MOL   C52128115   6.687   1.455   7.895 -0.0361  0.5199  0.3117
   28MOL   N52228116   6.633   1.583   7.891  0.4183 -0.3248  0.0956
   28MOL   C52328117   6.698   1.703   7.931  0.7074 -0.6750  0.7812
   28MOL   C52428118   6.834   1.703   7.971 -0.2417 -0.4775 -1.1015
   28MOL   C52528119   6.895   1.825   0.020  0.5056  0.4254  1.1939
   28MOL   C52628120   6.827   1.947   0.001 -0.7374  0.4455  0.2925
   28MOL   N52728121   6.897   2.062   0.040  0.4565  0.2406 -0.3555
   28MOL   C52828122   7.032   2.095   0.028 -0.2320  0.8814 -0.1288
   28MOL   C52928123   7.103   2.165   0.128  0.5730 -0.0150  0.1928
   28MOL   C53028124   7.240   2.167   0.129 -0.4291 -0.2696 -0.7865
   28MOL   C53128125   7.321   2.117   0.018  0.2945  0.3049 -0.2116
   28MOL   C53228126   7.472   2.123   0.011  0.7574  0.2813 -0.1185
   28MOL   C53328127   7.246   2.065   7.890  0.4793  0.2196  0.2102
   28MOL   C53428128   7.104   2.053   7.899 -0.1731 -0.7461  0.8297
   28MOL   C53528129   6.692   1.943   7.944  1.3527  0.1940 -0.4632
   28MOL   C53628130   6.625   1.825   7.916  0.0494 -0.7996  0.9025
   28MOL   C53728131   6.777   1.407   0.014 -0.2359  0.2208 -0.6898
   28MOL   C53828132   6.831   1.285   0.004  0.9033 -0.2729  0.2470
   28MOL   C53928133   6.899   1.016   7.647  0.1297 -0.1705  0.6402
   28MOL   C54028134   6.902   0.932   7.535  0.4008  0.8051  0.5655
   28MOL   H54128135   6.898   0.748   7.357  1.0347 -0.1372 -0.4127
   28MOL   H54228136   6.940   0.638   7.702 -0.1998  0.3481 -0.1177
   28MOL   H54328137   6.923   0.798   7.901  1.1064 -0.1052  0.0677
   28MOL   H54428138   6.894   1.032   7.978 -0.3779 -0.6385  0.3002
   28MOL   H54528139   6.686   1.178   7.694 -0.6592 -0.6719  0.3500
   28MOL   H54628140   6.577   1.378   7.723 -2.1233  0.3757  3.4518
   28MOL   H54728141   6.550   1.598   7.836  0.0777  0.8840  0.9069
   28MOL   H54828142   6.896   1.614   7.970 -0.2027 -0.5364  1.8275
   28MOL   H54928143   7.001   1.815   0.039  0.5601  0.8103  1.0912
   28MOL   H55028144   6.854   2.105   0.121  0.9395 -0.2913  0.1867
   28MOL   H55128145   7.054   2.197   0.219 -1.8106 -1.7385 -0.4308
   28MOL   H55228146   7.292   2.209   0.213 -0.5652 -0.2816 -0.6961
   28MOL   H55328147   7.500   2.172   7.900 -0.2625  2.2561  0.5570
   28MOL   H55428148   7.496   2.019   7.976 -1.0154 -0.1462 -0.1361
   28MOL   H55528149   7.302   2.034   7.803  0.0370  1.8239 -0.6633
   28MOL   H55628150   7.047   2.019   7.814 -1.5133 -2.1331  2.2531
   28MOL   H55728151   6.630   2.031   7.937 -1.0432 -1.4614 -0.6420
   28MOL   H55828152   6.520   1.824   7.889  0.0970 -1.5864  0.7333
   28MOL   H55928153   6.805   1.470   0.097  2.7334 -3.0583  0.9051
   28MOL   H56028154   6.912   1.268   0.074 -1.1728 -1.1721  2.5027
   28MOL   H56128155   6.883   1.121   7.628 -2.7978 -0.5540  0.6584
   28MOL   H56228156   6.904   0.975   7.435  0.4598 -1.5773 -0.4889
   28MOL   N56328157   7.544   2.177   0.127 -0.3169  0.2997 -0.1124
   28MOL   C56428158   7.585   2.308   0.114  0.3443  0.1605  0.5963
   28MOL   C56528159   7.709   2.333   0.165 -0.6343 -0.1977  0.2894
   28MOL   C56628160   7.763   2.464   0.153  0.3728 -0.7704 -0.5672
   28MOL   C56728161   7.680   2.568   0.106 -0.2058 -0.5047  0.0655
   28MOL   N56828162   7.731   2.699   0.116 -0.6918  0.0599 -0.8074
   28MOL   C56928163   7.664   2.818   0.158 -0.0622 -0.2550 -0.2476
   28MOL   C57028164   7.711   2.941   0.106 -0.0210 -0.0935  0.4169
   28MOL   C57128165   7.643   3.064   0.144  0.5503 -0.3355 -0.0718
   28MOL   C57228166   7.535   3.059   0.233  0.2954 -0.2417 -0.0926
   28MOL   N57328167   7.469   3.180   0.265  0.3811 -0.1870  0.3142
   28MOL   C57428168   7.335   3.203   0.298  0.8155 -0.8857 -0.7764
   28MOL   C57528169   7.230   3.107   0.285  0.0795  0.1267  0.0602
   28MOL   C57628170   7.107   3.127   0.339 -0.6827  0.1388 -0.4521
   28MOL   C57728171   7.074   3.243   0.413 -0.2411  0.5634 -0.3267
   28MOL   N57828172   6.954   3.261   0.481 -0.3675  0.2285 -0.5298
   28MOL   C57928173   6.868   3.167   0.548  0.4258  0.2969  1.0635
   28MOL   C58028174   6.925   3.045   0.595  0.7485 -0.1903  0.3892
   28MOL   C58128175   6.855   2.960   0.680 -0.8554  0.0300  0.4250
   28MOL   C58228176   6.718   2.978   0.705 -0.0126  0.6353  0.1526
   28MOL   C58328177   6.647   2.876   0.779 -0.2165  0.4234 -0.0152
   28MOL   C58428178   6.658   3.098   0.658  0.0558  0.0548 -0.3968
   28MOL   C58528179   6.729   3.194   0.586 -0.4447 -0.5728 -0.5403
   28MOL   C58628180   7.163   3.350   0.406 -0.1523  0.2784  0.1538
   28MOL   C58728181   7.295   3.330   0.352  0.4580  0.0476 -0.0189
   28MOL   C58828182   7.504   2.935   0.292  0.1960  0.2979  0.6521
   28MOL   C58928183   7.562   2.815   0.247  0.2115 -0.3089 -0.1931
   28MOL   C59028184   7.554   2.537   0.053  0.2884 -0.0983 -0.4616
   28MOL   C59128185   7.506   2.402   0.053 -0.6258  0.7211  0.5686
   28MOL   H59228186   7.596   2.108   0.180 -2.2835 -0.4720  0.8669
   28MOL   H59328187   7.761   2.254   0.218 -1.0462  0.4238  1.6305
   28MOL   H59428188   7.865   2.480   0.184 -0.1560  2.2136 -0.1763
   28MOL   H59528189   7.826   2.707   0.085 -0.7684 -0.8731 -1.2745
   28MOL   H59628190   7.804   2.942   0.050  0.3542 -0.9750  1.0110
   28MOL   H59728191   7.666   3.162   0.106  1.0760  0.2662  1.7600
   28MOL   H59828192   7.528   3.262   0.254 -0.1667  0.1156 -0.4603
   28MOL   H59928193   7.242   3.010   0.238 -0.6291 -0.6031  1.3559
   28MOL   H60028194   7.040   3.042   0.339 -0.3331 -0.2793 -5.4747
   28MOL   H60128195   6.918   3.353   0.462  1.3833  1.3918  1.6356
   28MOL   H60228196   7.029   3.019   0.576  0.3167 -0.9237 -0.9925
   28MOL   H60328197   6.906   2.881   0.732 -1.8078 -0.0136  1.3078
   28MOL   H60428198   6.538   2.878   0.772 -0.1241 -2.3021 -3.8249
   28MOL   H60528199   6.677   2.883   0.884 -0.1846 -0.9304  0.0671
   28MOL   H60628200   6.558   3.121   0.691  0.3034 -1.6299  1.6766
   28MOL   H60728201   6.692   3.290   0.553 -1.1024 -0.6657 -0.0767
   28MOL   H60828202   7.138   3.449   0.442 -0.4349  1.3689 -2.9466
   28MOL   H60928203   7.372   3.401   0.381  0.8901 -0.1218 -0.7616
   28MOL   H61028204   7.435   2.944   0.374 -1.4092  1.6798 -0.8012
   28MOL   H61128205   7.538   2.717   0.286  3.0000 -0.6544  0.7369
   28MOL   H61228206   7.494   2.620   0.018  0.2098  0.8800  1.8607
   28MOL   H61328207   7.416   2.375   7.981 -0.0435  1.4053 -0.7458
   28MOL   N61428208   6.687   2.738   0.761  1.1003  0.5323 -0.4182
   28MOL   C61528209   6.607   2.635   0.809 -0.4173 -0.0949 -0.8128
   28MOL   C61628210   6.643   2.505   0.768 -0.3429  0.0360  0.0905
   28MOL   C61728211   6.569   2.396   0.812  0.9988 -0.8189  0.1352
   28MOL   C61828212   6.453   2.414   0.892 -0.3263  0.0669  0.0090
   28MOL   N61928213   6.365   2.308   0.917 -0.1794  0.6791 -0.0717
   28MOL   C62028214   6.369   2.174   0.868  0.4527 -0.8636  0.1501
   28MOL   C62128215   6.472   2.085   0.911 -0.5419  0.5787 -0.1093
   28MOL   C62228216   6.468   1.951   0.868 -0.2639  0.9505  0.4365
   28MOL   C62328217   6.374   1.911   0.773  0.0995  0.6424 -0.5521
   28MOL   N62428218   6.377   1.785   0.715  0.5084 -0.5349 -0.0609
   28MOL   C62528219   6.462   1.676   0.747  0.3502 -0.0506  0.0575
   28MOL   C62628220   6.470   1.621   0.875  0.4470 -0.1936 -0.1991
   28MOL   C62728221   6.545   1.506   0.895  0.1140 -0.5944 -0.1647
   28MOL   C62828222   6.614   1.443   0.791 -0.5895 -0.0078 -0.5720
   28MOL   N62928223   6.701   1.345   0.832 -0.2785 -0.3266 -0.3099
   28MOL   C63028224   6.766   1.250   0.754  0.0935 -0.8825  0.8138
   28MOL   C63128225   6.893   1.202   0.793  0.5445 -0.1864  0.2253
   28MOL   C63228226   6.948   1.077   0.740  0.2064 -0.7143  0.1721
   28MOL   C63328227   6.880   1.013   0.637 -0.0895  0.0125 -0.8229
   28MOL   C63428228   6.927   0.877   0.580  1.0136 -0.4181  0.3798
   28MOL   C63528229   6.759   1.069   0.588 -0.2794 -0.8789  0.2677
   28MOL   C63628230   6.708   1.189   0.640  0.2504  0.1105 -0.2911
   28MOL   C63728231   6.612   1.502   0.657  0.9291  1.1913  0.0696
   28MOL   C63828232   6.530   1.614   0.638 -0.2146  0.2005  0.3864
   28MOL   C63928233   6.272   2.004   0.737  0.1110  0.5609 -0.5816
   28MOL   C64028234   6.272   2.132   0.785 -0.4811 -0.8640  0.2303
   28MOL   C64128235   6.422   2.543   0.945 -0.2175  0.0735  0.4146
   28MOL   C64228236   6.498   2.652   0.893 -0.0054  0.2292  0.4594
   28MOL   H64328237   6.750   2.710   0.687  1.7931 -0.3909  0.5043
   28MOL   H64428238   6.732   2.483   0.711 -1.4857 -1.1716 -1.2566
   28MOL   H64528239   6.596   2.297   0.781 -1.1679 -1.5279  0.4435
   28MOL   H64628240   6.288   2.341   0.974 -0.5823 -0.6939  0.1849
   28MOL   H64728241   6.547   2.121   0.980 -0.1604 -1.2971  0.4797
   28MOL   H64828242   6.542   1.880   0.902  0.5490  2.0981  1.1349
   28MOL   H64928243   6.326   1.781   0.628  2.0004 -3.2568 -0.8658
   28MOL   H65028244   6.406   1.661   0.952 -0.2013 -0.7349 -0.4542
   28MOL   H65128245   6.552   1.456   0.990  0.8866 -0.2289 -0.0238
   28MOL   H65228246   6.739   1.351   0.926  0.9088  2.6968 -0.9420
   28MOL   H65328247   6.945   1.251   0.874 -0.0292 -2.6241  2.1427
   28MOL   H65428248   7.036   1.031   0.784 -0.4156 -1.2473  0.8629
   28MOL   H65528249   6.938   0.898   0.473 -2.0176 -0.8479 -0.0678
   28MOL   H65628250   6.856   0.794   0.585  0.2969  0.0028 -1.9077
   28MOL   H65728251   6.717   1.020   0.502  0.2613  0.2108 -0.6257
   28MOL   H65828252   6.614   1.224   0.599  0.5055  1.4128  0.2444
   28MOL   H65928253   6.676   1.461   0.580 -0.1922 -1.3876  0.4439
   28MOL   H66028254   6.517   1.664   0.543  0.0453 -0.4846 -0.0135
   28MOL   H66128255   6.186   1.976   0.677  0.3752  1.8836 -1.6079
   28MOL   H66228256   6.192   2.196   0.752  2.0133  1.8597 -0.7912
   28MOL   H66328257   6.336   2.558   1.008 -0.6647 -0.9211  0.0407
   28MOL   H66428258   6.474   2.748   0.936  0.5323 -0.3230  2.0473
   28MOL   N66528259   7.056   0.830   0.629  0.1212 -0.2902  0.1167
   28MOL   C66628260   7.123   0.723   0.567 -0.6636  0.5467  0.3652
   28MOL   C66728261   7.267   0.712   0.589 -0.1196  0.0075 -0.3506
   28MOL   C66828262   7.345   0.612   0.522  0.8490  0.5709 -0.1123
   28MOL   C66928263   7.281   0.510   0.450 -0.2941 -0.1962  0.3059
   28MOL   N67028264   7.344   0.406   0.386  0.7394 -0.0769  0.1828
   28MOL   C67128265   7.461   0.349   0.431 -0.8809  0.3854  0.3430
   28MOL   C67228266   7.464   0.291   0.562  0.0916 -0.0321  0.4932
   28MOL   C67328267   7.584   0.226   0.607  0.1913  0.1828 -0.0528
   28MOL   C67428268   7.699   0.227   0.525 -0.2323  0.5765 -0.2971
   28MOL   N67528269   7.816   0.160   0.575  0.6900 -0.4744 -0.4163
   28MOL   C67628270   7.875   0.047   0.525 -0.3539  0.1706 -0.3864
   28MOL   C67728271   0.037   0.032   0.528 -0.4837 -0.3918  0.5665
   28MOL   C67828272   0.100   7.900   0.476 -0.1867  0.2732 -0.2961
   28MOL   C67928273   0.026   7.786   0.447  0.8263 -0.0408 -0.2272
   28MOL   N68028274   0.090   7.670   0.400  0.5440  0.1196  0.4046
   28MOL   C68128275   0.074   7.540   0.449  0.2133  0.3058 -0.2184
   28MOL   C68228276   0.111   7.431   0.367  0.4121  0.0542 -0.6992
   28MOL   C68328277   0.103   7.305   0.424 -0.3077 -0.1032  0.6646
   28MOL   C68428278   0.054   7.285   0.554 -0.6262  0.8354  0.4264
   28MOL   C68528279   0.056   7.148   0.608  0.5129 -0.2714 -0.2206
   28MOL   C68628280   0.019   7.393   0.634  1.0285  0.0606 -0.6221
   28MOL   C68728281   0.037   7.523   0.581 -0.0662  0.3541 -0.1997
   28MOL   C68828282   7.869   7.789   0.456 -0.4095 -0.3397 -0.0515
   28MOL   C68928283   7.801   7.913   0.488 -0.3490  0.5841 -0.2165
   28MOL   C69028284   7.694   0.270   0.393  0.1367 -0.0727 -0.0089
   28MOL   C69128285   7.577   0.329   0.342 -0.7892  0.6378 -0.3894
   28MOL   C69228286   7.146   0.519   0.429 -0.3125 -0.2926  0.4947
   28MOL   C69328287   7.067   0.620   0.488  0.0389  0.7685  0.1034
   28MOL   H69428288   7.096   0.883   0.705  0.3963  1.5548 -1.2884
   28MOL   H69528289   7.321   0.781   0.653  2.2408 -1.2166 -0.9727
   28MOL   H69628290   7.453   0.608   0.526  0.8799  2.1655  1.2651
   28MOL   H69728291   7.343   0.422   0.287  1.7828  2.5746  0.5590
   28MOL   H69828292   7.374   0.282   0.622 -0.0690  2.2967  0.6494
   28MOL   H69928293   7.588   0.160   0.693  2.6552 -1.0178 -1.0516
   28MOL   H70028294   7.874   0.218   0.635 -0.1546 -1.5325  1.4642
   28MOL   H70128295   0.095   0.113   0.569  1.9506 -0.8301 -1.8648
   28MOL   H70228296   0.208   7.903   0.485 -0.2075 -1.4071  0.7212
   28MOL   H70328297   0.184   7.678   0.363  0.4881  0.4180  0.3292
   28MOL   H70428298   0.157   7.443   0.270  1.6832 -0.4025 -0.1659
   28MOL   H70528299   0.119   7.222   0.356  2.7479  1.0782 -0.1306
   28MOL   H70628300   0.157   7.109   0.592 -0.3076 -1.8194 -1.7394
   28MOL   H70728301   7.977   7.083   0.546 -0.4141 -1.2538  1.6564
   28MOL   H70828302   7.965   7.381   0.735 -1.6955 -0.8986 -1.6543
   28MOL   H70928303   0.024   7.600   0.655 -0.9491 -1.2962  1.3878
   28MOL   H71028304   7.810   7.705   0.423 -0.2540 -0.3995 -0.1743
   28MOL   H71128305   7.694   7.931   0.493 -0.5285 -1.1168  2.9491
   28MOL   H71228306   7.782   0.254   0.333  1.5143 -0.6391  2.1228
   28MOL   H71328307   7.574   0.359   0.238 -0.0107  2.0126 -0.0254
   28MOL   H71428308   7.088   0.441   0.381 -0.9900  0.3583  0.2579
   28MOL   H71528309   6.962   0.620   0.463  0.2619  2.1479 -0.8988
   28MOL   N71628310   0.001   7.131   0.747 -0.3138  0.0601 -0.6199
   28MOL   C71728311   0.077   7.044   0.830 -0.4263  0.5207  0.1952
   28MOL   C71828312   0.214   7.069   0.849 -0.2495  0.1258  0.8793
   28MOL   C71928313   0.289   6.979   0.922 -0.4256 -0.1326  1.1136
   28MOL   C72028314   0.225   6.864   0.981  0.1607  0.0450 -0.1154
   28MOL   N72128315   0.304   6.762   1.037 -0.2333  0.0635  0.6859
   28MOL   C72228316   0.432   6.769   1.090  0.7362 -0.3910  0.9243
   28MOL   C72328317   0.448   6.870   1.178 -0.9247 -0.4733  0.5632
   28MOL   C72428318   0.568   6.898   1.233  0.6235  0.1452  0.1303
   28MOL   C72528319   0.677   6.821   1.197 -0.3698 -0.0512 -0.0011
   28MOL   N72628320   0.810   6.861   1.234  0.1768 -0.1270 -0.0811
   28MOL   C72728321   0.842   6.942   1.346  0.7806 -0.1485  0.0231
   28MOL   C72828322   0.832   7.083   1.345  0.4356  0.2372 -0.8874
   28MOL   C72928323   0.900   7.164   1.435  0.1529 -0.1119 -0.4165
   28MOL   C73028324   0.969   7.099   1.545  0.1966  0.5045 -0.2900
   28MOL   N73128325   1.051   7.176   1.627  0.1824 -0.1910 -1.0437
   28MOL   C73228326   1.168   7.145   1.696  0.1373 -0.5582 -0.2845
   28MOL   C73328327   1.253   7.045   1.655  0.3215  0.0726  0.4535
   28MOL   C73428328   1.370   7.010   1.722  0.4440  0.5866  0.0370
   28MOL   C73528329   1.399   7.076   1.844  0.2480  0.3211  0.1554
   28MOL   C73628330   1.524   7.029   1.925  0.2599 -0.4977  0.5494
   28MOL   C73728331   1.311   7.179   1.892  0.0327  0.0668 -0.8654
   28MOL   C73828332   1.197   7.216   1.817  0.2726 -0.0744 -0.0488
   28MOL   C73928333   0.965   6.962   1.550 -0.1176 -0.1264 -0.0650
   28MOL   C74028334   0.908   6.878   1.448  0.5815  0.0486 -0.2548
   28MOL   C74128335   0.661   6.717   1.103  0.7228 -0.4594 -0.7250
   28MOL   C74228336   0.535   6.687   1.051  0.4196 -0.6212 -0.6713
   28MOL   C74328337   0.087   6.843   0.963  0.1116 -0.5058 -0.3699
   28MOL   C74428338   0.015   6.928   0.879  0.5661 -0.0598 -0.0240
   28MOL   H74528339   7.886   7.105   0.750  0.0539 -1.0589  2.5656
   28MOL   H74628340   0.269   7.150   0.803 -1.1631  1.8269  2.6833
   28MOL   H74728341   0.395   6.993   0.937 -0.0757 -0.8153 -0.6303
   28MOL   H74828342   0.259   6.677   1.065 -0.2175 -0.3076 -0.3873
   28MOL   H74928343   0.367   6.937   1.204 -0.6597  0.1716 -0.2264
   28MOL   H75028344   0.580   6.980   1.303  0.5866 -0.4728  0.8672
   28MOL   H75128345   0.879   6.787   1.225 -0.3771 -0.9571  2.2950
   28MOL   H75228346   0.780   7.132   1.265 -0.7827 -0.8172 -0.7543
   28MOL   H75328347   0.893   7.272   1.435  0.6123 -0.0804  0.1955
   28MOL   H75428348   1.009   7.259   1.665 -2.7817 -1.7606 -0.7046
   28MOL   H75528349   1.239   6.990   1.564  2.1854 -1.7504  1.2361
   28MOL   H75628350   1.441   6.934   1.692 -1.0933  0.0828 -2.4083
   28MOL   H75728351   1.602   7.100   1.895 -0.2852 -0.2406 -0.2955
   28MOL   H75828352   1.572   6.940   1.885  0.4464  0.0310 -0.4390
   28MOL   H75928353   1.343   7.224   1.985 -2.9907 -0.7334  0.6361
   28MOL   H76028354   1.121   7.291   1.831 -0.1567 -0.4254 -0.4853
   28MOL   H76128355   1.014   6.916   1.635 -0.2176  0.4474  0.3045
   28MOL   H76228356   0.933   6.773   1.456 -1.5086 -0.4696 -0.2108
   28MOL   H76328357   0.748   6.657   1.077 -0.1274 -1.4125 -1.4065
   28MOL   H76428358   0.531   6.598   0.990 -0.2270 -1.3047  0.3658
   28MOL   H76528359   0.031   6.763   1.009 -2.4812 -0.8207 -3.8616
   28MOL   H76628360   7.892   6.911   0.859  0.6267  0.6031 -0.9198
   28MOL   N76728361   1.496   7.019   2.066 -0.2082 -0.1904 -0.6311
   28MOL   C76828362   1.572   7.081   2.167 -0.2337  0.0436  0.1751
   28MOL   C76928363   1.584   7.016   2.295 -0.5239  0.2867  0.3205
   28MOL   C77028364   1.675   7.069   2.386  0.2808 -0.7379 -0.2724
   28MOL   C77128365   1.753   7.185   2.360 -0.1718  0.7093  0.2317
   28MOL   N77228366   1.844   7.218   2.462 -0.2125  0.2114  0.8085
   28MOL   C77328367   1.892   7.342   2.502  0.6456  0.4582 -0.9734
   28MOL   C77428368   2.010   7.349   2.577 -0.0854  0.0716  0.0174
   28MOL   C77528369   2.051   7.478   2.625 -0.5419  0.2119 -0.0069
   28MOL   C77628370   1.972   7.591   2.610 -0.5190  0.5715 -0.4398
   28MOL   N77728371   2.015   7.710   2.664 -0.2216 -0.2282  0.4313
   28MOL   C77828372   1.995   7.843   2.624 -0.2536  0.1305 -0.2015
   28MOL   C77928373   1.969   7.878   2.490  0.3002 -0.0945  0.0694
   28MOL   C78028374   1.981   0.029   2.449 -0.0127  0.2279  0.2173
   28MOL   C78128375   1.996   0.130   2.545  0.3568 -0.3109 -0.2492
   28MOL   N78228376   2.000   0.266   2.517 -0.1786  0.2860  0.9242
   28MOL   C78328377   1.964   0.381   2.585 -0.2776 -0.9927  0.2771
   28MOL   C78428378   1.858   0.391   2.674  0.3937  0.6580  0.1643
   28MOL   C78528379   1.832   0.511   2.735  0.4326  0.4643 -0.3666
   28MOL   C78628380   1.916   0.617   2.716  0.0608 -1.0614 -0.0025
   28MOL   C78728381   1.873   0.755   2.778 -0.1710 -0.3283 -0.1661
   28MOL   C78828382   2.027   0.607   2.634  0.6356 -0.2324 -0.0304
   28MOL   C78928383   2.051   0.489   2.568  0.3162 -0.7861  0.0467
   28MOL   C79028384   2.017   0.098   2.678  0.4875 -0.1759  0.3647
   28MOL   C79128385   2.014   7.948   2.715  0.9742 -0.1313  0.1840
   28MOL   C79228386   1.853   7.578   2.536 -0.1498  0.0969  0.6114
   28MOL   C79328387   1.820   7.458   2.476  0.6403  0.1778 -0.0691
   28MOL   C79428388   1.743   7.248   2.236 -0.4362 -0.3259 -0.7459
   28MOL   C79528389   1.654   7.197   2.138  0.5053  0.9810  0.3256
   28MOL   H79628390   1.448   6.933   2.089 -0.8670 -0.3939 -2.6085
   28MOL   H79728391   1.532   6.927   2.326  0.7479 -0.5680  0.0657
   28MOL   H79828392   1.692   7.007   2.473 -1.6819 -0.2840  0.4576
   28MOL   H79928393   1.878   7.133   2.506  0.3364 -0.0096 -0.0212
   28MOL   H80028394   2.062   7.255   2.590 -1.0078 -0.7756 -2.2265
   28MOL   H80128395   2.143   7.477   2.683  0.6075 -0.2705 -1.8270
   28MOL   H80228396   2.077   7.711   2.743 -0.1441  1.7603  0.3747
   28MOL   H80328397   1.959   7.812   2.406  0.1290  0.3603 -0.2676
   28MOL   H80428398   1.964   0.059   2.346 -0.3919  0.2836  0.2932
   28MOL   H80528399   2.033   0.282   2.423 -2.4108 -2.2524 -0.3620
   28MOL   H80628400   1.793   0.304   2.679  2.0217 -0.6896 -1.5355
   28MOL   H80728401   1.750   0.513   2.806  1.1907  0.6083  0.5080
   28MOL   H80828402   1.950   0.808   2.833  0.8167 -0.5530 -1.2933
   28MOL   H80928403   1.801   0.745   2.858 -0.7399 -3.0718 -0.9688
   28MOL   H81028404   2.098   0.687   2.624  1.3093 -0.6423  1.2813
   28MOL   H81128405   2.139   0.499   2.507  1.6941  2.8699  2.4921
   28MOL   H81228406   2.046   0.180   2.741 -1.7764  0.1156  1.0898
   28MOL   H81328407   2.049   7.921   2.814  0.3808 -1.4152  0.0599
   28MOL   H81428408   1.791   7.663   2.509  1.8794  0.8729 -1.7892
   28MOL   H81528409   1.734   7.454   2.412 -0.6550  0.9602  1.5960
   28MOL   H81628410   1.795   7.341   2.214 -0.1855  0.1814  1.8428
   28MOL   H81728411   1.646   7.248   2.043  0.8458  1.1941  0.4076
   28MOL   N81828412   1.837   0.847   2.671  0.2986  0.2889 -0.3204
   28MOL   C81928413   1.711   0.845   2.614  0.7184 -0.3810 -0.0235
   28MOL   C82028414   1.618   0.744   2.650  0.6325 -0.0039 -0.7542
   28MOL   C82128415   1.496   0.733   2.579 -0.7061  0.7038  0.6913
   28MOL   C82228416   1.469   0.816   2.470  0.0522 -0.2559  0.3311
   28MOL   N82328417   1.345   0.803   2.413 -0.4334  0.5916  0.0188
   28MOL   C82428418   1.280   0.919   2.371  0.0482 -0.2498 -0.5929
   28MOL   C82528419   1.255   0.953   2.237  0.4422  0.6308 -0.1631
   28MOL   C82628420   1.171   1.058   2.203 -0.3388 -0.2062  0.6089
   28MOL   C82728421   1.118   1.139   2.306  0.2297 -0.4788  0.5450
   28MOL   N82828422   1.049   1.261   2.274 -0.1272 -0.0947 -0.0966
   28MOL   C82928423   1.001   1.303   2.150  0.2745 -0.3451 -0.6117
   28MOL   C83028424   0.923   1.218   2.071  0.2997 -0.7537  0.2625
   28MOL   C83128425   0.861   1.264   1.952 -0.0326 -0.0113  0.5282
   28MOL   C83228426   0.886   1.398   1.918  0.5619 -0.2336  0.5271
   28MOL   N83328427   0.809   1.446   1.802 -0.2133 -0.2030  0.7719
   28MOL   C83428428   0.768   1.574   1.764 -0.4087 -0.3489  0.1523
   28MOL   C83528429   0.637   1.591   1.723  0.5384 -0.1465  0.7811
   28MOL   C83628430   0.590   1.722   1.692  0.0107  0.1757  0.9132
   28MOL   C83728431   0.670   1.833   1.709 -0.1293  0.4894  0.4932
   28MOL   C83828432   0.618   1.970   1.673 -0.2270 -1.3602  0.0612
   28MOL   C83928433   0.798   1.816   1.750  0.6002  0.5498  0.6526
   28MOL   C84028434   0.852   1.689   1.776 -0.0206 -0.4744 -0.9209
   28MOL   C84128435   0.968   1.484   1.994 -0.6610  0.1036 -0.3652
   28MOL   C84228436   1.035   1.433   2.107 -0.6881  0.2331 -0.0263
   28MOL   C84328437   1.153   1.118   2.442  0.8935  0.3139 -0.2944
   28MOL   C84428438   1.240   1.002   2.470 -0.6140 -0.2803  0.7782
   28MOL   C84528439   1.560   0.921   2.438 -0.9943  0.6467  0.4424
   28MOL   C84628440   1.678   0.934   2.510  0.4314 -0.5461 -0.0503
   28MOL   H84728441   1.907   0.906   2.627  1.4704  0.3048  1.5119
   28MOL   H84828442   1.635   0.678   2.733 -3.1050 -0.2960 -0.1318
   28MOL   H84928443   1.414   0.664   2.597 -2.2799  1.8761 -1.6058
   28MOL   H85028444   1.334   0.725   2.349 -0.7382  0.5344  0.1407
   28MOL   H85128445   1.293   0.890   2.158 -1.7561  1.3102 -1.8373
   28MOL   H85228446   1.143   1.069   2.100 -2.1361 -1.3299  0.9561
   28MOL   H85328447   1.058   1.322   2.354  1.2828  2.7266 -2.3293
   28MOL   H85428448   0.899   1.121   2.113 -0.2670 -0.8288 -0.2353
   28MOL   H85528449   0.807   1.196   1.888 -1.0316 -0.2801  1.6431
   28MOL   H85628450   0.753   1.373   1.759  0.9156 -0.2136 -0.7123
   28MOL   H85728451   0.569   1.508   1.710 -1.4022  1.1887  2.1366
   28MOL   H85828452   0.488   1.741   1.664 -0.2530  0.7948  2.2494
   28MOL   H85928453   0.579   1.967   1.571 -0.6845 -0.6266  0.2137
   28MOL   H86028454   0.686   2.054   1.686 -0.5019 -0.9027 -1.3484
   28MOL   H86128455   0.860   1.905   1.756  0.6541  0.8398 -2.9660
   28MOL   H86228456   0.952   1.686   1.817 -0.3769  0.9216  0.0708
   28MOL   H86328457   0.972   1.590   1.976  1.7868 -0.0340 -0.8696
   28MOL   H86428458   1.093   1.499   2.170 -1.0741  0.1543  0.4188
   28MOL   H86528459   1.115   1.186   2.517 -2.4640 -2.4040  0.6024
   28MOL   H86628460   1.260   0.982   2.575  2.2621 -0.3256  0.2711
   28MOL   H86728461   1.546   0.983   2.351  0.6729  0.3256 -0.0861
   28MOL   H86828462   1.750   1.008   2.479  1.8267 -1.4321  1.0318
   28MOL   N86928463   0.500   1.991   1.753  0.4530 -0.2240 -0.2233
   28MOL   C87028464   0.424   2.108   1.731 -0.5724  0.4589  0.5979
   28MOL   C87128465   0.306   2.120   1.803 -0.1094 -0.6053  0.1381
   28MOL   C87228466   0.223   2.233   1.796 -0.0819  0.3321  0.3355
   28MOL   C87328467   0.264   2.345   1.718 -0.5798  0.1916 -0.4670
   28MOL   N87428468   0.188   2.460   1.706  0.0780 -0.0482 -0.0734
   28MOL   C87528469   0.108   2.527   1.803 -1.1178 -0.0169 -0.3512
   28MOL   C87628470   0.015   2.626   1.763  0.0782  0.2326 -0.3706
   28MOL   C87728471   7.908   2.684   1.853  0.1327 -0.1193  0.5164
   28MOL   C87828472   7.926   2.661   1.987  0.2038 -0.1040 -0.2938
   28MOL   N87928473   7.847   2.727   2.087  0.1004  0.3598 -0.5508
   28MOL   C88028474   7.841   2.700   2.221 -0.0624 -0.1552 -0.4011
   28MOL   C88128475   7.949   2.730   2.308  1.1311 -0.3557  0.1990
   28MOL   C88228476   7.924   2.714   2.446  0.0335 -0.1313 -0.2249
   28MOL   C88328477   7.805   2.655   2.498 -0.2621 -0.4403 -0.2565
   28MOL   N88428478   7.784   2.633   2.633  0.3524  0.1511 -0.2133
   28MOL   C88528479   7.686   2.554   2.687  0.3080  0.2271  0.8703
   28MOL   C88628480   7.606   2.604   2.793 -0.2207 -0.2549  0.2232
   28MOL   C88728481   7.502   2.525   2.842  0.4143  0.0948  0.8515
   28MOL   C88828482   7.471   2.400   2.783 -0.2071  0.3532 -0.2009
   28MOL   C88928483   7.360   2.317   2.831 -0.5898 -0.0889 -0.4118
   28MOL   C89028484   7.555   2.347   2.688 -0.3998  0.1576 -0.4192
   28MOL   C89128485   7.667   2.422   2.644  0.6012  0.7562  0.2815
   28MOL   C89228486   7.703   2.621   2.406 -0.5575  0.5209 -0.4769
   28MOL   C89328487   7.723   2.640   2.272 -0.5282  0.3282 -0.3248
   28MOL   C89428488   0.034   2.558   2.028 -0.8728  0.2193  0.4134
   28MOL   C89528489   0.113   2.489   1.935 -0.2387  0.0049  0.5019
   28MOL   C89628490   0.393   2.335   1.654  0.0567 -0.1046  0.6884
   28MOL   C89728491   0.472   2.216   1.660  0.1402  0.0229 -0.1521
   28MOL   H89828492   0.471   1.911   1.807  0.2568 -0.8937 -1.2964
   28MOL   H89928493   0.264   2.038   1.860 -1.3860  1.0758  1.6516
   28MOL   H90028494   0.129   2.234   1.848 -0.7328  3.9359 -0.7700
   28MOL   H90128495   0.186   2.506   1.616  2.4746  0.3990  0.0469
   28MOL   H90228496   0.007   2.646   1.657  2.6994 -0.0670 -0.6747
   28MOL   H90328497   7.824   2.738   1.813  0.0759 -1.1682 -0.8112
   28MOL   H90428498   7.773   2.791   2.060 -2.5455 -2.3627 -0.0478
   28MOL   H90528499   0.048   2.785   2.262  0.8544 -0.4058 -0.3566
   28MOL   H90628500   0.019   2.753   2.511  0.7410 -0.0438 -1.0958
   28MOL   H90728501   7.795   2.711   2.695  0.4304  0.1849 -0.2702
   28MOL   H90828502   7.618   2.707   2.823  0.0959  0.5348 -2.4571
   28MOL   H90928503   7.450   2.565   2.928  1.7292 -0.8766  2.1383
   28MOL   H91028504   7.335   2.251   2.749 -1.5502 -0.8676  0.4909
   28MOL   H91128505   7.265   2.368   2.842 -1.2090 -0.7302 -2.6320
   28MOL   H91228506   7.541   2.245   2.654 -0.1421 -1.0054  2.7811
   28MOL   H91328507   7.737   2.384   2.572  0.0326  1.0488 -0.4294
   28MOL   H91428508   7.610   2.576   2.438 -0.6647  2.5453  2.2905
   28MOL   H91528509   7.648   2.601   2.204  1.0453 -1.4782 -1.0776
   28MOL   H91628510   0.048   2.536   2.133 -0.3656  3.6087  1.1139
   28MOL   H91728511   0.182   2.412   1.966  1.9431  0.5944 -2.6627
   28MOL   H91828512   0.430   2.426   1.610 -2.1186 -0.0103 -1.0462
   28MOL   H91928513   0.571   2.209   1.617 -0.8114 -0.7286 -2.2552
   28MOL   N92028514   7.389   2.249   2.959  0.1981  0.2230 -0.0147
   28MOL   C92128515   7.322   2.138   2.999  0.0791  0.3120  0.0189
   28MOL   C92228516   7.211   2.083   2.933  0.4222  0.2314  0.0019
   28MOL   C92328517   7.142   1.975   2.980 -0.7596  0.5339  0.0381
   28MOL   C92428518   7.181   1.911   3.095  0.5494 -0.0232 -0.7290
   28MOL   N92528519   7.110   1.791   3.127  0.1699 -0.4664 -0.2165
   28MOL   C92628520   7.112   1.717   3.245 -0.5562  0.3544  0.0978
   28MOL   C92728521   7.108   1.792   3.367  0.2367 -0.4361  0.9077
   28MOL   C92828522   7.124   1.726   3.487  0.5584 -0.4256  0.8829
   28MOL   C92928523   7.129   1.587   3.489 -0.2376  0.2401  1.3813
   28MOL   N93028524   7.137   1.524   3.617 -0.3550  0.2804  0.3336
   28MOL   C93128525   7.161   1.388   3.633 -0.1790 -0.3483 -0.2938
   28MOL   C93228526   7.276   1.349   3.706  0.1646  0.1787 -0.1488
   28MOL   C93328527   7.304   1.212   3.721 -0.6112  0.1101 -0.0539
   28MOL   C93428528   7.233   1.115   3.649  0.2168  0.5057 -0.0229
   28MOL   N93528529   7.284   0.986   3.627 -0.2493  0.2478  0.8598
   28MOL   C93628530   7.335   0.892   3.720 -0.7687  0.1570  0.4962
   28MOL   C93728531   7.374   0.768   3.671 -0.4572  0.2227  0.5203
   28MOL   C93828532   7.427   0.672   3.759 -0.3008 -0.3856 -0.3081
   28MOL   C93928533   7.452   0.713   3.888  0.3771 -0.6840 -0.0121
   28MOL   C94028534   7.528   0.616   3.977  0.1876  0.6068  0.7490
   28MOL   C94128535   7.418   0.840   3.940  0.2994  0.5124  0.5203
   28MOL   C94228536   7.354   0.929   3.854  0.3433  0.2033  0.5062
   28MOL   C94328537   7.110   1.157   3.582 -1.0162  0.3647  0.0533
   28MOL   C94428538   7.074   1.290   3.575  0.0292 -0.9348 -0.1390
   28MOL   C94528539   7.136   1.511   3.372 -0.9404  0.4260  0.6416
   28MOL   C94628540   7.128   1.575   3.246  0.0281 -0.3294  0.4503
   28MOL   C94728541   7.291   1.957   3.165  0.0308 -0.2668  0.5010
   28MOL   C94828542   7.357   2.075   3.118  0.1709 -0.1592  0.1811
   28MOL   H94928543   7.466   2.283   3.016  1.8017 -2.4783 -0.4856
   28MOL   H95028544   7.182   2.122   2.836 -0.6188 -2.6824 -0.9194
   28MOL   H95128545   7.056   1.945   2.922 -0.9582  1.6342 -0.2568
   28MOL   H95228546   7.075   1.749   3.042  1.4551 -0.7642 -0.6183
   28MOL   H95328547   7.104   1.900   3.364 -1.5081 -0.4531  1.5845
   28MOL   H95428548   7.098   1.788   3.572 -0.1712  0.1462  0.2466
   28MOL   H95528549   7.149   1.582   3.699 -1.5580  0.0299  0.6971
   28MOL   H95628550   7.352   1.417   3.740 -1.5396  1.6972  0.6759
   28MOL   H95728551   7.396   1.187   3.772 -1.6174 -0.5729  1.4408
   28MOL   H95828552   7.285   0.955   3.531  3.7110  1.6480  0.3397
   28MOL   H95928553   7.360   0.752   3.565  3.2224  1.8337 -0.2643
   28MOL   H96028554   7.457   0.576   3.720  0.5648  0.1283 -0.9267
   28MOL   H96128555   7.619   0.660   4.018  2.0480 -0.4189 -2.1507
   28MOL   H96228556   7.565   0.526   3.929 -2.9536 -0.9887  1.1500
   28MOL   H96328557   7.435   0.862   4.044 -0.6403 -0.0548  0.8024
   28MOL   H96428558   7.314   1.019   3.898  0.4671 -0.3111  1.6696
   28MOL   H96528559   7.051   1.089   3.522  1.2046 -1.3572 -0.2414
   28MOL   H96628560   6.987   1.325   3.521 -0.6371 -0.7404  1.0479
   28MOL   H96728561   7.142   1.404   3.359  1.8109  0.6495 -0.1338
   28MOL   H96828562   7.135   1.524   3.151 -0.1908 -0.9644  0.7701
   28MOL   H96928563   7.333   1.907   3.250  1.4362 -0.6174 -0.3794
   28MOL   H97028564   7.445   2.118   3.164  1.9956 -0.8438 -2.5165
   28MOL   N97128565   7.437   0.576   4.087  0.3599 -0.4242 -0.1714
   28MOL   C97228566   7.472   0.468   4.171 -0.7579 -0.1593  0.6107
   28MOL   C97328567   7.380   0.431   4.266 -0.0234 -0.8183 -0.1283
   28MOL   C97428568   7.405   0.332   4.363 -0.0835 -0.0346 -0.2102
   28MOL   C97528569   7.520   0.254   4.347 -0.7539 -0.7932  0.3221
   28MOL   N97628570   7.544   0.142   4.427 -0.0040  0.0314 -0.2458
   28MOL   C97728571   7.540   0.139   4.566 -0.5825 -0.1001  0.2993
   28MOL   C97828572   7.595   0.245   4.642  0.2957 -0.2072  0.5620
   28MOL   C97928573   7.594   0.241   4.782  0.5111  0.3582  0.0268
   28MOL   C98028574   7.533   0.134   4.851 -0.3236  0.1526 -0.2640
   28MOL   N98128575   7.539   0.126   4.994  0.0949 -0.5007 -0.2063
   28MOL   C98228576   7.572   0.229   5.081  0.2641  0.4211  0.4942
   28MOL   C98328577   7.640   0.190   5.196 -0.3441 -0.6411  0.8418
   28MOL   C98428578   7.659   0.281   5.301  0.5425  0.2307  0.6781
   28MOL   C98528579   7.629   0.417   5.286 -0.1666  0.2256 -0.8870
   28MOL   N98628580   7.649   0.513   5.382  0.3012 -0.0291  0.1420
   28MOL   C98728581   7.750   0.511   5.480 -0.1111  0.2798  0.9068
   28MOL   C98828582   7.888   0.482   5.449  0.6736 -1.3289  0.9541
   28MOL   C98928583   7.982   0.466   5.547 -0.1546 -0.4021  0.1814
   28MOL   C99028584   7.951   0.488   5.679 -0.0141 -0.7358 -0.1110
   28MOL   C99128585   0.071   0.479   5.789 -0.2323  0.1976 -0.3340
   28MOL   C99228586   7.815   0.524   5.718 -0.8005  0.1803  0.0845
   28MOL   C99328587   7.720   0.541   5.614 -0.1556  0.1375  0.1907
   28MOL   C99428588   7.567   0.460   5.167  1.0306 -0.2276 -0.5855
   28MOL   C99528589   7.538   0.364   5.066 -0.1808  0.2423  0.1647
   28MOL   C99628590   7.478   0.025   4.776 -0.0511 -0.0179  0.9836
   28MOL   C99728591   7.487   0.026   4.637  0.1442  0.1795  0.5679
   28MOL   C99828592   7.613   0.287   4.244 -0.3770 -0.8425 -0.4964
   28MOL   C99928593   7.584   0.390   4.155 -0.3085 -0.0678  0.1015
   28MOL     H128594   7.349   0.623   4.101  0.7496  0.3796 -0.4107
   28MOL     H228595   7.289   0.488   4.272  1.1586  1.0562  0.2780
   28MOL     H328596   7.337   0.307   4.443  0.8534  0.1353  0.6478
   28MOL     H428597   7.604   0.068   4.392 -0.6391 -0.6160  0.0241
   28MOL     H528598   7.645   0.325   4.589 -0.7992  0.5119  0.5935
   28MOL     H628599   7.633   0.328   4.833  3.5741 -0.6768 -0.4730
   28MOL     H728600   7.538   0.037   5.040  0.0515 -0.3947 -0.0027
   28MOL     H828601   7.677   0.090   5.209  1.7338 -0.2936 -1.9838
   28MOL     H928602   7.716   0.252   5.388 -0.9623 -0.6860  1.3614
   28MOL    H1028603   7.564   0.564   5.400 -0.6093 -1.7459  0.8277
   28MOL    H1128604   7.922   0.476   5.347 -0.8419  0.2397  0.3480
   28MOL    H1228605   0.101   0.439   5.521 -1.0405 -1.9837 -1.7573
   28MOL    H1328606   0.036   0.480   5.893 -1.2845 -1.8920 -0.6416
   28MOL    H1428607   0.132   0.568   5.777  1.8731 -1.1702 -0.1194
   28MOL    H1528608   7.791   0.557   5.819 -0.4094 -1.4296  0.7063
   28MOL    H1628609   7.623   0.581   5.638 -1.1819 -0.3994 -2.7826
   28MOL    H1728610   7.547   0.563   5.144  1.7659  0.0414 -0.0376
   28MOL    H1828611   7.489   0.400   4.976 -1.5731  2.0920  1.6356
   28MOL    H1928612   7.425   7.925   4.821  0.6597 -2.0123 -1.6639
   28MOL    H2028613   7.438   7.927   4.584  0.3839  0.1801  0.3432
   28MOL    H2128614   7.707   0.235   4.234  0.6136  1.0844 -1.5788
   28MOL    H2228615   7.655   0.399   4.073 -2.9147 -1.8140 -2.4475
   28MOL    H2328616   0.141   0.396   5.778 -0.2375 -0.3017  2.9001
   29MOL     N128617   5.156   2.013   4.544  0.3915 -0.1977  0.1406
   29MOL     C228618   5.026   2.034   4.508 -0.4208  0.2739 -0.4924
   29MOL     C328619   4.927   1.986   4.600 -0.3134  0.2489 -0.0548
   29MOL     C428620   4.790   2.006   4.566 -0.9789  0.0244 -0.0698
   29MOL     C528621   4.762   2.070   4.443 -0.1714  0.0204 -0.2102
   29MOL     N628622   4.632   2.103   4.405 -0.2641 -1.0712 -0.2261
   29MOL     C728623   4.504   2.067   4.452 -0.5776 -0.4409  0.1872
   29MOL     C828624   4.398   2.160   4.437  0.2303 -0.0840  0.2202
   29MOL     C928625   4.272   2.128   4.490  0.4327 -0.1447 -0.3792
   29MOL    C1028626   4.251   2.010   4.563 -0.6879 -0.0124  0.7840
   29MOL    N1128627   4.126   1.978   4.618  0.7264  0.6787  0.7331
   29MOL    C1228628   4.006   1.974   4.552 -0.0855  0.1821  0.2490
   29MOL    C1328629   3.888   1.952   4.630 -0.2574 -0.1779  0.3132
   29MOL    C1428630   3.760   1.939   4.567  0.3078 -0.2535 -0.8861
   29MOL    C1528631   3.750   1.941   4.425 -0.5673  0.1176  0.8247
   29MOL    N1628632   3.630   1.922   4.345 -0.3932 -0.2406 -0.2525
   29MOL    C1728633   3.554   2.026   4.296  0.1511 -0.7222  0.1852
   29MOL    C1828634   3.611   2.153   4.258  0.2790 -0.7257  0.6801
   29MOL    C1928635   3.526   2.254   4.206  0.6401 -0.2196 -0.4426
   29MOL    C2028636   3.388   2.234   4.194  0.3366  0.0509 -0.0882
   29MOL    C2128637   3.289   2.332   4.129 -0.0541  0.3820 -0.2615
   29MOL    C2228638   3.330   2.113   4.233  0.1558  0.3107  0.2240
   29MOL    C2328639   3.413   2.005   4.285 -0.2948 -0.1753  0.3158
   29MOL    C2428640   3.870   1.961   4.351  0.4015  0.0673  0.1469
   29MOL    C2528641   3.994   1.984   4.412 -0.0334 -0.5657  1.0230
   29MOL    C2628642   4.358   1.916   4.569 -0.5117 -0.3167 -0.1593
   29MOL    C2728643   4.481   1.939   4.508 -0.2643  0.1336  0.2108
   29MOL    C2828644   4.861   2.108   4.354 -0.6199 -0.2353  0.2106
   29MOL    C2928645   4.993   2.085   4.383  0.4991 -0.2858  0.0397
   29MOL    H3028646   5.235   2.057   4.498  2.4230 -2.4572  1.3328
   29MOL    H3128647   4.962   1.955   4.697 -1.8835  1.4665  0.9235
   29MOL    H3228648   4.705   1.991   4.631 -2.2564  1.5488 -1.3474
   29MOL    H3328649   4.633   2.182   4.342  3.5262 -0.8029  0.0804
   29MOL    H3428650   4.424   2.257   4.398 -0.3938  1.0024  2.4129
   29MOL    H3528651   4.194   2.202   4.482 -1.9367 -2.6412 -1.4080
   29MOL    H3628652   4.133   1.951   4.715  0.7074 -1.3331  0.1874
   29MOL    H3728653   3.902   1.956   4.737 -0.6409 -0.5955  0.3769
   29MOL    H3828654   3.679   1.932   4.637  1.6856 -2.1554  0.5537
   29MOL    H3928655   3.563   1.857   4.383 -0.5278  0.3023  0.4567
   29MOL    H4028656   3.716   2.179   4.253 -0.6700  2.9448 -1.4887
   29MOL    H4128657   3.571   2.338   4.154  1.6821  0.8912  2.1787
   29MOL    H4228658   3.191   2.285   4.127 -0.2725  0.7663  0.8784
   29MOL    H4328659   3.317   2.341   4.024  1.6649  1.0326  0.2256
   29MOL    H4428660   3.225   2.099   4.211  0.9182 -0.7130 -2.9527
   29MOL    H4528661   3.380   1.907   4.316  2.8384 -0.9873  1.2671
   29MOL    H4628662   3.854   1.955   4.244 -1.8911 -0.6838  0.5028
   29MOL    H4728663   4.071   1.990   4.337 -0.1090  0.9156  1.0341
   29MOL    H4828664   4.349   1.818   4.612  2.7977 -1.4147 -1.7860
   29MOL    H4928665   4.556   1.861   4.510  1.4521  1.6924 -1.5188
   29MOL    H5028666   4.847   2.157   4.259  0.8703 -1.2094 -0.5363
   29MOL    H5128667   5.064   2.117   4.308  0.4062 -0.6971 -0.2263
   29MOL    H5228668   5.183   1.968   4.631  0.5431  0.2051  0.3069
   29MOL    N5328669   3.290   2.454   4.203  0.6692 -0.2497  0.0884
   29MOL    C5428670   3.216   2.459   4.327  0.3146 -0.5218  1.0833
   29MOL    C5528671   3.260   2.553   4.422  0.3544  0.0943  0.0709
   29MOL    C5628672   3.198   2.568   4.553  1.1518 -0.0737 -0.6521
   29MOL    C5728673   3.098   2.479   4.592  0.3758 -0.8140  0.4536
   29MOL    N5828674   3.044   2.472   4.723  0.1073  0.5138  0.3959
   29MOL    C5928675   3.038   2.567   4.823  0.5190  0.2673  0.5535
   29MOL    C6028676   3.046   2.520   4.959 -0.0389 -0.5558 -0.0052
   29MOL    C6128677   3.040   2.606   5.076 -0.6665  0.7108  0.1165
   29MOL    C6228678   3.014   2.740   5.049  0.6077  0.3125  0.1583
   29MOL    N6328679   2.986   2.819   5.162 -0.6425  0.2845  0.3393
   29MOL    C6428680   3.040   2.947   5.189 -0.3383  0.3058  0.9792
   29MOL    C6528681   2.985   3.036   5.284 -0.7159  0.4441 -0.0736
   29MOL    C6628682   3.048   3.151   5.321  0.0892  0.8844 -0.5641
   29MOL    C6728683   3.172   3.191   5.267  0.8146  0.3412  0.2629
   29MOL    N6828684   3.238   3.307   5.309  0.7385  0.0129  0.2855
   29MOL    C6928685   3.259   3.361   5.434 -0.0257 -0.0117 -0.2353
   29MOL    C7028686   3.224   3.294   5.551  0.9586 -0.1922 -0.1599
   29MOL    C7128687   3.280   3.340   5.677  0.4649  0.1391 -0.3578
   29MOL    C7228688   3.342   3.469   5.679 -0.2771 -0.9261  0.3515
   29MOL    C7328689   3.402   3.518   5.812  0.1421  0.3745  0.4586
   29MOL    C7428690   3.355   3.545   5.561 -0.3702  0.6946  0.0253
   29MOL    C7528691   3.320   3.486   5.438  0.6387  0.1973 -1.0184
   29MOL    C7628692   3.223   3.103   5.170 -0.0207 -0.0637  0.6252
   29MOL    C7728693   3.160   2.983   5.127  0.4002  0.3686  0.1130
   29MOL    C7828694   2.996   2.789   4.913  0.6652  0.3082  1.3357
   29MOL    C7928695   3.019   2.704   4.800  0.6158  0.4610 -0.4829
   29MOL    C8028696   3.045   2.396   4.487 -0.1689 -0.1231 -0.0724
   29MOL    C8128697   3.101   2.386   4.358 -0.3630  0.0679 -0.0037
   29MOL    H8228698   3.376   2.506   4.195 -0.3659  1.5365  0.2106
   29MOL    H8328699   3.346   2.610   4.390 -0.8629  0.7387 -2.1486
   29MOL    H8428700   3.245   2.629   4.629 -2.2233 -0.3988  1.8062
   29MOL    H8528701   2.990   2.392   4.752  0.5836  0.2846  0.6636
   29MOL    H8628702   3.064   2.415   4.977  0.1436 -0.7903 -1.5406
   29MOL    H8728703   3.040   2.564   5.175  1.1177  3.3733  1.2870
   29MOL    H8828704   2.914   2.787   5.225 -1.2523 -1.8581 -1.3943
   29MOL    H8928705   2.890   3.010   5.329 -0.2817 -0.1806  0.5013
   29MOL    H9028706   2.999   3.212   5.396  1.8672  2.4903 -0.6497
   29MOL    H9128707   3.288   3.358   5.238 -0.9661  1.2656 -0.0695
   29MOL    H9228708   3.173   3.200   5.560  0.0363  0.0726 -2.4231
   29MOL    H9328709   3.270   3.280   5.766  0.8879 -0.3482 -0.6394
   29MOL    H9428710   3.407   3.438   5.886 -1.6017 -0.1874 -0.0031
   29MOL    H9528711   3.339   3.597   5.854  0.2406  0.0929  1.1429
   29MOL    H9628712   3.416   3.633   5.574 -0.2177  0.7870 -1.2787
   29MOL    H9728713   3.344   3.536   5.346 -0.3356 -0.3279 -1.5706
   29MOL    H9828714   3.316   3.127   5.121  0.8265  3.0603  3.6134
   29MOL    H9928715   3.212   2.928   5.050  0.7156  1.0276 -0.1549
   29MOL   H10028716   2.967   2.890   4.885 -1.7226 -0.3594  1.2628
   29MOL   H10128717   3.006   2.728   4.696 -0.1539  0.6618 -0.3500
   29MOL   H10228718   2.960   2.332   4.507 -0.0157 -0.4281 -0.3955
   29MOL   H10328719   3.057   2.314   4.290  1.3456 -0.5745 -0.4487
   29MOL   N10428720   3.530   3.583   5.805 -0.4262  0.4314  0.5591
   29MOL   C10528721   3.608   3.572   5.913  0.3253 -0.1292  0.3008
   29MOL   C10628722   3.555   3.603   6.041  0.1591 -1.0971  0.4114
   29MOL   C10728723   3.633   3.579   6.156  0.3795  0.8470 -0.3634
   29MOL   C10828724   3.769   3.536   6.146  0.3510 -0.0523  1.1256
   29MOL   N10928725   3.842   3.515   6.264 -0.2587  0.4165  0.5366
   29MOL   C11028726   3.971   3.557   6.298 -0.1903 -0.8356  0.3825
   29MOL   C11128727   4.033   3.510   6.412 -0.4849  0.1108  0.3607
   29MOL   C11228728   4.148   3.569   6.464  0.2026 -0.1139  0.5246
   29MOL   C11328729   4.203   3.680   6.399 -0.0294 -0.5061  0.6333
   29MOL   N11428730   4.306   3.757   6.452 -0.6871 -0.1184 -0.2774
   29MOL   C11528731   4.382   3.740   6.569 -0.4233  0.0322 -0.4405
   29MOL   C11628732   4.334   3.678   6.690 -0.6237 -0.7974 -0.0028
   29MOL   C11728733   4.422   3.667   6.802 -0.3881  0.6364  0.2687
   29MOL   C11828734   4.554   3.719   6.798 -0.1729  0.4135  0.8356
   29MOL   N11928735   4.639   3.703   6.910 -0.8634  0.3459  0.0046
   29MOL   C12028736   4.623   3.759   7.030 -0.5931 -0.2419 -0.1073
   29MOL   C12128737   4.729   3.746   7.129 -0.8849 -0.1304 -0.0804
   29MOL   C12228738   4.715   3.801   7.257 -0.1021  0.5449  0.0420
   29MOL   C12328739   4.597   3.865   7.293  0.2682 -0.1267 -0.0077
   29MOL   C12428740   4.582   3.935   7.424 -0.4360 -0.4362 -0.1261
   29MOL   C12528741   4.494   3.875   7.199 -0.1878  0.0548 -0.3740
   29MOL   C12628742   4.510   3.824   7.070 -0.3290  0.2786  0.6172
   29MOL   C12728743   4.596   3.776   6.678 -0.3737 -0.5292  0.1505
   29MOL   C12828744   4.511   3.788   6.565 -0.0341 -0.4608 -0.0971
   29MOL   C12928745   4.145   3.725   6.276  0.3392 -0.2441  0.6473
   29MOL   C13028746   4.033   3.656   6.220 -0.2163 -0.6882 -0.9982
   29MOL   C13128747   3.816   3.511   6.015 -0.4628  0.4214  0.3703
   29MOL   C13228748   3.740   3.533   5.901 -0.5335  0.3091  0.4272
   29MOL   H13328749   3.574   3.573   5.714  0.7553 -2.5148  1.4107
   29MOL   H13428750   3.453   3.637   6.056 -0.5080 -2.2396 -1.3853
   29MOL   H13528751   3.601   3.595   6.258  2.3961  1.5095  0.1996
   29MOL   H13628752   3.792   3.469   6.338  1.1698  0.4415  1.5303
   29MOL   H13728753   3.989   3.436   6.478  0.2571 -2.2409 -1.6940
   29MOL   H13828754   4.186   3.526   6.555  2.1241  0.6531  0.0951
   29MOL   H13928755   4.338   3.822   6.382 -1.2160 -1.3408 -1.7019
   29MOL   H14028756   4.232   3.648   6.707 -0.1609 -1.7057  1.2646
   29MOL   H14128757   4.381   3.615   6.887 -1.9706  0.1513 -0.7758
   29MOL   H14228758   4.737   3.700   6.885 -0.9026  0.0961 -0.1189
   29MOL   H14328759   4.826   3.708   7.098 -0.2641  1.0672  0.3367
   29MOL   H14428760   4.789   3.803   7.335 -1.1272  0.4034  1.0410
   29MOL   H14528761   4.572   3.859   7.501  1.1993 -0.6982 -0.1438
   29MOL   H14628762   4.494   3.998   7.419 -0.5091 -0.3225  2.3510
   29MOL   H14728763   4.403   3.919   7.237  1.5855  1.3493  2.5377
   29MOL   H14828764   4.426   3.827   7.002  0.2482 -1.2703 -0.2046
   29MOL   H14928765   4.698   3.811   6.677 -0.1861 -1.0758 -1.0264
   29MOL   H15028766   4.552   3.834   6.476  1.1756  0.9106  1.1569
   29MOL   H15128767   4.174   3.812   6.220  1.3187  1.4107  3.5894
   29MOL   H15228768   3.981   3.706   6.140 -1.4193  0.2175  0.3160
   29MOL   H15328769   3.914   3.465   6.014 -0.8615 -0.4340 -0.1530
   29MOL   H15428770   3.777   3.504   5.804 -1.7730  0.6237 -0.1573
   29MOL   N15528771   4.698   4.023   7.449 -0.1505  0.1559  0.5745
   29MOL   C15628772   4.703   4.093   7.565 -1.3107 -0.4256  0.0461
   29MOL   C15728773   4.794   4.201   7.582 -1.1228  0.5426  0.1347
   29MOL   C15828774   4.805   4.268   7.702 -0.0499  0.1947 -0.4969
   29MOL   C15928775   4.739   4.229   7.821 -0.3203 -0.3059 -0.4278
   29MOL   N16028776   4.760   4.299   7.936  0.1166  0.3790 -0.1798
   29MOL   C16128777   4.838   4.416   7.955  0.0127  0.3684 -0.3537
   29MOL   C16228778   4.974   4.421   7.925 -0.9717  0.4174  0.1756
   29MOL   C16328779   5.049   4.532   7.964  0.2826  0.1326  0.2699
   29MOL   C16428780   4.986   4.646   0.039 -0.4557  0.1895  0.1664
   29MOL   N16528781   5.061   4.760   0.062  0.3795  0.0788 -0.1557
   29MOL   C16628782   5.012   4.885   0.103  0.8985  0.1664  0.0446
   29MOL   C16728783   4.919   4.956   0.024 -0.2648 -0.2452  0.0259
   29MOL   C16828784   4.901   5.093   0.065 -0.4798  0.3097 -0.2932
   29MOL   C16928785   4.967   5.152   0.178 -0.6252  0.1992  0.1993
   29MOL   N17028786   4.934   5.277   0.220  0.4638  0.0808 -0.4306
   29MOL   C17128787   4.839   5.372   0.166  0.2672  1.1016 -0.2550
   29MOL   C17228788   4.736   5.421   0.249 -0.1346  0.0398 -0.1823
   29MOL   C17328789   4.640   5.515   0.192 -0.1565 -0.3599 -0.0131
   29MOL   C17428790   4.654   5.568   0.062 -0.1850  0.0484 -0.2702
   29MOL   C17528791   4.537   5.649   0.002  0.2212 -0.2110 -0.0433
   29MOL   C17628792   4.762   5.523   7.960 -0.0361  0.6429  0.4196
   29MOL   C17728793   4.845   5.415   0.029  0.0714 -0.6701 -0.1342
   29MOL   C17828794   5.046   5.066   0.252 -0.7189 -0.3924 -0.0465
   29MOL   C17928795   5.072   4.936   0.220  0.2577 -0.2969 -0.1442
   29MOL   C18028796   4.847   4.645   0.066 -0.1071 -0.2664  1.0856
   29MOL   C18128797   4.774   4.531   0.027 -0.7376 -0.7873 -1.2415
   29MOL   C18228798   4.641   4.130   7.805 -0.1190  0.1517  0.1387
   29MOL   C18328799   4.619   4.075   7.678  0.2120 -0.4048 -0.4300
   29MOL   H18428800   4.756   4.033   7.367 -0.0817  1.0252  0.7242
   29MOL   H18528801   4.864   4.210   7.501 -1.3417 -2.2301 -0.4063
   29MOL   H18628802   4.865   4.357   7.710 -1.4815  1.0302  1.3211
   29MOL   H18728803   4.683   4.299   0.019 -1.1404  0.1124 -1.6622
   29MOL   H18828804   5.017   4.342   7.865  1.2018  0.8666  1.1074
   29MOL   H18928805   5.155   4.535   7.947  0.5217 -0.5522  1.6027
   29MOL   H19028806   5.161   4.747   0.054  0.2334 -1.8341  0.8889
   29MOL   H19128807   4.864   4.912   7.925 -0.7487  0.2775  0.0685
   29MOL   H19228808   4.831   5.152   0.007 -1.9237 -2.3359 -1.3649
   29MOL   H19328809   4.960   5.297   0.316 -0.6625 -0.2504 -0.0464
   29MOL   H19428810   4.724   5.390   0.351 -0.9007  0.3601 -0.1707
   29MOL   H19528811   4.556   5.549   0.251 -0.2875 -1.3539  0.3919
   29MOL   H19628812   4.556   5.699   7.889 -2.2771 -1.7604 -1.3967
   29MOL   H19728813   4.514   5.725   0.077  1.3290  2.1439 -2.0178
   29MOL   H19828814   4.776   5.556   7.858  1.4722  1.1314  0.7721
   29MOL   H19928815   4.920   5.378   7.943  0.8681 -0.5594  0.6869
   29MOL   H20028816   5.078   5.095   0.351  2.2346  0.1933 -1.1149
   29MOL   H20128817   5.142   4.873   0.273  0.4426 -1.0551 -1.2736
   29MOL   H20228818   4.792   4.731   0.099 -0.4553  0.2825 -0.8816
   29MOL   H20328819   4.667   4.536   0.040 -0.3812  1.9241  1.1017
   29MOL   H20428820   4.572   4.089   7.878  0.0951  0.8668  0.7448
   29MOL   H20528821   4.536   4.008   7.667 -0.4841  0.4701 -0.5623
   29MOL   N20628822   4.410   5.575   7.955 -0.0035 -0.8247  0.4812
   29MOL   C20728823   4.411   5.455   7.883 -0.0642  0.7371  0.5058
   29MOL   C20828824   4.311   5.362   7.911  0.2663  0.2097  0.2003
   29MOL   C20928825   4.291   5.254   7.816  1.1442  0.1070 -0.0957
   29MOL   C21028826   4.402   5.209   7.736  0.2263 -0.0368  0.2259
   29MOL   N21128827   4.390   5.082   7.684 -0.6300 -0.3501 -0.1839
   29MOL   C21228828   4.490   5.004   7.621 -0.5571  0.1026  0.1776
   29MOL   C21328829   4.452   4.921   7.509  0.3744 -0.7251 -0.7391
   29MOL   C21428830   4.543   4.836   7.449 -0.3596 -0.4459  0.1744
   29MOL   C21528831   4.680   4.833   7.496 -0.2581  0.0566  0.4501
   29MOL   N21628832   4.778   4.765   7.426 -0.7330  0.2112 -0.3890
   29MOL   C21728833   4.765   4.642   7.355  0.4231 -0.1618 -0.6765
   29MOL   C21828834   4.852   4.609   7.252 -0.0018  0.2377  0.1793
   29MOL   C21928835   4.848   4.480   7.190  0.2158  0.4855  1.0164
   29MOL   C22028836   4.754   4.386   7.231  0.2859 -0.2546 -1.1420
   29MOL   N22128837   4.755   4.253   7.186  0.6542  0.2178  0.2242
   29MOL   C22228838   4.853   4.177   7.122  0.8375  0.5591  0.4615
   29MOL   C22328839   4.993   4.192   7.141 -0.5120 -0.8916  0.3343
   29MOL   C22428840   5.086   4.118   7.071 -0.0584  0.2958  0.8726
   29MOL   C22528841   5.042   4.015   6.986  0.2011 -0.1532 -0.3113
   29MOL   C22628842   5.139   3.910   6.938  0.7125  0.1136  0.8982
   29MOL   C22728843   4.900   3.990   6.970 -0.4990  0.5653 -0.1462
   29MOL   C22828844   4.808   4.070   7.037 -0.2535 -0.1428  0.4172
   29MOL   C22928845   4.665   4.420   7.336 -0.1073  0.1252 -0.9667
   29MOL   C23028846   4.664   4.552   7.398 -0.1596 -0.1127  0.4647
   29MOL   C23128847   4.714   4.914   7.603 -0.0941 -0.3155  0.4845
   29MOL   C23228848   4.624   5.009   7.666  0.7563 -0.8968 -0.2214
   29MOL   C23328849   4.513   5.290   7.725  0.0627  0.0768 -0.1459
   29MOL   C23428850   4.517   5.414   7.795  0.9497  0.3835 -0.6411
   29MOL   H23528851   4.357   5.555   0.056  0.2226  0.2658  0.8958
   29MOL   H23628852   4.225   5.386   7.972 -0.3355 -0.1461 -0.4947
   29MOL   H23728853   4.201   5.195   7.830  1.1653  0.1397  0.1774
   29MOL   H23828854   4.294   5.060   7.662 -0.4323 -0.9087 -0.5069
   29MOL   H23928855   4.351   4.914   7.472  0.5295 -1.7539 -0.9846
   29MOL   H24028856   4.513   4.766   7.372  0.6453 -0.8341  0.1267
   29MOL   H24128857   4.871   4.800   7.445 -0.5103 -0.7654  0.4037
   29MOL   H24228858   4.929   4.674   7.214  0.6952 -0.7200 -0.0832
   29MOL   H24328859   4.919   4.447   7.116  0.2654  0.7295  0.9560
   29MOL   H24428860   4.666   4.211   7.206  1.3202 -1.4994 -0.3437
   29MOL   H24528861   5.032   4.270   7.205  0.3897 -1.3692  0.3815
   29MOL   H24628862   5.190   4.145   7.081  0.4181 -1.7276  1.6739
   29MOL   H24728863   5.233   3.913   6.994 -0.2844 -2.0059  2.7737
   29MOL   H24828864   5.162   3.942   6.837  2.2696 -0.6459  0.9929
   29MOL   H24928865   4.863   3.915   6.901  0.1462 -0.0156  0.1380
   29MOL   H25028866   4.704   4.065   7.008 -0.2445 -0.4773  0.4405
   29MOL   H25128867   4.598   4.345   7.375  0.2920  0.2682  0.0112
   29MOL   H25228868   4.599   4.572   7.482 -1.3895  1.4966 -0.8179
   29MOL   H25328869   4.817   4.906   7.632  0.7884 -2.5824 -2.9486
   29MOL   H25428870   4.653   5.057   7.758 -2.5985  1.3019 -0.2554
   29MOL   H25528871   4.589   5.257   7.656  0.4112 -1.0088  0.7470
   29MOL   H25628872   4.592   5.489   7.775 -1.3577  3.1672  0.6888
   29MOL   N25728873   5.073   3.778   6.936  0.0621 -0.0587 -0.1704
   29MOL   C25828874   5.069   3.686   7.046 -0.3644  0.0115 -0.1274
   29MOL   C25928875   5.110   3.717   7.180  0.3315  0.2518  0.2834
   29MOL   C26028876   5.075   3.629   7.283 -0.1663 -0.3846 -0.5237
   29MOL   C26128877   5.027   3.500   7.255  0.3572  0.4962 -0.9193
   29MOL   N26228878   5.016   3.407   7.359  0.2287  0.3241 -0.3518
   29MOL   C26328879   4.994   3.268   7.360 -0.3144  0.2018  0.2178
   29MOL   C26428880   5.057   3.190   7.260 -0.5263  0.1108  0.0311
   29MOL   C26528881   5.027   3.053   7.247  0.8163 -0.3790 -0.1046
   29MOL   C26628882   4.939   2.992   7.339 -0.1660 -0.2895 -0.3675
   29MOL   N26728883   4.906   2.862   7.325  0.2345  0.0341  0.1520
   29MOL   C26828884   4.805   2.782   7.378 -0.2292  0.3680 -0.5145
   29MOL   C26928885   4.680   2.843   7.411 -0.1495 -0.3054  0.0228
   29MOL   C27028886   4.580   2.772   7.474 -0.6690  0.4122 -0.0926
   29MOL   C27128887   4.594   2.632   7.500  0.2271  0.6734 -0.3559
   29MOL   N27228888   4.499   2.559   7.567  0.0931 -0.1315  0.6366
   29MOL   C27328889   4.384   2.604   7.636  0.8161 -0.0313  0.4197
   29MOL   C27428890   4.262   2.566   7.584  0.2961  0.1143 -0.0084
   29MOL   C27528891   4.143   2.610   7.644  0.3865  0.2807 -0.3677
   29MOL   C27628892   4.152   2.686   7.766  0.0625  0.0391 -0.4806
   29MOL   C27728893   4.032   2.705   7.854  0.0525  0.7264 -0.4366
   29MOL   C27828894   4.277   2.728   7.810 -0.7592  0.4256 -0.2921
   29MOL   C27928895   4.396   2.689   7.745 -0.4543  0.1742  0.2270
   29MOL   C28028896   4.720   2.573   7.470  0.5408  0.1240 -0.2376
   29MOL   C28128897   4.825   2.646   7.407  0.3078  0.6520  0.2679
   29MOL   C28228898   4.885   3.073   7.446 -0.7664  0.0209  0.0776
   29MOL   C28328899   4.912   3.209   7.456  0.4578 -0.2366 -0.5380
   29MOL   C28428900   4.994   3.470   7.119 -0.3470  0.0993 -0.4024
   29MOL   C28528901   5.018   3.562   7.018 -0.8046 -0.4065 -0.3373
   29MOL   H28628902   5.057   3.735   6.846 -0.7700 -1.0454  0.4418
   29MOL   H28728903   5.155   3.814   7.192  0.1348  0.3086  0.5691
   29MOL   H28828904   5.094   3.661   7.385  1.5921 -0.4340 -0.8204
   29MOL   H28928905   5.020   3.444   7.453 -1.1538 -0.0239 -0.1363
   29MOL   H29028906   5.108   3.225   7.171 -1.3208  0.6090 -0.2409
   29MOL   H29128907   5.060   2.992   7.164 -1.2249  0.8507 -1.8807
   29MOL   H29228908   4.992   2.813   7.303 -0.8650 -1.9784  0.1562
   29MOL   H29328909   4.668   2.946   7.378  0.8221  0.0399  0.7138
   29MOL   H29428910   4.489   2.821   7.504 -0.6354  0.2537  0.2655
   29MOL   H29528911   4.480   2.475   7.514 -4.1460  2.5346 -2.4565
   29MOL   H29628912   4.265   2.500   7.499  2.8555  0.6763 -0.3891
   29MOL   H29728913   4.047   2.574   7.610 -0.4613  1.8103  0.3480
   29MOL   H29828914   4.045   2.665   7.954 -2.0263 -0.4634 -0.6117
   29MOL   H29928915   3.950   2.653   7.805 -0.8026  0.9898  0.6816
   29MOL   H30028916   4.276   2.788   7.900  0.1106  0.5128 -0.3338
   29MOL   H30128917   4.491   2.699   7.795 -0.1409 -0.7907 -0.1539
   29MOL   H30228918   4.735   2.468   7.491 -1.0764  0.0126  0.4185
   29MOL   H30328919   4.920   2.601   7.383 -1.0163 -2.0078 -0.2494
   29MOL   H30428920   4.816   3.030   7.517  2.1705  0.5054  3.3749
   29MOL   H30528921   4.879   3.259   7.546  1.4196 -0.7213  0.0952
   29MOL   H30628922   4.947   3.377   7.090  1.4671 -1.5080  1.5441
   29MOL   H30728923   4.990   3.533   6.918  1.7857  0.4401 -1.3361
   29MOL   N30828924   4.008   2.845   7.870  1.0994 -0.8510 -0.3833
   29MOL   C30928925   3.891   2.901   7.919 -0.8609 -0.5281 -0.1265
   29MOL   C31028926   3.803   2.819   0.013 -0.4434 -0.1295  0.0033
   29MOL   C31128927   3.690   2.872   0.076  0.5384 -0.3192  0.3633
   29MOL   C31228928   3.668   3.013   0.064 -0.5235 -0.0806 -0.4144
   29MOL   N31328929   3.574   3.076   0.146  0.1679  0.1725 -0.3633
   29MOL   C31428930   3.436   3.041   0.157  0.6071 -0.3402 -0.4415
   29MOL   C31528931   3.376   2.940   0.078  0.1721 -0.4691 -0.0376
   29MOL   C31628932   3.236   2.920   0.088 -0.0624 -0.3879  0.1272
   29MOL   C31728933   3.157   2.994   0.175 -0.0714  0.0852  0.3190
   29MOL   N31828934   3.024   2.951   0.171  0.4237 -0.3236 -0.4243
   29MOL   C31928935   2.916   3.040   0.169 -0.0215 -0.2112 -0.0402
   29MOL   C32028936   2.795   3.008   0.238  0.6441  0.7750 -0.4260
   29MOL   C32128937   2.686   3.099   0.230 -0.1090  0.4797 -0.1097
   29MOL   C32228938   2.692   3.208   0.150 -0.0322 -1.1928  0.0309
   29MOL   N32328939   2.582   3.295   0.148 -0.4198 -0.4693  0.2677
   29MOL   C32428940   2.548   3.383   0.042  0.0876 -0.1910  0.7137
   29MOL   C32528941   2.468   3.500   0.066  0.1154  0.1131  0.3407
   29MOL   C32628942   2.434   3.588   7.939  0.0138 -0.2485 -0.7013
   29MOL   C32728943   2.473   3.555   7.809 -0.2390 -0.5097  0.4620
   29MOL   C32828944   2.438   3.649   7.691 -0.2945 -0.0930 -0.1565
   29MOL   C32928945   2.554   3.437   7.783  0.2505  0.0923  0.4112
   29MOL   C33028946   2.586   3.357   7.892  0.0579  0.2351  0.1885
   29MOL   C33128947   2.814   3.254   0.092 -0.8310  0.1956  0.1179
   29MOL   C33228948   2.925   3.168   0.105 -0.6375 -0.4489  0.0797
   29MOL   C33328949   3.216   3.093   0.253  0.2121 -0.0446  1.0799
   29MOL   C33428950   3.351   3.113   0.245 -0.5428  0.2095 -0.2149
   29MOL   C33528951   3.749   3.091   7.962 -0.3559 -0.1847 -0.5320
   29MOL   C33628952   3.863   3.040   7.899  0.2224 -0.2452  0.3326
   29MOL   H33728953   4.047   2.897   7.792 -0.0571 -3.4146 -2.7508
   29MOL   H33828954   3.816   2.713   0.030  1.1575  0.4824  2.9594
   29MOL   H33928955   3.627   2.807   0.134 -2.8830  3.3952  1.0157
   29MOL   H34028956   3.607   3.160   0.192 -2.9959  1.3572 -0.1083
   29MOL   H34128957   3.431   2.871   0.015 -2.9514  0.5067 -4.0983
   29MOL   H34228958   3.191   2.839   0.032 -1.0514 -1.1012  1.9254
   29MOL   H34328959   2.993   2.860   0.200  1.7469 -0.0800  1.8551
   29MOL   H34428960   2.797   2.919   0.299  3.1686  1.9771  1.3800
   29MOL   H34528961   2.591   3.070   0.273 -0.0551  0.3326 -0.0900
   29MOL   H34628962   2.508   3.275   0.214 -2.3055 -0.6285 -1.8401
   29MOL   H34728963   2.420   3.519   0.161  0.1886  0.9243  0.2227
   29MOL   H34828964   2.362   3.666   7.956  1.6237  1.1614 -0.1652
   29MOL   H34928965   2.477   3.748   7.718  0.0144 -0.8601  2.3061
   29MOL   H35028966   2.331   3.670   7.688 -0.5245 -1.2102 -0.0002
   29MOL   H35128967   2.581   3.409   7.683  0.6172  1.3711  0.1423
   29MOL   H35228968   2.650   3.270   7.879  2.1420  1.7678 -0.0357
   29MOL   H35328969   2.821   3.354   0.050  1.6273  0.8799  2.0074
   29MOL   H35428970   3.018   3.199   0.059 -2.4873  2.3676 -1.8907
   29MOL   H35528971   3.155   3.141   0.328 -0.1251  0.5232  0.4535
   29MOL   H35628972   3.398   3.190   0.304 -0.4231 -0.8631  1.1184
   29MOL   H35728973   3.731   3.198   7.952 -2.0506 -0.1077  2.8507
   29MOL   H35828974   3.927   3.098   7.834  0.8603 -0.7959  0.4539
   29MOL   N35928975   2.473   3.595   7.557  0.1946 -0.1971  0.1985
   29MOL   C36028976   2.513   3.673   7.453 -0.4501  0.0138  0.2521
   29MOL   C36128977   2.478   3.809   7.452 -0.0062  0.3334 -0.4625
   29MOL   C36228978   2.530   3.893   7.346  0.0823  0.0858  0.1252
   29MOL   C36328979   2.602   3.838   7.239  0.5354 -0.2999 -0.1868
   29MOL   N36428980   2.657   3.910   7.129 -0.0151  0.7382 -0.0489
   29MOL   C36528981   2.610   4.038   7.083 -0.3739 -0.4497  0.2722
   29MOL   C36628982   2.471   4.070   7.097 -0.7456  0.0791 -0.0702
   29MOL   C36728983   2.430   4.188   7.035 -0.2120  0.0157 -0.1370
   29MOL   C36828984   2.515   4.275   6.958 -0.4295 -0.2705  0.3187
   29MOL   N36928985   2.467   4.391   6.894 -0.1629  0.1216  0.2581
   29MOL   C37028986   2.527   4.478   6.803  0.1649 -0.1236 -0.0799
   29MOL   C37128987   2.505   4.614   6.820  0.9189 -0.5549 -0.1156
   29MOL   C37228988   2.558   4.707   6.727 -0.4469  0.2235  0.6184
   29MOL   C37328989   2.625   4.664   6.614 -0.1031  0.5280  0.2339
   29MOL   N37428990   2.680   4.761   6.529 -0.0295 -0.0153  0.3361
   29MOL   C37528991   2.678   4.759   6.386  0.3714  0.1474 -0.3486
   29MOL   C37628992   2.586   4.682   6.311  0.0534  0.1226 -0.4973
   29MOL   C37728993   2.600   4.686   6.168 -0.6940  0.2309  0.0893
   29MOL   C37828994   2.692   4.779   6.104  0.6159  0.5069  0.0281
   29MOL   C37928995   2.704   4.790   5.948 -0.0132  0.5004 -0.1945
   29MOL   C38028996   2.783   4.850   6.185 -0.5215  0.5324  0.2664
   29MOL   C38128997   2.770   4.844   6.321 -0.3781 -0.1234  0.3223
   29MOL   C38228998   2.645   4.525   6.596 -0.6045 -0.0495  0.1093
   29MOL   C38328999   2.589   4.434   6.686  0.0030  0.0696  0.3999
   29MOL   C38429000   2.655   4.242   6.959  0.0098 -0.3689  0.3468
   29MOL   C38529001   2.700   4.120   7.010 -0.4919  0.3109 -0.9782
   29MOL   C38629002   2.639   3.702   7.243  0.0187  0.0104 -0.2303
   29MOL   C38729003   2.590   3.625   7.345 -0.6722 -0.1279 -0.5146
   29MOL   H38829004   2.538   3.519   7.569 -2.3892 -2.0804  2.9335
   29MOL   H38929005   2.413   3.852   7.527  0.9112  0.7347  0.1107
   29MOL   H39029006   2.513   4.000   7.348  0.2258  0.1075  2.9543
   29MOL   H39129007   2.746   3.869   7.102  0.4388  2.0668 -0.6408
   29MOL   H39229008   2.399   4.004   7.142  1.5337 -0.1588  3.4026
   29MOL   H39329009   2.327   4.212   7.054 -0.3095 -2.3648  2.7024
   29MOL   H39429010   2.389   4.431   6.944 -0.6198  1.4863 -1.4965
   29MOL   H39529011   2.457   4.657   6.907 -0.2784 -2.4697  0.1991
   29MOL   H39629012   2.544   4.811   6.753  0.6946  0.8791 -1.2997
   29MOL   H39729013   2.733   4.838   6.567  0.6364 -1.3142  2.0977
   29MOL   H39829014   2.528   4.604   6.357  0.0181  0.0565 -0.6511
   29MOL   H39929015   2.533   4.623   6.111 -1.2043  2.0179 -1.3662
   29MOL   H40029016   2.811   4.776   5.933 -0.2712 -0.7943 -0.8948
   29MOL   H40129017   2.670   4.888   5.914 -0.0034  0.5827  0.0287
   29MOL   H40229018   2.863   4.906   6.138 -1.0344  0.3457 -0.8663
   29MOL   H40329019   2.845   4.895   6.381 -0.8099 -0.1133  0.8567
   29MOL   H40429020   2.700   4.486   6.512  0.8854 -0.8515  1.4360
   29MOL   H40529021   2.597   4.327   6.674 -0.8140 -0.0168  0.6084
   29MOL   H40629022   2.723   4.297   6.896  2.3006 -2.5737  0.8303
   29MOL   H40729023   2.805   4.095   7.002 -0.2566 -0.1275  2.5094
   29MOL   H40829024   2.695   3.661   7.160 -0.2920  3.4825 -2.2701
   29MOL   H40929025   2.612   3.519   7.345 -0.7136 -0.1367 -0.4931
   29MOL   N41029026   2.627   4.689   5.873  0.0192 -0.1642  0.0557
   29MOL   C41129027   2.646   4.555   5.880 -0.1369 -0.1847  0.0915
   29MOL   C41229028   2.556   4.467   5.826 -0.5048 -0.6529  0.5106
   29MOL   C41329029   2.574   4.328   5.837  0.1444 -0.3916 -0.3994
   29MOL   C41429030   2.673   4.275   5.915  0.0748  0.3255  0.1624
   29MOL   N41529031   2.681   4.134   5.945  0.0392 -0.5366  0.9403
   29MOL   C41629032   2.700   4.057   6.060  0.2387 -0.3388  0.4516
   29MOL   C41729033   2.723   3.919   6.050 -0.0164 -1.1257 -0.0599
   29MOL   C41829034   2.748   3.843   6.165  0.4309 -0.5071 -0.4283
   29MOL   C41929035   2.754   3.901   6.292 -0.2022 -0.2797 -0.4891
   29MOL   N42029036   2.772   3.819   6.403  0.0785  0.3728 -0.2233
   29MOL   C42129037   2.823   3.845   6.523 -0.3646 -0.1216  0.7853
   29MOL   C42229038   2.944   3.913   6.540  0.5852  0.2959 -0.1549
   29MOL   C42329039   2.985   3.947   6.671 -0.8452 -0.0578  0.5803
   29MOL   C42429040   2.920   3.895   6.786  0.6365  0.3554 -0.2810
   29MOL   N42529041   2.971   3.913   6.910  0.0054  0.5441 -0.1389
   29MOL   C42629042   2.972   3.818   7.017 -0.0548 -0.0167 -0.3745
   29MOL   C42729043   2.943   3.684   6.992  0.2118  0.6701  0.4056
   29MOL   C42829044   2.930   3.595   7.103 -0.1040 -0.3519  0.2909
   29MOL   C42929045   2.958   3.639   7.238  0.4752  0.5814  0.0617
   29MOL   C43029046   2.977   3.546   7.359 -0.1482  0.0623 -0.0784
   29MOL   C43129047   2.973   3.776   7.257 -0.9105 -1.0430 -0.4846
   29MOL   C43229048   2.980   3.865   7.148  0.4336 -0.5353  0.6366
   29MOL   C43329049   2.797   3.836   6.768 -0.1148 -0.1447 -0.3494
   29MOL   C43429050   2.755   3.808   6.637 -0.1487 -0.4865 -0.2316
   29MOL   C43529051   2.722   4.038   6.301  0.0653  0.9867 -0.3870
   29MOL   C43629052   2.691   4.118   6.191 -0.1421  0.6609  0.4394
   29MOL   C43729053   2.772   4.363   5.971 -0.0963 -0.0839 -0.1570
   29MOL   C43829054   2.754   4.499   5.952 -0.4394 -0.0163  0.1512
   29MOL   H43929055   2.561   4.719   5.803 -0.3540 -1.2345 -0.0547
   29MOL   H44029056   2.468   4.498   5.771  1.7329 -0.6483 -3.2767
   29MOL   H44129057   2.504   4.255   5.800 -2.3247  0.4654  2.4056
   29MOL   H44229058   2.648   4.076   5.869  0.2402 -1.7938  1.8102
   29MOL   H44329059   2.719   3.872   5.953 -2.2541 -0.6350 -0.2276
   29MOL   H44429060   2.766   3.740   6.140  1.7296  0.1241 -2.2300
   29MOL   H44529061   2.749   3.724   6.377  0.7604  0.3354 -0.7078
   29MOL   H44629062   3.003   3.936   6.452  0.4396 -2.1137 -0.9404
   29MOL   H44729063   3.083   3.993   6.672  0.1223 -1.8775 -1.9971
   29MOL   H44829064   3.049   3.977   6.910  0.3202  0.1572  0.7986
   29MOL   H44929065   2.934   3.634   6.896 -0.4396  0.9969  0.2956
   29MOL   H45029066   2.923   3.489   7.084  2.0916 -0.7666  1.5421
   29MOL   H45129067   2.915   3.581   7.442  1.6075  1.4890  0.6573
   29MOL   H45229068   3.082   3.552   7.386 -0.5123  1.9451  0.9485
   29MOL   H45329069   2.994   3.811   7.357 -0.2900 -0.1113 -0.9368
   29MOL   H45429070   3.000   3.968   7.173  0.0169 -0.0410 -1.0069
   29MOL   H45529071   2.732   3.800   6.846  1.2554  0.9618  1.3278
   29MOL   H45629072   2.667   3.744   6.637  0.7660 -1.7587 -0.1433
   29MOL   H45729073   2.725   4.082   6.400  2.2215  1.4921 -0.6529
   29MOL   H45829074   2.676   4.223   6.206  0.4596  0.8538 -0.2765
   29MOL   H45929075   2.853   4.328   6.033 -0.9714  0.1069  1.1120
   29MOL   H46029076   2.825   4.572   5.989 -0.7485  0.4310 -0.1306
   29MOL   N46129077   2.946   3.406   7.337  0.3788  0.1061  0.4696
   29MOL   C46229078   2.940   3.314   7.443  0.7453  1.0340  0.2150
   29MOL   C46329079   2.898   3.340   7.575  0.2402  0.4238  0.2869
   29MOL   C46429080   2.884   3.242   7.680  0.2580 -0.1836  0.1818
   29MOL   C46529081   2.930   3.108   7.648 -0.1519  0.5228  0.2789
   29MOL   N46629082   2.921   3.008   7.746  0.2869 -0.2155 -0.0406
   29MOL   C46729083   2.921   2.868   7.728 -0.0128  0.0377  0.0018
   29MOL   C46829084   2.925   2.794   7.841 -1.1546  0.1668 -0.4608
   29MOL   C46929085   2.928   2.653   7.843 -0.0892  0.0662 -0.3201
   29MOL   C47029086   2.926   2.584   7.715 -0.0416 -0.0995 -0.3864
   29MOL   N47129087   2.940   2.444   7.718 -0.2352  0.4278 -1.2899
   29MOL   C47229088   2.950   2.363   7.609 -0.1015 -0.2569 -0.0868
   29MOL   C47329089   3.019   2.402   7.493 -0.3792  0.0552 -1.0973
   29MOL   C47429090   3.047   2.307   7.395  0.0113  0.0507  0.4917
   29MOL   C47529091   2.986   2.183   7.393  0.3194  0.6999 -0.6357
   29MOL   N47629092   3.015   2.103   7.281 -0.2016  0.0498  0.2293
   29MOL   C47729093   2.932   2.065   7.177 -0.8893 -0.3148 -0.0670
   29MOL   C47829094   2.819   2.138   7.136 -0.2497 -0.2975 -0.0745
   29MOL   C47929095   2.747   2.095   7.023 -0.0319 -0.5123 -0.0409
   29MOL   C48029096   2.798   1.995   6.940  0.4315  0.4787  0.2915
   29MOL   C48129097   2.720   1.938   6.817 -0.2400 -0.0984  0.3404
   29MOL   C48229098   2.919   1.932   6.980  0.1108 -0.1003 -0.4418
   29MOL   C48329099   2.985   1.962   7.098  0.2303  0.1347  0.0747
   29MOL   C48429100   2.904   2.146   7.501 -0.3045  0.4723  0.5786
   29MOL   C48529101   2.891   2.235   7.614  1.2972  0.1312 -0.8639
   29MOL   C48629102   2.906   2.658   7.597 -0.3453  0.6493 -0.6331
   29MOL   C48729103   2.909   2.796   7.605 -0.2632 -0.3824 -0.1358
   29MOL   C48829104   2.992   3.082   7.524 -0.3250  0.0663 -0.2297
   29MOL   C48929105   2.990   3.181   7.423  0.0600  0.0042 -0.3869
   29MOL   H49029106   2.982   3.355   7.258  0.9624  0.0003  0.8012
   29MOL   H49129107   2.849   3.434   7.592  1.8519  1.4252 -0.4258
   29MOL   H49229108   2.837   3.267   7.774 -2.9034 -2.0196 -0.8551
   29MOL   H49329109   2.888   3.027   7.839 -0.6838  0.1232 -0.4532
   29MOL   H49429110   2.913   2.846   7.935  0.4787  1.2693 -0.8522
   29MOL   H49529111   2.933   2.593   7.933 -0.1392  0.9038  0.2399
   29MOL   H49629112   2.899   2.398   7.798  1.3694  1.6881  0.3318
   29MOL   H49729113   3.071   2.497   7.490 -0.1845  0.0458  1.1474
   29MOL   H49829114   3.121   2.325   7.318 -0.1283  1.5382  0.6783
   29MOL   H49929115   3.111   2.094   7.249 -0.8761  0.5823 -2.0707
   29MOL   H50029116   2.781   2.224   7.188  1.4112 -0.6437  1.7767
   29MOL   H50129117   2.658   2.151   6.998  0.2661  1.2018  2.6427
   29MOL   H50229118   2.637   2.003   6.790 -2.0371 -2.8539 -1.0223
   29MOL   H50329119   2.678   1.840   6.839 -0.2844  0.8248  4.7443
   29MOL   H50429120   2.973   1.863   6.916 -1.1686 -1.1344 -0.4113
   29MOL   H50529121   3.083   1.920   7.114 -0.3030 -1.6917 -1.2567
   29MOL   H50629122   2.848   2.054   7.494  2.1080 -0.9408 -0.7486
   29MOL   H50729123   2.834   2.209   7.703  0.0270 -0.2624 -1.7847
   29MOL   H50829124   2.879   2.609   7.505 -1.2648  1.2854 -0.7091
   29MOL   H50929125   2.899   2.843   7.509 -2.0906 -1.4365 -0.4747
   29MOL   H51029126   3.027   2.984   7.494 -3.0047 -0.6119 -1.2378
   29MOL   H51129127   3.034   3.166   7.326 -0.4297 -0.0662 -0.5982
   29MOL   N51229128   2.810   1.936   6.704 -0.3807  0.9354 -0.2718
   29MOL   C51329129   2.838   1.813   6.641 -0.0404  0.0180 -0.1396
   29MOL   C51429130   2.842   1.691   6.715  0.8557 -0.0866 -0.4129
   29MOL   C51529131   2.862   1.570   6.649 -0.4396 -0.2794 -0.1516
   29MOL   C51629132   2.894   1.571   6.510 -0.1509 -0.2143  0.0675
   29MOL   N51729133   2.936   1.456   6.441 -0.9097  0.2610  0.1737
   29MOL   C51829134   2.936   1.323   6.494 -0.4497 -0.2821  0.1627
   29MOL   C51929135   3.051   1.244   6.496  0.3216  0.4484  0.4203
   29MOL   C52029136   3.046   1.119   6.566  0.3815  0.1079  0.2550
   29MOL   C52129137   2.931   1.087   6.636 -0.4244 -0.1653  0.0240
   29MOL   N52229138   2.914   0.957   6.696  0.8124  0.3610  0.3973
   29MOL   C52329139   2.871   0.932   6.826 -0.3718  0.7290 -0.0594
   29MOL   C52429140   2.825   0.801   6.864 -0.2517 -0.3736  0.5994
   29MOL   C52529141   2.772   0.776   6.993  0.7806  1.1356  0.6125
   29MOL   C52629142   2.773   0.872   7.096  0.2007 -0.0661 -0.3024
   29MOL   N52729143   2.724   0.848   7.221 -0.5416  0.4024 -0.1171
   29MOL   C52829144   2.734   0.730   7.297 -0.0997  0.8945 -0.4558
   29MOL   C52929145   2.805   0.614   7.252 -0.0706  0.1930 -0.5552
   29MOL   C53029146   2.802   0.501   7.335 -0.6768  0.3161 -0.7295
   29MOL   C53129147   2.754   0.505   7.462  0.4801  0.4850  0.3856
   29MOL   C53229148   2.750   0.380   7.551 -0.8473 -0.4811 -0.0378
   29MOL   C53329149   2.694   0.618   7.514 -0.4947 -0.0482 -0.3084
   29MOL   C53429150   2.671   0.726   7.423  0.5703  0.2167  0.4954
   29MOL   C53529151   2.823   1.001   7.059  0.1538 -0.1597 -0.0426
   29MOL   C53629152   2.866   1.032   6.927  0.0104  0.6873 -0.3202
   29MOL   C53729153   2.816   1.166   6.634 -0.0507  0.2796 -0.6717
   29MOL   C53829154   2.822   1.283   6.560  0.2189  0.7187  0.3782
   29MOL   C53929155   2.890   1.686   6.435  0.5289  0.8070  0.1839
   29MOL   C54029156   2.861   1.803   6.499 -0.3575 -0.5771 -0.2872
   29MOL   H54129157   2.802   2.014   6.641 -0.2511 -0.2383 -1.7535
   29MOL   H54229158   2.819   1.696   6.821  0.2929  0.8756 -0.5720
   29MOL   H54329159   2.861   1.477   6.704  0.6251  0.5466  1.2638
   29MOL   H54429160   2.995   1.468   6.360 -0.6845  0.4203  0.3579
   29MOL   H54529161   3.143   1.276   6.449  2.1420 -2.3661  1.9568
   29MOL   H54629162   3.129   1.050   6.562  0.2401 -0.1108  1.0021
   29MOL   H54729163   2.972   0.887   6.652  0.6154  0.8632 -0.6849
   29MOL   H54829164   2.819   0.726   6.787  1.8685 -2.4407  2.3697
   29MOL   H54929165   2.728   0.679   7.012  0.6204  1.3061  1.1067
   29MOL   H55029166   2.695   0.935   7.263 -0.3666  0.1063  0.6340
   29MOL   H55129167   2.859   0.611   7.159  1.4579 -0.2479  0.3189
   29MOL   H55229168   2.861   0.418   7.299 -0.1083 -0.5287  2.0424
   29MOL   H55329169   2.651   0.379   7.597 -1.0502  0.4953 -0.4361
   29MOL   H55429170   2.825   0.385   7.630  0.8220  1.6412 -1.6972
   29MOL   H55529171   2.649   0.619   7.612 -1.1436  1.6468 -0.6066
   29MOL   H55629172   2.621   0.817   7.453  0.0961  0.8230 -2.0583
   29MOL   H55729173   2.828   1.082   7.131  3.8240 -1.2364  1.0353
   29MOL   H55829174   2.907   1.129   6.900  1.4362  0.1398 -0.1362
   29MOL   H55929175   2.722   1.150   6.684  0.0118  1.5575 -0.1187
   29MOL   H56029176   2.733   1.343   6.547  0.7429  1.5445  0.5889
   29MOL   H56129177   2.930   1.685   6.335  1.1514 -0.8625  0.4428
   29MOL   H56229178   2.863   1.893   6.440  1.0668 -0.7107 -0.4823
   29MOL   N56329179   2.757   0.258   7.476 -0.0340 -0.3665  0.7993
   29MOL   C56429180   2.712   0.133   7.517  0.3499  0.1615  0.6221
   29MOL   C56529181   2.712   0.032   7.429 -0.3902  0.4009  0.5183
   29MOL   C56629182   2.645   7.895   7.456  0.2282  0.5880  0.5930
   29MOL   C56729183   2.590   7.865   7.576  0.6497 -0.2988 -0.0792
   29MOL   N56829184   2.524   7.743   7.603 -0.6082 -0.4496  0.4200
   29MOL   C56929185   2.459   7.686   7.711  0.2178 -0.1445 -0.0234
   29MOL   C57029186   2.479   7.553   7.750  0.0278 -0.1380 -0.1005
   29MOL   C57129187   2.431   7.507   7.876  0.2652  0.1908 -0.0232
   29MOL   C57229188   2.351   7.584   7.951 -0.4127  0.0133 -0.4054
   29MOL   N57329189   2.312   7.547   0.096 -0.1296 -0.0241  0.0407
   29MOL   C57429190   2.181   7.547   0.140  0.7546  0.4444  0.2288
   29MOL   C57529191   2.073   7.553   0.049  0.0061  0.2517 -0.3663
   29MOL   C57629192   1.938   7.553   0.104  0.1577 -0.6664  0.1294
   29MOL   C57729193   1.910   7.560   0.242  0.6846  0.8500 -0.2244
   29MOL   N57829194   1.786   7.568   0.301  0.4387  0.6587 -0.5324
   29MOL   C57929195   1.661   7.554   0.241  0.0771  0.4011  0.1568
   29MOL   C58029196   1.636   7.455   0.142 -0.0890 -0.2072  0.0835
   29MOL   C58129197   1.512   7.452   0.074 -0.5510  0.5114 -0.0312
   29MOL   C58229198   1.404   7.529   0.122 -0.4704  0.1151  0.0073
   29MOL   C58329199   1.268   7.504   0.066  0.6321  0.0913  0.1009
   29MOL   C58429200   1.427   7.618   0.231  0.4302 -0.1095  0.4180
   29MOL   C58529201   1.551   7.632   0.286  1.0607 -0.1283  0.4201
   29MOL   C58629202   2.026   7.553   0.327  0.0575 -0.0159 -0.1382
   29MOL   C58729203   2.155   7.543   0.277 -0.1605 -0.3605 -0.0093
   29MOL   C58829204   2.318   7.713   7.906 -0.1193 -0.0854 -0.1143
   29MOL   C58929205   2.374   7.772   7.786 -0.0900 -0.0592 -0.5987
   29MOL   C59029206   2.597   7.966   7.681  0.2692  0.1907 -0.2585
   29MOL   C59129207   2.652   0.113   7.643 -0.6946  0.4287  0.2078
   29MOL   H59229208   2.757   0.271   7.376 -0.1711 -1.3052  0.6707
   29MOL   H59329209   2.769   0.033   7.338  1.0025 -1.4808  1.3470
   29MOL   H59429210   2.649   7.814   7.385  0.9158  0.1211  1.1560
   29MOL   H59529211   2.532   7.676   7.527  2.4662  0.0031  0.3199
   29MOL   H59629212   2.545   7.493   7.687 -0.1501  0.2750 -0.6796
   29MOL   H59729213   2.459   7.410   7.914 -0.1398 -0.4076 -1.2323
   29MOL   H59829214   2.371   7.475   0.138 -0.9915 -0.1859  1.0040
   29MOL   H59929215   2.082   7.534   7.925 -0.0154  0.8499 -0.4808
   29MOL   H60029216   1.852   7.548   0.040  0.4852 -0.0252 -0.3578
   29MOL   H60129217   1.787   7.588   0.400 -1.2637  0.2965 -0.4271
   29MOL   H60229218   1.713   7.386   0.111  0.6624 -0.0222  1.4989
   29MOL   H60329219   1.505   7.377   7.978  3.0616 -0.1875  0.2175
   29MOL   H60429220   1.199   7.567   0.122 -1.2603  0.0234 -2.0501
   29MOL   H60529221   1.238   7.400   0.078 -0.0248  0.1620 -0.8019
   29MOL   H60629222   1.341   7.674   0.263  1.0802  0.3868  1.3099
   29MOL   H60729223   1.572   7.698   0.369  0.3236 -0.7048  1.0657
   29MOL   H60829224   2.012   7.551   0.434  0.7714 -0.4841 -0.0522
   29MOL   H60929225   2.244   7.535   0.338 -0.0515  0.6365 -0.0178
   29MOL   H61029226   2.256   7.778   7.965 -0.7430 -0.2762 -0.5467
   29MOL   H61129227   2.355   7.872   7.752 -0.0722  0.3744  0.6540
   29MOL   H61229228   2.555   7.946   7.778 -0.6629  1.7513 -0.3215
   29MOL   H61329229   2.650   0.189   7.720  2.4013  0.7977  0.0092
   29MOL   N61429230   1.264   7.534   7.908 -0.2250 -0.0824 -0.4793
   29MOL   C61529231   1.158   7.501   7.822  0.4366 -0.7407 -0.4910
   29MOL   C61629232   1.180   7.509   7.683 -0.1224  1.1536  0.7085
   29MOL   C61729233   1.074   7.481   7.591  0.0470  0.2556 -0.2549
   29MOL   C61829234   0.946   7.454   7.638 -0.1236  0.2039  0.0104
   29MOL   N61929235   0.843   7.421   7.546  0.3112  0.4565  0.7458
   29MOL   C62029236   0.718   7.490   7.550 -0.4381 -0.0611 -0.5911
   29MOL   C62129237   0.703   7.628   7.575  0.1132 -0.3365  0.7327
   29MOL   C62229238   0.572   7.686   7.588  0.2152 -0.1295  0.0612
   29MOL   C62329239   0.466   7.604   7.556  0.1726  0.0732 -0.4318
   29MOL   N62429240   0.342   7.668   7.555  1.1490 -0.2302  0.1057
   29MOL   C62529241   0.231   7.633   7.472 -0.5127 -0.3380 -0.2904
   29MOL   C62629242   0.098   7.645   7.514  0.2104 -0.0682 -0.1890
   29MOL   C62729243   7.980   7.597   7.427 -0.1121 -0.3141 -0.8495
   29MOL   C62829244   0.028   7.562   7.291 -0.1059 -0.1891  0.2265
   29MOL   N62929245   7.902   7.519   7.204 -0.3661  0.2753 -0.0866
   29MOL   C63029246   7.769   7.557   7.208  0.8474 -0.1636 -0.1046
   29MOL   C63129247   7.662   7.467   7.177 -0.0978 -0.0304 -0.1902
   29MOL   C63229248   7.533   7.504   7.188 -0.4464 -0.4539 -0.5673
   29MOL   C63329249   7.503   7.636   7.229 -0.2967 -0.1309 -0.5446
   29MOL   C63429250   7.355   7.664   7.258 -0.2048 -0.4449  0.1158
   29MOL   C63529251   7.608   7.731   7.258  0.2670 -0.2486 -0.0214
   29MOL   C63629252   7.740   7.690   7.251 -0.1346  0.3715 -0.0972
   29MOL   C63729253   0.160   7.571   7.244 -0.3114  0.3710  0.0344
   29MOL   C63829254   0.263   7.606   7.339  0.4059 -0.5833 -0.1862
   29MOL   C63929255   0.480   7.472   7.521 -0.0309 -0.3342 -0.0868
   29MOL   C64029256   0.606   7.411   7.512  0.4895  0.2995 -0.1214
   29MOL   C64129257   0.925   7.447   7.780  0.5051  0.3493  0.1578
   29MOL   C64229258   1.029   7.479   7.868  0.2392  0.8605 -0.0173
   29MOL   H64329259   1.351   7.555   7.860  0.0997  0.7346  0.4443
   29MOL   H64429260   1.276   7.541   7.646  0.3535 -1.4808 -0.4806
   29MOL   H64529261   1.087   7.494   7.485  0.0459 -0.2330 -0.3135
   29MOL   H64629262   0.869   7.381   7.458 -1.5793 -0.6140  0.6452
   29MOL   H64729263   0.788   7.691   7.594 -1.1549  1.9541 -1.0270
   29MOL   H64829264   0.561   7.791   7.610 -0.9865  0.0313 -1.2502
   29MOL   H64929265   0.334   7.756   7.604  0.6414 -0.4211  0.3753
   29MOL   H65029266   0.068   7.668   7.616  0.2396  0.6389 -0.3343
   29MOL   H65129267   7.881   7.574   7.462 -0.2733 -0.0933 -1.1592
   29MOL   H65229268   7.916   7.446   7.135 -2.0194  0.6629 -0.8399
   29MOL   H65329269   7.678   7.364   7.149  0.6383 -0.0424  0.2691
   29MOL   H65429270   7.459   7.428   7.167 -2.3506  1.6203 -1.5672
   29MOL   H65529271   7.314   7.565   7.272  0.0239 -0.6853 -0.8535
   29MOL   H65629272   7.299   7.704   7.174  1.1534 -0.3929 -0.7880
   29MOL   H65729273   7.579   7.830   7.289  0.6970 -0.4692  1.0834
   29MOL   H65829274   7.815   7.758   7.288 -0.1586  0.2768  0.1259
   29MOL   H65929275   0.183   7.543   7.143  0.3640 -1.6042  0.7004
   29MOL   H66029276   0.364   7.597   7.300  0.2378 -1.3854 -0.4360
   29MOL   H66129277   0.392   7.413   7.503 -0.7076  1.0576 -1.4774
   29MOL   H66229278   0.615   7.305   7.496 -0.5193  0.3179 -0.8595
   29MOL   H66329279   0.827   7.425   7.820  0.9904 -2.3401 -0.0326
   29MOL   H66429280   1.002   7.478   7.972 -1.7608 -0.7462 -0.5394
   29MOL   N66529281   7.330   7.750   7.365  0.0942  0.5608 -0.4807
   29MOL   C66629282   7.398   7.745   7.490  0.0754 -0.2000 -0.1127
   29MOL   C66729283   7.457   7.630   7.540 -0.4362 -0.0531  0.1849
   29MOL   C66829284   7.521   7.634   7.669  0.5563 -0.5119 -0.1918
   29MOL   C66929285   7.543   7.756   7.737 -0.0479  0.2931 -0.1758
   29MOL   N67029286   7.635   7.769   7.845  0.2935  0.2842 -0.3498
   29MOL   C67129287   7.722   7.670   7.893 -0.3787  1.0682  0.0177
   29MOL   C67229288   7.754   7.666   0.049  0.1518  0.5009  0.1045
   29MOL   C67329289   7.844   7.571   0.101  0.5757 -0.0854  0.4247
   29MOL   C67429290   7.922   7.497   0.006 -0.2113  0.4947 -0.5253
   29MOL   N67529291   0.032   7.403   0.053  0.4404 -0.6499 -0.0484
   29MOL   C67629292   0.168   7.385   0.016  0.3730 -0.5292  0.8773
   29MOL   C67729293   0.225   7.466   7.904  0.0244  0.1955  0.1466
   29MOL   C67829294   0.350   7.431   7.854 -0.4655 -0.2310 -0.1972
   29MOL   C67929295   0.420   7.316   7.896 -0.4860  0.0395  0.4658
   29MOL   N68029296   0.539   7.289   7.830  0.1258  0.0940  0.2071
   29MOL   C68129297   0.649   7.220   7.888  0.5152 -0.8447 -0.3033
   29MOL   C68229298   0.733   7.145   7.803  0.2862 -0.2239  0.1745
   29MOL   C68329299   0.853   7.087   7.850  0.0093  0.0296  0.1645
   29MOL   C68429300   0.899   7.103   7.979 -0.6576 -0.0211  0.1475
   29MOL   C68529301   1.015   7.037   0.058  0.1314  1.0996  0.0216
   29MOL   C68629302   0.812   7.174   0.086 -0.6894 -0.2304  0.3373
   29MOL   C68729303   0.692   7.231   0.046  0.3940 -0.3231  0.1075
   29MOL   C68829304   0.367   7.232   0.013 -0.1303  0.0207 -0.1422
   29MOL   C68929305   0.241   7.274   0.064 -0.5283 -0.4668 -0.0805
   29MOL   C69029306   7.900   7.504   7.851  0.4601 -0.2965 -0.7223
   29MOL   C69129307   7.807   7.598   7.798 -1.0649 -0.2263  0.8051
   29MOL   C69229308   7.474   7.867   7.688 -0.6678  0.8663 -0.0056
   29MOL   C69329309   7.401   7.861   7.569 -0.0596  0.1413  0.2480
   29MOL   H69429310   7.319   7.848   7.343 -0.1825  0.5493 -0.3999
   29MOL   H69529311   7.455   7.536   7.486  1.2017 -0.4969  0.8669
   29MOL   H69629312   7.554   7.542   7.716  0.1968 -0.3479  0.3833
   29MOL   H69729313   7.650   7.862   7.881 -0.1507  0.8117 -1.5066
   29MOL   H69829314   7.696   7.721   0.122 -0.3440  0.7801 -0.4995
   29MOL   H69929315   7.869   7.562   0.205  1.6547  0.8914  0.2564
   29MOL   H70029316   0.002   7.362   0.141  0.5103 -1.4559 -0.3958
   29MOL   H70129317   0.165   7.541   7.854  0.1027  0.4794  0.4759
   29MOL   H70229318   0.400   7.496   7.784 -0.5770 -0.7588 -0.7686
   29MOL   H70329319   0.552   7.342   7.745 -0.8036 -0.4532 -0.2874
   29MOL   H70429320   0.697   7.128   7.702  0.4448 -0.4646  0.1582
   29MOL   H70529321   0.906   7.033   7.772 -0.1473  0.6994 -0.4064
   29MOL   H70629322   0.988   6.938   0.097  0.7615  0.9262  0.0256
   29MOL   H70729323   1.033   7.105   0.142 -0.1292  1.2021 -0.0054
   29MOL   H70829324   0.844   7.185   0.189  0.9239 -0.6056 -0.0990
   29MOL   H70929325   0.637   7.285   0.122 -1.2656  0.4306 -1.5819
   29MOL   H71029326   0.426   7.150   0.050  1.1085  1.6389  1.5741
   29MOL   H71129327   0.189   7.207   0.130 -0.6187  0.0562  0.3853
   29MOL   H71229328   7.955   7.444   7.780  2.1712  2.0186 -1.3936
   29MOL   H71329329   7.777   7.607   7.695  0.4268 -0.9877  0.2942
   29MOL   H71429330   7.479   7.963   7.737 -2.0222  0.7591  0.3864
   29MOL   H71529331   7.353   7.954   7.543 -1.2460 -0.2902  0.8908
   29MOL   N71629332   1.123   7.041   7.952  0.0899  0.7260  0.6481
   29MOL   C71729333   1.240   7.014   0.035  0.0381 -0.0682  0.1607
   29MOL   C71829334   1.344   7.103   0.009 -0.2206  0.1306  1.0660
   29MOL   C71929335   1.473   7.086   0.065 -0.3779  0.2719 -0.0440
   29MOL   C72029336   1.493   6.971   0.148  0.0454  0.0519  0.3998
   29MOL   N72129337   1.617   6.935   0.196 -0.1765 -0.2179  0.0407
   29MOL   C72229338   1.733   7.013   0.208  0.3763 -0.7742  0.4064
   29MOL   C72329339   1.855   6.964   0.153  0.5452  0.1971  0.6863
   29MOL   C72429340   1.976   7.034   0.179  0.4080 -0.0447 -0.1502
   29MOL   C72529341   1.977   7.154   0.251  0.4538 -0.1842 -0.6802
   29MOL   N72629342   2.103   7.213   0.284  0.5557 -0.4685  0.0394
   29MOL   C72729343   2.222   7.198   0.214 -0.4457  0.1038  0.0748
   29MOL   C72829344   2.233   7.196   0.076 -0.0701 -0.4472 -0.2638
   29MOL   C72929345   2.361   7.180   0.027 -0.3508 -0.8003  0.6194
   29MOL   C73029346   2.478   7.182   0.110 -0.3109  0.4774  0.3616
   29MOL   N73129347   2.598   7.172   0.045  0.0092 -0.0929  0.2381
   29MOL   C73229348   2.706   7.088   0.080  0.5658 -0.0613 -0.1148
   29MOL   C73329349   2.819   7.084   7.976 -0.1098  0.1235 -0.1080
   29MOL   C73429350   2.931   6.993   0.015  1.1061  0.0635  0.1786
   29MOL   C73529351   2.923   6.898   0.122  0.3321 -0.3766  0.2528
   29MOL   C73629352   3.028   6.788   0.141 -0.0265 -0.7309  0.5874
   29MOL   C73729353   2.808   6.905   0.205  0.0822 -0.8133 -0.0638
   29MOL   C73829354   2.703   6.989   0.184 -0.1648 -0.3021 -0.0198
   29MOL   C73929355   2.464   7.183   0.247 -0.1480  0.0226  0.8401
   29MOL   C74029356   2.335   7.198   0.297  0.5741  0.4195 -0.3556
   29MOL   C74129357   1.855   7.212   0.289 -0.0307  0.1028 -0.3799
   29MOL   C74229358   1.733   7.137   0.269  0.0574  0.0547 -0.6216
   29MOL   C74329359   1.383   6.890   0.186 -0.0832 -0.7213 -0.5975
   29MOL   C74429360   1.261   6.901   0.118 -0.2253  0.4824  0.6739
   29MOL   H74529361   1.125   7.125   7.896  3.5212  1.9598  2.4662
   29MOL   H74629362   1.321   7.187   7.928 -1.7181 -1.1446 -0.1007
   29MOL   H74729363   1.556   7.154   0.055  1.0611 -0.8939  3.2922
   29MOL   H74829364   1.636   6.837   0.184  0.0812 -0.1447 -0.1527
   29MOL   H74929365   1.856   6.874   0.094  0.8920  1.7162 -1.7048
   29MOL   H75029366   2.061   6.983   0.136 -0.7523 -0.0718 -2.5485
   29MOL   H75129367   2.095   7.285   0.354 -1.1285 -2.0340  1.4992
   29MOL   H75229368   2.151   7.200   0.007  0.7848  1.3896 -1.2169
   29MOL   H75329369   2.377   7.176   7.902  1.0000  2.4576  0.6418
   29MOL   H75429370   2.603   7.186   7.928  0.0651 -1.3735  0.0516
   29MOL   H75529371   2.830   7.143   7.886  2.4432  0.6133  0.4836
   29MOL   H75629372   3.012   6.991   7.926  0.5657 -0.9994 -0.4268
   29MOL   H75729373   3.050   6.789   0.248  0.1080 -2.9887  0.6043
   29MOL   H75829374   3.123   6.812   0.092 -0.9025  2.4847  0.3507
   29MOL   H75929375   2.784   6.827   0.276  0.4578 -0.9994 -0.1383
   29MOL   H76029376   2.622   6.978   0.255  0.6663  0.8844  1.1267
   29MOL   H76129377   2.552   7.187   0.311 -0.1304 -1.4499  0.9291
   29MOL   H76229378   2.322   7.203   0.404 -0.0663 -1.3713 -0.3262
   29MOL   H76329379   1.849   7.307   0.341  0.7622 -1.6907  3.2051
   29MOL   H76429380   1.643   7.189   0.300  1.7515  2.8425 -0.2441
   29MOL   H76529381   1.412   6.806   0.248 -0.5677 -0.6159 -0.2231
   29MOL   H76629382   1.170   6.845   0.133 -1.1954  2.1116  0.9606
   29MOL   N76729383   2.982   6.669   0.079  0.0684  0.0742 -0.2720
   29MOL   C76829384   3.060   6.551   0.068 -0.7813  0.1159 -0.2629
   29MOL   C76929385   3.019   6.452   7.960  0.0076  0.3636 -0.3416
   29MOL   C77029386   3.092   6.335   7.941 -0.3037 -0.1741  0.1153
   29MOL   C77129387   3.208   6.315   0.037  0.8914 -0.6544  0.2673
   29MOL   N77229388   3.281   6.196   0.017  0.2952 -0.4504 -0.2361
   29MOL   C77329389   3.303   6.102   0.119 -0.4634 -0.7099  0.0526
   29MOL   C77429390   3.243   6.115   0.242 -1.0158 -0.4752 -0.1964
   29MOL   C77529391   3.281   6.030   0.345 -0.5652  0.1693 -0.0188
   29MOL   C77629392   3.377   5.926   0.326  0.3883  0.5757  0.0052
   29MOL   N77729393   3.423   5.857   0.445 -0.0950 -0.4648  0.3364
   29MOL   C77829394   3.491   5.739   0.466  0.2506  0.0871  0.2777
   29MOL   C77929395   3.560   5.721   0.585  0.6416  1.1490  0.4263
   29MOL   C78029396   3.626   5.603   0.621  0.8081 -0.0088  0.0205
   29MOL   C78129397   3.624   5.496   0.527 -0.1918  0.4565  0.5741
   29MOL   N78229398   3.695   5.380   0.556 -0.2155 -0.9543 -0.2247
   29MOL   C78329399   3.771   5.306   0.475 -0.1065 -0.1358  0.4214
   29MOL   C78429400   3.847   5.362   0.375 -0.5205  0.8846  0.4890
   29MOL   C78529401   3.929   5.284   0.293 -0.2393 -0.2882 -0.7271
   29MOL   C78629402   3.937   5.145   0.314  0.0021 -0.2461  0.0898
   29MOL   C78729403   4.025   5.046   0.232  0.1170  0.3132  0.2207
   29MOL   C78829404   3.857   5.084   0.413 -0.2077  0.2190  0.0564
   29MOL   C78929405   3.766   5.164   0.484 -0.1927  0.1162  0.0508
   29MOL   C79029406   3.554   5.513   0.404 -0.0576 -0.1019  0.4151
   29MOL   C79129407   3.490   5.637   0.370 -0.9591 -0.2347 -0.2877
   29MOL   C79229408   3.434   5.913   0.196  0.3177 -0.0709 -0.9735
   29MOL   C79329409   3.403   6.005   0.092  0.9819 -0.0927 -0.0612
   29MOL   C79429410   3.257   6.416   0.119 -0.0738  0.5037  0.1832
   29MOL   C79529411   3.187   6.535   0.131 -0.0206 -0.2392  0.5495
   29MOL   H79629412   2.894   6.678   0.030 -0.5061 -1.7335  0.3753
   29MOL   H79729413   2.925   6.461   7.908  0.1178 -2.6546 -1.1681
   29MOL   H79829414   3.066   6.260   7.868  1.4338 -1.1448  0.4574
   29MOL   H79929415   3.305   6.168   7.904  0.1398 -1.5195  0.0262
   29MOL   H80029416   3.163   6.183   0.269 -0.6573  0.0075 -0.3386
   29MOL   H80129417   3.247   6.051   0.446  0.9852 -0.4437  0.6551
   29MOL   H80229418   3.369   5.879   0.528 -0.1593 -1.2617  0.5026
   29MOL   H80329419   3.564   5.812   0.643 -1.9303  0.7662  1.2252
   29MOL   H80429420   3.673   5.592   0.718 -1.0181  1.7849  1.1689
   29MOL   H80529421   3.723   5.377   0.653  3.9295 -0.3297 -1.2967
   29MOL   H80629422   3.869   5.466   0.355 -0.6967  0.6612 -0.8943
   29MOL   H80729423   3.989   5.336   0.219 -0.6949  0.8143 -0.3403
   29MOL   H80829424   3.964   4.978   0.172  0.6001  0.2071 -0.1512
   29MOL   H80929425   4.067   4.985   0.311 -1.0665 -0.7735  0.0291
   29MOL   H81029426   3.870   4.978   0.427 -2.1884  0.0451  0.5963
   29MOL   H81129427   3.700   5.113   0.553  1.8671 -0.2727  1.7575
   29MOL   H81229428   3.555   5.438   0.326 -0.2495  0.8226 -0.4761
   29MOL   H81329429   3.443   5.656   0.275  0.8561 -0.6796 -1.3114
   29MOL   H81429430   3.518   5.848   0.180  1.0353  0.5402  0.2321
   29MOL   H81529431   3.430   5.995   7.970  2.5889 -0.8875  0.4163
   29MOL   H81629432   3.355   6.397   0.161 -0.4935  0.3748  1.1163
   29MOL   H81729433   3.230   6.619   0.183 -0.8425 -0.4833  1.6342
   29MOL   N81829434   4.125   5.122   0.152  0.5890 -0.3033 -0.1963
   29MOL   C81929435   4.208   5.021   0.091 -0.2631  0.5483  0.7463
   29MOL   C82029436   4.146   4.915   0.021 -0.9274 -0.5222 -0.4823
   29MOL   C82129437   4.234   4.812   7.957 -0.4961 -0.4436 -0.6809
   29MOL   C82229438   4.372   4.829   7.963 -0.2439  0.3798  0.0875
   29MOL   N82329439   4.453   4.729   7.900  0.4365 -0.2703  0.5794
   29MOL   C82429440   4.431   4.590   7.881  0.2369  0.3990 -0.3861
   29MOL   C82529441   4.383   4.516   0.009 -0.5041 -0.1194  0.6988
   29MOL   C82629442   4.336   4.386   7.976  0.0820  0.9865 -0.2097
   29MOL   C82729443   4.346   4.328   7.847 -0.1946 -0.5198 -0.1588
   29MOL   N82829444   4.279   4.208   7.821 -0.4372  0.5625 -0.5786
   29MOL   C82929445   4.187   4.137   7.903 -0.6175  0.3874  0.0002
   29MOL   C83029446   4.054   4.142   7.865 -0.0088  0.1702 -0.4872
   29MOL   C83129447   3.953   4.094   7.948  0.0134  0.0710  0.2306
   29MOL   C83229448   3.983   4.041   0.092  0.7281  0.4565  0.5349
   29MOL   N83329449   3.880   3.988   0.176 -0.4506 -0.4628  0.3294
   29MOL   C83429450   3.867   3.985   0.318  0.1919 -0.2898  0.4107
   29MOL   C83529451   3.950   4.059   0.402 -0.0439 -0.4711 -0.6175
   29MOL   C83629452   3.959   4.053   0.544  0.5437 -0.2849 -0.0610
   29MOL   C83729453   3.873   3.961   0.611 -0.2743 -0.2108 -0.2288
   29MOL   C83829454   3.873   3.952   0.761 -0.4342  0.2344 -0.5782
   29MOL   C83929455   3.782   3.884   0.534 -0.0158  0.4553 -0.4484
   29MOL   C84029456   3.775   3.897   0.389  0.0024  0.0466  0.5239
   29MOL   C84129457   4.120   4.040   0.134 -0.3891  0.9633 -0.4823
   29MOL   C84229458   4.224   4.090   0.047  0.0343  0.9954  0.2195
   29MOL   C84329459   4.411   4.395   7.741  0.2866 -0.1474  0.5633
   29MOL   C84429460   4.448   4.529   7.756  0.7437  0.4375  0.3383
   29MOL   C84529461   4.429   4.933   0.052 -0.0739 -0.4062  0.2399
   29MOL   C84629462   4.347   5.032   0.109 -1.2123 -0.6851  0.1851
   29MOL   H84729463   4.177   5.184   0.211 -0.3920  0.3396 -0.0072
   29MOL   H84829464   4.040   4.896   0.016 -0.6827 -2.3727  0.9765
   29MOL   H84929465   4.183   4.730   7.910 -2.7717  0.2273  0.5831
   29MOL   H85029466   4.523   4.775   7.844 -0.6409  0.8205  0.1039
   29MOL   H85129467   4.381   4.566   0.105  1.1885 -0.4655  0.9240
   29MOL   H85229468   4.285   4.334   0.073 -0.2175  0.9380 -0.4309
   29MOL   H85329469   4.277   4.187   7.722  0.8992 -2.5502  0.0025
   29MOL   H85429470   4.019   4.184   7.772 -0.1932  1.8561  0.3289
   29MOL   H85529471   3.851   4.090   7.914  0.4207 -1.3762 -0.8462
   29MOL   H85629472   3.797   3.963   0.124 -0.4863 -1.0039  0.6476
   29MOL   H85729473   4.024   4.126   0.361  0.2483  0.4301  1.3443
   29MOL   H85829474   4.028   4.111   0.603 -0.6201  0.7130  0.3484
   29MOL   H85929475   3.976   3.954   0.795 -0.5036  1.0672 -0.4049
   29MOL   H86029476   3.831   3.861   0.804  1.3121  0.5738  1.9563
   29MOL   H86129477   3.715   3.808   0.572  1.6034  0.2898  2.1737
   29MOL   H86229478   3.703   3.828   0.348  2.6368 -0.5518 -3.3786
   29MOL   H86329479   4.148   4.001   0.231 -0.9555 -1.1938 -1.1702
   29MOL   H86429480   4.330   4.079   0.065  0.9186  2.2998 -3.6881
   29MOL   H86529481   4.414   4.361   7.638 -0.2830 -0.7417  0.7436
   29MOL   H86629482   4.489   4.584   7.673  0.1165  1.4405  0.6810
   29MOL   H86729483   4.535   4.954   0.055 -0.0941  0.3674 -3.1032
   29MOL   H86829484   4.386   5.122   0.155  0.1873 -1.3150  0.2452
   29MOL   N86929485   3.816   4.072   0.833  0.5315  0.1167 -0.1612
   29MOL   C87029486   3.680   4.102   0.821 -0.5755  0.3197  0.4676
   29MOL   C87129487   3.648   4.236   0.840  0.5427 -0.4377 -0.6629
   29MOL   C87229488   3.512   4.279   0.843  0.0656  0.0703 -0.2210
   29MOL   C87329489   3.407   4.195   0.809  0.0112  0.8065  0.2338
   29MOL   N87429490   3.266   4.235   0.811 -0.6543  0.1400  0.3195
   29MOL   C87529491   3.194   4.247   0.934 -0.2796  0.0702  0.2063
   29MOL   C87629492   3.058   4.283   0.931  0.5995  0.5662 -0.3429
   29MOL   C87729493   2.995   4.309   1.059  0.1439  0.1131  0.1840
   29MOL   C87829494   3.052   4.289   1.182 -0.6433 -0.1355 -0.0785
   29MOL   N87929495   2.976   4.314   1.302 -0.9066 -0.3333  0.0167
   29MOL   C88029496   2.986   4.244   1.419 -0.3066  0.4921 -0.4547
   29MOL   C88129497   2.961   4.313   1.537  0.6302 -0.5168 -0.3117
   29MOL   C88229498   2.986   4.259   1.668  0.0319  0.0632  0.1211
   29MOL   C88329499   3.028   4.126   1.678 -1.1236 -0.4913  0.1892
   29MOL   N88429500   3.046   4.060   1.800 -0.1345  0.5399 -1.0158
   29MOL   C88529501   3.035   4.124   1.926 -0.6092  0.2196 -0.0710
   29MOL   C88629502   3.126   4.225   1.965 -0.3658  0.1753 -0.4968
   29MOL   C88729503   3.120   4.283   2.092  0.2635 -0.3090 -0.6640
   29MOL   C88829504   3.009   4.256   2.171 -0.5399  0.1557  0.2626
   29MOL   C88929505   2.994   4.326   2.304 -0.1823 -0.4543  0.4162
   29MOL   C89029506   2.912   4.163   2.127 -0.4875 -0.0861 -0.1911
   29MOL   C89129507   2.932   4.086   2.009 -0.9531  0.6432  0.7192
   29MOL   C89229508   3.049   4.053   1.561 -0.0212  0.4107  0.1923
   29MOL   C89329509   3.025   4.105   1.431  0.4084 -0.0501  0.5290
   29MOL   C89429510   3.180   4.232   1.185 -0.0193  0.0566 -0.2409
   29MOL   C89529511   3.248   4.220   1.063 -0.3682  0.1490  0.9616
   29MOL   C89629512   3.447   4.062   0.778  0.1905  0.2369 -0.3280
   29MOL   C89729513   3.578   4.016   0.785  0.2276  0.8051  0.4790
   29MOL   H89829514   3.878   4.140   0.875 -0.7799 -1.0546  3.9249
   29MOL   H89929515   3.717   4.315   0.867 -0.1371 -0.5443  1.4387
   29MOL   H90029516   3.498   4.384   0.861  1.7215  0.3850 -0.6841
   29MOL   H90129517   3.227   4.214   0.721 -1.3858  1.0401  0.4197
   29MOL   H90229518   3.012   4.308   0.837 -0.0725  2.2978  0.4259
   29MOL   H90329519   2.896   4.353   1.055 -0.4850 -1.1585  1.3316
   29MOL   H90429520   2.916   4.395   1.306 -0.6580 -0.0462 -1.4926
   29MOL   H90529521   2.941   4.418   1.521 -3.2952 -1.2820 -0.8647
   29MOL   H90629522   2.969   4.315   1.758  2.4564  0.3986  0.4012
   29MOL   H90729523   2.993   3.974   1.800 -1.9247  1.5959 -0.0442
   29MOL   H90829524   3.206   4.250   1.897  0.2790  0.0249  0.2010
   29MOL   H90929525   3.194   4.357   2.117 -1.5701  0.6661  2.1432
   29MOL   H91029526   2.963   4.257   2.383 -0.3358 -0.6180  0.2148
   29MOL   H91129527   2.903   4.384   2.288 -0.0676 -0.9859 -2.4094
   29MOL   H91229528   2.825   4.133   2.183  0.2759 -0.2050  0.9340
   29MOL   H91329529   2.862   4.004   1.996 -1.7917  1.2167  1.5121
   29MOL   H91429530   3.085   3.951   1.564 -0.0047  0.4279  0.7770
   29MOL   H91529531   3.044   4.034   1.353  1.0264 -1.8072  2.2394
   29MOL   H91629532   3.226   4.214   1.281 -1.8339  0.6415  0.7663
   29MOL   H91729533   3.352   4.192   1.065  0.3508  2.5706 -0.8813
   29MOL   H91829534   3.367   3.998   0.744  0.8082  0.0351 -1.4542
   29MOL   H91929535   3.608   3.914   0.765 -1.1871  0.0092  2.2735
   29MOL   N92029536   3.091   4.423   2.362 -0.0404 -0.4588 -1.0345
   29MOL   C92129537   3.083   4.467   2.493 -0.4333 -0.2849  0.3031
   29MOL   C92229538   2.967   4.444   2.578  0.5621  0.1719  0.6921
   29MOL   C92329539   2.973   4.489   2.716  0.5395  0.0367  0.2463
   29MOL   C92429540   3.094   4.545   2.770  0.4162  0.1588 -0.2709
   29MOL   N92529541   3.093   4.595   2.896 -0.1223  0.0358  0.0117
   29MOL   C92629542   3.015   4.553   3.008 -0.1157  0.0102 -0.0314
   29MOL   C92729543   2.954   4.648   3.087  0.1593 -0.2736 -0.3396
   29MOL   C92829544   2.868   4.606   3.193 -0.3079  0.8505 -0.2550
   29MOL   C92929545   2.870   4.471   3.238 -0.5643 -0.5329  0.6265
   29MOL   N93029546   2.813   4.420   3.352  0.4335  0.8014  0.2500
   29MOL   C93129547   2.861   4.324   3.443  0.6006  0.1740  0.6336
   29MOL   C93229548   2.773   4.252   3.521  0.2953 -0.1800  0.2398
   29MOL   C93329549   2.818   4.157   3.611  0.2513 -0.4544  0.3658
   29MOL   C93429550   2.959   4.123   3.624  0.4436 -0.0398 -0.2545
   29MOL   N93529551   3.005   4.019   3.709 -0.3054 -0.2208 -0.3849
   29MOL   C93629552   2.924   3.969   3.809  1.3093 -0.0812  0.5315
   29MOL   C93729553   2.889   4.045   3.921 -1.0380 -0.1779  0.0014
   29MOL   C93829554   2.796   3.992   4.015 -0.4019 -0.2054  0.0638
   29MOL   C93929555   2.740   3.870   3.999 -0.5300  0.3293  0.5701
   29MOL   C94029556   2.631   3.806   4.085 -0.1105  0.4385 -0.0340
   29MOL   C94129557   2.774   3.798   3.883  0.0799 -0.1177  0.4977
   29MOL   C94229558   2.864   3.846   3.790 -0.0804 -0.4088 -0.1423
   29MOL   C94329559   3.054   4.191   3.541 -0.0262  0.1309 -0.9481
   29MOL   C94429560   3.001   4.295   3.455  0.7073 -0.8469 -0.5795
   29MOL   C94529561   2.942   4.377   3.161  0.7419 -0.5858 -0.7072
   29MOL   C94629562   3.010   4.416   3.045 -0.7027 -0.4920  0.3862
   29MOL   C94729563   3.204   4.558   2.686  0.6619 -0.0142  0.6044
   29MOL   C94829564   3.202   4.517   2.551  0.1988 -0.2017 -0.2240
   29MOL   H94929565   3.155   4.454   2.291  1.8590  1.0622  1.2784
   29MOL   H95029566   2.871   4.408   2.544  0.0141  2.3158 -0.1482
   29MOL   H95129567   2.885   4.483   2.779  0.7427  2.3178  0.7975
   29MOL   H95229568   3.173   4.657   2.903 -1.8181  1.9697  3.1587
   29MOL   H95329569   2.960   4.755   3.070  0.9894 -0.5864 -2.1273
   29MOL   H95429570   2.824   4.690   3.246 -0.8405 -0.3708  1.2644
   29MOL   H95529571   2.719   4.450   3.374 -0.8302 -2.4927 -0.3310
   29MOL   H95629572   2.667   4.273   3.519  0.1814 -0.8176 -1.1652
   29MOL   H95729573   2.743   4.107   3.670 -0.3732 -0.5866 -0.5400
   29MOL   H95829574   3.099   3.983   3.717 -0.7242 -1.4811 -1.0462
   29MOL   H95929575   2.939   4.139   3.939 -1.4015 -0.2182  1.2894
   29MOL   H96029576   2.767   4.059   4.095 -1.2841  0.2001 -0.5888
   29MOL   H96129577   2.684   3.719   4.124 -0.9665  0.8602  2.1317
   29MOL   H96229578   2.550   3.761   4.028  1.1289 -1.3432 -0.4321
   29MOL   H96329579   2.732   3.701   3.861  1.2746 -0.1754 -1.6296
   29MOL   H96429580   2.882   3.803   3.692  0.9158 -1.5033  0.5116
   29MOL   H96529581   3.153   4.148   3.536  0.3830  0.3057  3.8232
   29MOL   H96629582   3.073   4.352   3.398 -0.3108  0.3017 -0.7129
   29MOL   H96729583   2.930   4.272   3.183  1.3145 -0.7565 -1.1931
   29MOL   H96829584   3.056   4.348   2.975  0.5910  1.0406 -0.2976
   29MOL   H96929585   3.278   4.618   2.736  0.0997  0.3893  0.9477
   29MOL   H97029586   3.276   4.532   2.474  0.4524 -1.7796 -0.3062
   29MOL   N97129587   2.581   3.890   4.193  0.5212 -0.0891  0.3996
   29MOL   C97229588   2.502   3.845   4.292  0.7064 -0.2271 -0.6516
   29MOL   C97329589   2.458   3.715   4.296  1.0588 -0.9365  0.0201
   29MOL   C97429590   2.380   3.668   4.399  0.1631  0.8362  0.2883
   29MOL   C97529591   2.336   3.754   4.493 -0.7290  0.3697 -0.5295
   29MOL   N97629592   2.253   3.708   4.595 -1.1944 -0.4923  0.0123
   29MOL   C97729593   2.177   3.589   4.592 -0.6032  0.2266  0.3879
   29MOL   C97829594   2.099   3.553   4.479  0.4598 -0.2259  0.1473
   29MOL   C97929595   2.008   3.450   4.490  0.3956  0.1000  0.6634
   29MOL   C98029596   2.002   3.371   4.604 -0.2896  0.6884  0.3611
   29MOL   N98129597   1.910   3.267   4.622  0.0931 -0.2837  0.0371
   29MOL   C98229598   1.771   3.258   4.582  0.2061  0.0494 -0.0272
   29MOL   C98329599   1.698   3.362   4.510 -0.7655  0.0083  0.7447
   29MOL   C98429600   1.579   3.338   4.453  0.1235  0.2379  0.2654
   29MOL   C98529601   1.519   3.214   4.469  1.5336  0.1106 -0.9304
   29MOL   N98629602   1.397   3.189   4.403  0.2782 -0.3577  0.1851
   29MOL   C98729603   1.293   3.105   4.441  0.3671  0.9574 -0.5351
   29MOL   C98829604   1.250   3.102   4.576 -0.1932  0.2321  0.1352
   29MOL   C98929605   1.150   3.014   4.627 -0.0195 -0.1737 -0.8631
   29MOL   C99029606   1.088   2.926   4.538  0.0008  0.7751  0.5382
   29MOL   C99129607   0.982   2.827   4.571  0.2098 -0.2546  0.3677
   29MOL   C99229608   1.117   2.935   4.401 -0.1785  0.3143  0.1257
   29MOL   C99329609   1.221   3.021   4.356 -0.1687  0.9422  0.5819
   29MOL   C99429610   1.578   3.116   4.543  0.0000 -0.0006  0.6946
   29MOL   C99529611   1.707   3.129   4.594 -0.2010  0.1358 -0.0105
   29MOL   C99629612   2.076   3.408   4.720 -0.2605 -0.1259 -0.3327
   29MOL   C99729613   2.168   3.514   4.713 -0.0096  0.4653 -0.6569
   29MOL   C99829614   2.385   3.885   4.500  0.0863 -0.3738  0.3732
   29MOL   C99929615   2.468   3.940   4.398 -0.4233  0.8032  0.5422
   29MOL     H129616   2.650   3.958   4.223  2.4077 -2.0809  0.7039
   29MOL     H229617   2.487   3.641   4.223 -0.8304 -1.1608 -0.5289
   29MOL     H329618   2.355   3.563   4.395  1.2585  0.6034 -0.6765
   29MOL     H429619   2.249   3.770   4.674  2.3556 -0.0037 -0.1160
   29MOL     H529620   2.097   3.619   4.394 -3.8697 -0.2225  0.1168
   29MOL     H629621   1.954   3.428   4.400 -0.3929  0.2576  1.0947
   29MOL     H729622   1.938   3.194   4.686  0.3691 -0.7527 -0.6047
   29MOL     H829623   1.738   3.461   4.490 -0.4692 -0.2409  0.0821
   29MOL     H929624   1.530   3.424   4.409  1.2468  0.2360 -1.0475
   29MOL    H1029625   1.376   3.249   4.324  1.0741 -0.4936 -0.1328
   29MOL    H1129626   1.298   3.161   4.654 -1.0576  0.8452  0.2172
   29MOL    H1229627   1.136   3.010   4.734  0.6959 -2.9581 -0.8419
   29MOL    H1329628   1.008   2.721   4.564  2.7740  0.4205 -0.9845
   29MOL    H1429629   0.893   2.851   4.513  0.5419 -0.8580 -0.4023
   29MOL    H1529630   1.051   2.884   4.332 -0.0287 -0.3938  0.5031
   29MOL    H1629631   1.257   3.014   4.254 -0.7646  1.5392  0.3247
   29MOL    H1729632   1.521   3.024   4.542 -2.9023  1.7514  0.2946
   29MOL    H1829633   1.757   3.045   4.641  0.1088 -0.3602 -1.2105
   29MOL    H1929634   2.074   3.352   4.812  2.9309 -0.5507 -0.4559
   29MOL    H2029635   2.224   3.532   4.804 -3.0641 -1.2333  1.6258
   29MOL    H2129636   2.349   3.951   4.578 -1.0461 -0.4568 -0.0750
   29MOL    H2229637   2.511   4.039   4.397  0.0497  0.6014  0.7043
   29MOL    H2329638   0.960   2.828   4.677  0.3313  1.4006  0.3837
   30MOL     N129639   3.792   3.371   0.279 -0.3247  0.1085  0.3801
   30MOL     C229640   3.670   3.435   0.297 -0.1959 -0.1587  0.3326
   30MOL     C329641   3.584   3.454   0.186  0.0439  0.5457 -0.5434
   30MOL     C429642   3.462   3.510   0.203  0.2370 -0.4250 -0.3799
   30MOL     C529643   3.411   3.544   0.332 -0.0611 -0.3588 -0.6667
   30MOL     N629644   3.285   3.596   0.359 -0.8038 -0.5067 -0.1784
   30MOL     C729645   3.194   3.667   0.277  0.3915 -0.3950 -0.4130
   30MOL     C829646   3.224   3.718   0.156 -0.1337  0.2879  0.2778
   30MOL     C929647   3.124   3.784   0.079  0.6202 -0.5011  0.0612
   30MOL    C1029648   2.991   3.791   0.135  0.2215  0.2479 -0.3374
   30MOL    N1129649   2.895   3.860   0.060  0.2054 -0.5251 -0.0835
   30MOL    C1229650   2.803   3.951   0.112 -0.1754  0.0880  0.4530
   30MOL    C1329651   2.818   4.028   0.228 -0.5241  0.2633 -0.0906
   30MOL    C1429652   2.721   4.118   0.269  0.9760 -0.2815  0.4706
   30MOL    C1529653   2.610   4.139   0.189  0.7137 -0.9386  0.5564
   30MOL    N1629654   2.509   4.223   0.237  0.2187 -0.2529  0.4722
   30MOL    C1729655   2.388   4.266   0.183  0.0223  0.4456  0.8824
   30MOL    C1829656   2.378   4.305   0.047 -0.6194  0.4340 -0.0907
   30MOL    C1929657   2.251   4.323   7.971 -0.5052  0.5917  0.4927
   30MOL    C2029658   2.129   4.309   0.062 -0.8642 -0.2931  1.1382
   30MOL    C2129659   1.995   4.336   7.980 -0.1092 -0.0271  0.0370
   30MOL    C2229660   2.137   4.292   0.198 -0.0155  0.6200  0.2443
   30MOL    C2329661   2.267   4.267   0.259  0.0215 -0.3232 -0.0792
   30MOL    C2429662   2.590   4.066   0.074 -0.2846  0.1334 -0.0341
   30MOL    C2529663   2.693   3.987   0.032  0.0732  0.3250  0.2162
   30MOL    C2629664   2.964   3.741   0.261 -0.3603  0.1136  0.2689
   30MOL    C2729665   3.067   3.677   0.336 -0.3397  0.6763 -0.1754
   30MOL    C2829666   3.492   3.519   0.443  1.5318 -0.5484  0.4954
   30MOL    C2929667   3.624   3.467   0.425  0.3378  0.4770 -0.0281
   30MOL    H3029668   3.841   3.392   0.193 -1.8915  0.4601 -0.4311
   30MOL    H3129669   3.622   3.425   0.090 -4.3782  3.2373 -3.2978
   30MOL    H3229670   3.389   3.523   0.124 -0.5746 -0.1323  0.4128
   30MOL    H3329671   3.250   3.582   0.453  0.2087  0.0974  0.2918
   30MOL    H3429672   3.328   3.717   0.125 -0.3328  1.8655 -0.5139
   30MOL    H3529673   3.150   3.832   7.968 -1.5608  2.1558  0.7625
   30MOL    H3629674   2.932   3.881   7.950 -1.6949 -1.7719 -1.1419
   30MOL    H3729675   2.908   4.032   0.288 -0.3576  0.6657 -0.3675
   30MOL    H3829676   2.737   4.177   0.358 -2.4127  2.5402 -0.6624
   30MOL    H3929677   2.515   4.246   0.336  1.1616  0.6082  0.2218
   30MOL    H4029678   2.463   4.322   7.965 -1.9028 -0.5017 -2.0884
   30MOL    H4129679   2.249   4.352   7.867 -3.0437  1.4429  0.7378
   30MOL    H4229680   1.999   4.439   7.946 -0.6424  0.6192  1.8701
   30MOL    H4329681   1.904   4.319   0.056  1.0615  0.6951  2.1184
   30MOL    H4429682   2.054   4.284   0.267 -0.7359 -2.1816 -0.8887
   30MOL    H4529683   2.260   4.250   0.365 -1.3526  0.2278 -0.0751
   30MOL    H4629684   2.495   4.070   0.024 -0.1984  2.5731 -0.0789
   30MOL    H4729685   2.692   3.938   7.918 -0.8114  0.7791 -0.0041
   30MOL    H4829686   2.863   3.749   0.298  0.0956  1.5964  1.2500
   30MOL    H4929687   3.038   3.643   0.435 -0.6629 -0.2787 -0.5955
   30MOL    H5029688   3.459   3.532   0.545 -2.1652  1.7646 -0.8905
   30MOL    H5129689   3.695   3.449   0.504  0.4121 -0.8268 -0.3842
   30MOL    H5229690   3.863   3.377   0.351  1.0802  1.6149 -1.0959
   30MOL    N5329691   1.975   4.262   7.855  0.3739 -0.5606  0.0859
   30MOL    C5429692   1.849   4.273   7.790 -0.3565 -0.0407  0.6743
   30MOL    C5529693   1.754   4.368   7.828 -0.4264  0.2773 -0.3512
   30MOL    C5629694   1.624   4.358   7.779  0.9709  0.5404 -0.4332
   30MOL    C5729695   1.592   4.270   7.675 -0.1557  0.2189  0.1728
   30MOL    N5829696   1.459   4.257   7.636 -0.1357 -0.4372 -0.6469
   30MOL    C5929697   1.372   4.366   7.615  0.0876 -0.4778  0.2428
   30MOL    C6029698   1.426   4.479   7.549  0.0612  0.5021 -0.4788
   30MOL    C6129699   1.337   4.584   7.513 -0.3628 -0.2907 -0.1641
   30MOL    C6229700   1.195   4.580   7.521 -0.0894  0.7580 -0.2447
   30MOL    N6329701   1.116   4.683   7.474  0.8134  0.5147  0.3367
   30MOL    C6429702   0.974   4.689   7.473 -0.2692  0.0465  0.3286
   30MOL    C6529703   0.904   4.594   7.397  0.0402 -0.0886  0.3919
   30MOL    C6629704   0.763   4.599   7.388 -0.2562 -0.1459  0.4590
   30MOL    C6729705   0.703   4.719   7.436  0.0941  0.0235 -0.0335
   30MOL    N6829706   0.568   4.737   7.408  0.4197  0.0036  0.2338
   30MOL    C6929707   0.510   4.720   7.281 -0.1553 -0.8029  0.5217
   30MOL    C7029708   0.568   4.779   7.169 -0.1034 -0.6210  0.9179
   30MOL    C7129709   0.514   4.757   7.042  0.0985 -0.0882 -0.2921
   30MOL    C7229710   0.407   4.671   7.017  0.2886  0.2973 -0.5517
   30MOL    C7329711   0.362   4.627   6.883  0.0653  0.0059  0.0520
   30MOL    C7429712   0.342   4.619   7.133  0.4357  0.2402 -0.1095
   30MOL    C7529713   0.393   4.650   7.260 -0.1670  0.5356  0.6553
   30MOL    C7629714   0.771   4.814   7.512  0.4671  0.0179 -0.6605
   30MOL    C7729715   0.908   4.798   7.532 -0.0685 -0.1877 -0.0459
   30MOL    C7829716   1.142   4.463   7.583 -0.4189  0.9573 -0.1813
   30MOL    C7929717   1.232   4.357   7.625  0.2506  0.7150  0.0352
   30MOL    C8029718   1.695   4.198   7.615 -0.0376  0.6748 -0.2243
   30MOL    C8129719   1.821   4.188   7.680  0.0038 -0.5431 -0.1457
   30MOL    H8229720   2.032   4.179   7.850 -2.7751 -2.8514  0.3026
   30MOL    H8329721   1.775   4.441   7.905  1.8548 -2.8260  2.0974
   30MOL    H8429722   1.546   4.421   7.817  1.5332  0.7923  0.3180
   30MOL    H8529723   1.433   4.166   7.599  0.1895 -0.6361 -0.3809
   30MOL    H8629724   1.532   4.482   7.530  0.0792 -1.8410 -0.8817
   30MOL    H8729725   1.378   4.673   7.467  0.6790 -1.5308 -1.6722
   30MOL    H8829726   1.156   4.772   7.499 -2.4087  0.9875  4.3112
   30MOL    H8929727   0.960   4.515   7.348 -1.7484 -0.9589 -0.2708
   30MOL    H9029728   0.705   4.518   7.347  0.0003 -0.5451  0.8806
   30MOL    H9129729   0.515   4.798   7.469  0.1652 -0.9853  1.0175
   30MOL    H9229730   0.650   4.849   7.180 -1.6178  1.3740 -0.1783
   30MOL    H9329731   0.563   4.800   6.956 -0.7736  0.9773 -0.2707
   30MOL    H9429732   0.266   4.676   6.865  1.5336  2.4190 -1.3701
   30MOL    H9529733   0.349   4.518   6.884  2.7147 -0.3414  0.4333
   30MOL    H9629734   0.257   4.555   7.117 -1.4732  2.3472  1.3504
   30MOL    H9729735   0.348   4.609   7.349  2.7193 -0.9678  1.4967
   30MOL    H9829736   0.712   4.894   7.554 -0.1070  0.6304 -2.6030
   30MOL    H9929737   0.967   4.876   7.576  0.4434  0.4315 -1.7948
   30MOL   H10029738   1.036   4.447   7.587 -0.3086  0.4235  0.5567
   30MOL   H10129739   1.201   4.269   7.680  1.7067  1.0994  1.5169
   30MOL   H10229740   1.677   4.127   7.535 -1.0431 -0.0625  0.6357
   30MOL   H10329741   1.887   4.114   7.637 -1.0910  0.0293 -2.9528
   30MOL   N10429742   0.454   4.663   6.772  0.4667  1.0328  0.2289
   30MOL   C10529743   0.409   4.637   6.640  0.6223  0.4557 -0.7813
   30MOL   C10629744   0.277   4.593   6.610  0.2382  0.2746  0.6050
   30MOL   C10729745   0.242   4.571   6.476  0.2024  0.6122  0.3127
   30MOL   C10829746   0.330   4.600   6.369 -0.1086 -0.1852 -0.4659
   30MOL   N10929747   0.299   4.573   6.235 -0.5811 -0.7608  0.1988
   30MOL   C11029748   0.208   4.473   6.199  0.3868 -0.5266 -0.3286
   30MOL   C11129749   0.200   4.348   6.261 -0.2611  0.1460 -0.3771
   30MOL   C11229750   0.100   4.254   6.223 -0.9859  0.3729  0.8204
   30MOL   C11329751   0.003   4.299   6.123  0.3685 -0.0840  0.0264
   30MOL   N11429752   7.885   4.217   6.079  0.0014  0.0420 -0.7655
   30MOL   C11529753   7.855   4.084   6.106 -0.5279 -0.1721 -0.0992
   30MOL   C11629754   7.957   3.994   6.139 -1.2511 -0.4449  0.2720
   30MOL   C11729755   7.928   3.861   6.168 -1.2407  0.0202  0.1112
   30MOL   C11829756   7.798   3.814   6.166 -0.3980 -0.7241 -0.2222
   30MOL   N11929757   7.759   3.680   6.183  0.2163 -0.2182  1.1566
   30MOL   C12029758   7.834   3.586   6.254 -0.1313  0.0806 -0.0049
   30MOL   C12129759   7.871   3.635   6.379 -0.0478  0.3192  0.3246
   30MOL   C12229760   7.955   3.554   6.460  0.4968  0.1211 -0.5673
   30MOL   C12329761   0.020   3.429   6.417 -0.3455 -0.4490 -0.8289
   30MOL   C12429762   0.124   3.349   6.493  0.1575 -0.6465  0.0554
   30MOL   C12529763   7.956   3.381   6.291 -0.2238 -0.4695 -0.2510
   30MOL   C12629764   7.872   3.458   6.211 -0.7189  0.4109  0.1789
   30MOL   C12729765   7.696   3.904   6.122 -0.3089 -0.5659 -0.2801
   30MOL   C12829766   7.724   4.039   6.098  0.3253  0.0061  0.2213
   30MOL   C12929767   0.021   4.422   6.054  0.2950  0.5751 -0.2197
   30MOL   C13029768   0.126   4.507   6.091 -0.4207  0.1383 -0.3096
   30MOL   C13129769   0.461   4.644   6.396 -0.0132 -0.3648  0.1365
   30MOL   C13229770   0.494   4.674   6.531  0.2100 -0.6603  0.0896
   30MOL   H13329771   0.551   4.637   6.778 -0.0159 -0.5780  1.4664
   30MOL   H13429772   0.205   4.573   6.688  0.8353 -0.2997  1.0163
   30MOL   H13529773   0.149   4.521   6.454  0.0011  1.6979 -1.3910
   30MOL   H13629774   0.334   4.643   6.172  0.5611 -2.3586 -0.9955
   30MOL   H13729775   0.264   4.318   6.343 -1.9688  0.0831  0.9386
   30MOL   H13829776   0.093   4.158   6.273 -2.2316 -0.7238 -1.4162
   30MOL   H13929777   7.798   4.268   6.076  0.9402  1.6021 -2.8107
   30MOL   H14029778   0.078   4.023   6.144 -0.5590 -2.9761  1.4817
   30MOL   H14129779   0.023   3.797   6.208  1.1671  1.5936 -1.8694
   30MOL   H14229780   7.713   3.632   6.107  1.0349  2.0528 -0.8259
   30MOL   H14329781   7.838   3.730   6.418 -0.8243  1.5075 -3.1234
   30MOL   H14429782   0.022   3.599   6.544 -0.8316 -0.2461  0.4296
   30MOL   H14529783   0.115   3.248   6.454 -1.9982 -0.2883 -0.4072
   30MOL   H14629784   0.094   3.353   6.598 -1.0516 -0.3268 -0.2958
   30MOL   H14729785   7.981   3.284   6.251 -0.5715  0.6520 -3.3559
   30MOL   H14829786   7.842   3.419   6.115 -3.2876  0.5425  0.9037
   30MOL   H14929787   7.593   3.872   6.111 -0.0962 -0.6412 -2.1897
   30MOL   H15029788   7.652   4.116   6.076 -1.3761 -1.4031  0.7931
   30MOL   H15129789   7.930   4.441   5.977 -0.5706  1.1082  0.7200
   30MOL   H15229790   0.134   4.606   6.048  1.7503  0.1919  0.1650
   30MOL   H15329791   0.532   4.668   6.318 -0.5510  4.5599  0.9861
   30MOL   H15429792   0.589   4.717   6.557  0.2445 -1.2402  0.9434
   30MOL   N15529793   0.256   3.406   6.478  0.0601  0.1438  0.3691
   30MOL   C15629794   0.382   3.352   6.510  0.0806  0.3826  0.3778
   30MOL   C15729795   0.396   3.253   6.609  0.8681 -0.5611  0.0616
   30MOL   C15829796   0.512   3.182   6.631  0.2026  1.0387 -0.5940
   30MOL   C15929797   0.627   3.210   6.552 -0.2099  0.3163  0.1298
   30MOL   N16029798   0.746   3.145   6.557 -0.0593  0.0829  0.1609
   30MOL   C16129799   0.814   3.084   6.662  0.4917 -0.6683 -0.4260
   30MOL   C16229800   0.912   2.987   6.631 -0.5906 -0.7420 -0.3499
   30MOL   C16329801   0.984   2.926   6.735  0.1225 -0.1032 -0.4367
   30MOL   C16429802   0.940   2.940   6.870 -0.3089 -0.3444 -1.2575
   30MOL   N16529803   1.001   2.854   6.958 -0.1650  0.4698  0.3351
   30MOL   C16629804   0.963   2.819   7.082  0.0897  0.0336 -0.4788
   30MOL   C16729805   1.065   2.786   7.172  0.0943  0.2552 -0.1086
   30MOL   C16829806   1.039   2.772   7.309  0.5802  0.3902 -0.2547
   30MOL   C16929807   0.903   2.768   7.352  0.2155 -1.1129  0.5570
   30MOL   N17029808   0.879   2.747   7.492 -0.0680 -0.1376 -0.3965
   30MOL   C17129809   0.930   2.637   7.566  0.4555  0.1470 -0.1308
   30MOL   C17229810   0.968   2.648   7.702  0.3297 -0.2558  0.2342
   30MOL   C17329811   1.018   2.538   7.772 -0.3463  0.0680 -0.6787
   30MOL   C17429812   1.032   2.407   7.712  0.3631 -0.3355 -0.5683
   30MOL   C17529813   1.076   2.281   7.785  0.4483  0.2865 -0.0330
   30MOL   C17629814   1.003   2.400   7.572 -0.0444 -0.3818  0.4281
   30MOL   C17729815   0.947   2.510   7.502 -0.5155 -1.5259 -0.2063
   30MOL   C17829816   0.797   2.796   7.262  0.0551  0.3108 -0.0454
   30MOL   C17929817   0.830   2.816   7.126 -0.5557  0.6727  0.0156
   30MOL   C18029818   0.840   3.029   6.898  0.6353 -0.2687  0.8084
   30MOL   C18129819   0.783   3.111   6.798  0.5718  0.6028 -0.2235
   30MOL   C18229820   0.614   3.309   6.451 -0.5514  0.5488 -0.0444
   30MOL   C18329821   0.494   3.374   6.424 -0.3874  0.1675  0.2356
   30MOL   H18429822   0.265   3.487   6.418  0.7770 -0.3475 -0.2056
   30MOL   H18529823   0.312   3.233   6.674  0.1516  2.2979  0.0582
   30MOL   H18629824   0.525   3.097   6.697 -1.8037  0.9781 -0.2450
   30MOL   H18729825   0.797   3.138   6.469  0.4186  1.2050  0.3438
   30MOL   H18829826   0.931   2.953   6.530 -2.6920 -1.9229 -0.3748
   30MOL   H18929827   1.056   2.853   6.700 -0.5749 -1.3332  0.6605
   30MOL   H19029828   1.095   2.826   6.936 -0.1637  1.5922 -1.2518
   30MOL   H19129829   1.165   2.780   7.134 -0.3769  0.9782 -1.4922
   30MOL   H19229830   1.113   2.760   7.387  0.8895  1.4448 -0.3641
   30MOL   H19329831   0.871   2.835   7.541 -4.1462 -0.6519  0.0306
   30MOL   H19429832   0.983   2.748   7.741  1.3658 -0.7168  1.0694
   30MOL   H19529833   1.051   2.556   7.873 -1.1836  0.3031 -0.4393
   30MOL   H19629834   1.002   2.204   7.765  0.1526 -0.0301  2.0963
   30MOL   H19729835   1.092   2.302   7.891  2.8897  0.8816 -0.4888
   30MOL   H19829836   1.012   2.309   7.513  0.8827  1.6246 -2.6469
   30MOL   H19929837   0.932   2.497   7.395 -1.2591  1.7178 -0.5578
   30MOL   H20029838   0.694   2.802   7.293  0.7431  0.3631  2.2808
   30MOL   H20129839   0.758   2.835   7.048 -1.1101 -0.7580  0.1696
   30MOL   H20229840   0.809   3.036   7.001  0.9454  0.5465  0.8514
   30MOL   H20329841   0.700   3.176   6.822 -0.8915 -0.5534 -1.9895
   30MOL   H20429842   0.699   3.346   6.394 -1.4530 -1.8229 -3.0283
   30MOL   H20529843   0.481   3.439   6.338  1.4140  2.5408  1.7190
   30MOL   N20629844   1.208   2.233   7.741 -0.2098  0.6696  0.0091
   30MOL   C20729845   1.260   2.122   7.809 -0.0391  0.5318 -0.3951
   30MOL   C20829846   1.378   2.123   7.879  0.5190 -0.5795 -0.2100
   30MOL   C20929847   1.420   2.001   7.942 -0.3144 -0.2206  0.2780
   30MOL   C21029848   1.349   1.885   7.946  0.2601  0.1574  0.1866
   30MOL   N21129849   1.393   1.767   0.031 -0.3118 -0.1936 -0.3370
   30MOL   C21229850   1.458   1.755   0.153  0.6765  0.2289  0.5102
   30MOL   C21329851   1.543   1.645   0.168 -0.0904 -0.7846  0.2237
   30MOL   C21429852   1.587   1.620   0.294 -0.0614  0.2993 -0.0663
   30MOL   C21529853   1.583   1.713   0.398  1.0358 -1.0126  0.8152
   30MOL   N21629854   1.641   1.690   0.521 -0.3143 -0.5657  0.0160
   30MOL   C21729855   1.670   1.569   0.594 -0.2801  0.0829  1.0466
   30MOL   C21829856   1.775   1.566   0.690  0.2131 -0.1700  0.2816
   30MOL   C21929857   1.792   1.454   0.774  0.2341 -0.5143 -0.1464
   30MOL   C22029858   1.718   1.342   0.754  0.1795 -0.2479  0.2773
   30MOL   N22129859   1.749   1.226   0.828 -0.1993  0.0392 -0.4776
   30MOL   C22229860   1.687   1.099   0.836 -0.2118 -0.4564 -0.6673
   30MOL   C22329861   1.703   1.032   0.960 -0.7347  0.1234 -0.0185
   30MOL   C22429862   1.627   0.917   0.983 -0.1249  0.5523 -0.1862
   30MOL   C22529863   1.551   0.856   0.882 -0.5227  0.0901  0.5585
   30MOL   C22629864   1.468   0.732   0.907 -1.2935  0.0823 -0.5760
   30MOL   C22729865   1.561   0.909   0.748 -0.1934 -0.5214  0.4597
   30MOL   C22829866   1.621   1.034   0.729 -0.0617  0.8010  0.3486
   30MOL   C22929867   1.609   1.339   0.667  0.3480  0.0680  0.2241
   30MOL   C23029868   1.584   1.455   0.590  0.4174 -0.2144  0.4638
   30MOL   C23129869   1.514   1.830   0.379  0.5255  0.3621  0.1517
   30MOL   C23229870   1.446   1.848   0.258  0.3362 -0.4211 -0.3433
   30MOL   C23329871   1.228   1.880   7.875 -0.2702  0.2233  1.2537
   30MOL   C23429872   1.184   2.002   7.806 -0.2172  0.3764  0.2767
   30MOL   H23529873   1.275   2.305   7.718  0.3475 -0.0945 -0.7812
   30MOL   H23629874   1.434   2.213   7.898 -1.7360  0.3689  2.2207
   30MOL   H23729875   1.512   2.008   0.015  0.9405 -0.3696 -1.7253
   30MOL   H23829876   1.403   1.691   7.948  4.0074  1.0380 -1.2941
   30MOL   H23929877   1.556   1.566   0.096 -1.0223  0.6663 -1.5781
   30MOL   H24029878   1.627   1.520   0.304 -2.4532 -0.9106 -2.2007
   30MOL   H24129879   1.676   1.770   0.570  0.9845 -0.8440 -0.4323
   30MOL   H24229880   1.844   1.646   0.714 -0.3939 -0.2545  2.3531
   30MOL   H24329881   1.866   1.446   0.852 -0.2099 -2.0169  0.1277
   30MOL   H24429882   1.804   1.240   0.912  0.7896 -1.2202 -0.9058
   30MOL   H24529883   1.761   1.065   1.044 -0.1358  0.3079 -0.5071
   30MOL   H24629884   1.641   0.869   1.079 -0.3446  0.9070  0.0197
   30MOL   H24729885   1.512   0.681   0.993  0.0894  0.0062 -1.3026
   30MOL   H24829886   1.479   0.674   0.815  2.3715 -1.4385  0.7344
   30MOL   H24929887   1.501   0.858   0.673 -0.4181 -1.5060  1.2870
   30MOL   H25029888   1.606   1.067   0.627  0.2167  4.1293  1.3310
   30MOL   H25129889   1.536   1.260   0.676 -0.9934  0.9490 -2.3843
   30MOL   H25229890   1.505   1.450   0.517  1.2747  0.0210 -0.4840
   30MOL   H25329891   1.501   1.903   0.458 -0.4129  2.1318 -1.5954
   30MOL   H25429892   1.384   1.937   0.250 -0.1012 -0.6310  0.6378
   30MOL   H25529893   1.156   1.801   7.856  1.1858 -0.4981 -1.4815
   30MOL   H25629894   1.087   2.010   7.759  0.8194  0.6690 -1.8714
   30MOL   N25729895   1.339   0.762   0.953  0.3013 -0.1826  0.2480
   30MOL   C25829896   1.225   0.684   0.917  1.1994 -0.1817  0.2218
   30MOL   C25929897   1.229   0.567   0.835  0.1518 -0.5946  0.3473
   30MOL   C26029898   1.114   0.488   0.805  0.3376 -0.4072 -0.1476
   30MOL   C26129899   0.995   0.520   0.873  1.0864 -0.2753  1.2365
   30MOL   N26229900   0.879   0.444   0.845  0.3535 -0.1193 -0.5021
   30MOL   C26329901   0.748   0.482   0.866  0.4095 -0.8562 -0.1863
   30MOL   C26429902   0.658   0.400   0.938 -0.1794 -0.7536 -0.3729
   30MOL   C26529903   0.522   0.438   0.957  0.0107 -0.1326 -0.0537
   30MOL   C26629904   0.474   0.548   0.886 -0.4818  0.1747 -0.3565
   30MOL   N26729905   0.341   0.581   0.896  0.1901 -0.2165 -0.0191
   30MOL   C26829906   0.262   0.621   0.790 -0.6887 -0.0346  0.2127
   30MOL   C26929907   0.290   0.583   0.659  0.0807  0.3616 -0.6068
   30MOL   C27029908   0.196   0.617   0.555  0.0733  1.0449  0.2047
   30MOL   C27129909   0.071   0.679   0.583 -0.3043 -0.0372  0.5635
   30MOL   N27229910   7.941   0.687   0.499 -0.3469 -0.3112  0.8115
   30MOL   C27329911   7.953   0.661   0.361  0.3140  0.5310  0.0877
   30MOL   C27429912   0.075   0.721   0.291  0.1078 -0.1813 -0.1664
   30MOL   C27529913   0.102   0.679   0.162 -0.7211  0.2165  0.2119
   30MOL   C27629914   0.017   0.585   0.100  1.3462 -0.6115 -0.4818
   30MOL   C27729915   0.047   0.533   7.943  0.4610 -0.4217  0.2943
   30MOL   C27829916   7.881   0.532   0.171 -0.0387 -0.5698 -0.0264
   30MOL   C27929917   7.857   0.579   0.300 -0.2592 -0.6613  0.2160
   30MOL   C28029918   0.054   0.728   0.716 -0.0814 -0.6337  0.3301
   30MOL   C28129919   0.153   0.702   0.818 -0.1273  0.0773 -0.6087
   30MOL   C28229920   0.556   0.632   0.813  0.1421  0.5004 -0.0615
   30MOL   C28329921   0.693   0.600   0.807  0.6745  0.1391 -0.1099
   30MOL   C28429922   0.993   0.637   0.952  0.2719  0.7606 -0.8436
   30MOL   C28529923   1.103   0.722   0.967 -0.4016 -0.0565  0.0981
   30MOL   H28629924   1.326   0.823   1.033  1.5155 -1.4376  1.4155
   30MOL   H28729925   1.328   0.534   0.806 -0.1634 -0.0891 -1.3386
   30MOL   H28829926   1.129   0.401   0.742  0.4095  1.4568 -2.7647
   30MOL   H28929927   0.903   0.348   0.863  1.3393 -0.2241 -2.1967
   30MOL   H29029928   0.693   0.312   0.991 -0.3435 -1.0933 -0.8213
   30MOL   H29129929   0.464   0.384   1.030  0.9366 -0.4815  0.4412
   30MOL   H29229930   0.291   0.558   0.980  0.5828 -1.2676 -0.0628
   30MOL   H29329931   0.380   0.525   0.644 -0.0559  0.0993 -0.4104
   30MOL   H29429932   0.214   0.586   0.453  1.6659 -1.9677  1.3323
   30MOL   H29529933   7.846   0.693   0.532 -1.2598  0.3880 -1.7981
   30MOL   H29629934   0.146   0.783   0.344 -1.7375  1.5876  0.2956
   30MOL   H29729935   0.192   0.711   0.113 -1.3893  1.0583 -0.4956
   30MOL   H29829936   7.962   0.448   7.936 -1.0213  0.8160 -0.9467
   30MOL   H29929937   0.142   0.482   7.958  0.0660 -1.2064  0.1388
   30MOL   H30029938   7.813   0.464   0.122  1.5351 -2.3825  0.2150
   30MOL   H30129939   7.770   0.539   0.349 -2.7278  0.9728 -2.6578
   30MOL   H30229940   7.947   0.786   0.733  1.6411  2.7909 -1.7191
   30MOL   H30329941   0.137   0.738   0.919 -0.6975 -0.1890 -0.6036
   30MOL   H30429942   0.522   0.722   0.764 -0.5828  0.4158  0.2749
   30MOL   H30529943   0.752   0.662   0.742 -0.9785  0.6239 -1.1976
   30MOL   H30629944   0.899   0.671   0.991 -0.4175 -1.8544 -0.1145
   30MOL   H30729945   1.091   0.812   1.027  0.5935  0.4340 -0.4206
   30MOL   N30829946   0.040   0.621   7.826 -0.4227  0.6334 -0.0788
   30MOL   C30929947   0.101   0.573   7.712  0.5509  0.2133  0.1562
   30MOL   C31029948   0.079   0.647   7.593 -0.5610 -0.7296  0.0004
   30MOL   C31129949   0.128   0.595   7.468 -0.0611 -0.3293 -0.1013
   30MOL   C31229950   0.189   0.466   7.458  0.5874 -0.5044 -0.4479
   30MOL   N31329951   0.228   0.418   7.328 -0.1877 -0.0182  0.2434
   30MOL   C31429952   0.279   0.288   7.301 -0.3994  0.2744 -0.0177
   30MOL   C31529953   0.209   0.171   7.340 -0.0757 -0.5955  0.2613
   30MOL   C31629954   0.263   0.042   7.327 -0.0584  0.4963  0.1456
   30MOL   C31729955   0.382   0.024   7.260 -0.3198  0.0212  0.6101
   30MOL   N31829956   0.429   7.881   7.243 -0.3642 -0.4791  0.0731
   30MOL   C31929957   0.521   7.830   7.155 -0.4624  0.6241 -0.5945
   30MOL   C32029958   0.533   7.867   7.022 -0.2038  0.1593 -0.3585
   30MOL   C32129959   0.627   7.800   6.942  0.4779 -0.2244  0.4116
   30MOL   C32229960   0.692   7.687   6.991  0.7816  0.0779  0.3479
   30MOL   N32329961   0.757   7.605   6.899  0.1302 -0.1689 -0.1102
   30MOL   C32429962   0.713   7.483   6.851 -0.4868 -0.9112 -0.0818
   30MOL   C32529963   0.792   7.420   6.757 -0.1478  0.0088  0.2834
   30MOL   C32629964   0.764   7.291   6.714  0.0992 -0.0858  0.8349
   30MOL   C32729965   0.641   7.234   6.758 -0.0523 -0.4543  0.6003
   30MOL   C32829966   0.602   7.095   6.713 -0.5342 -0.0337 -1.0590
   30MOL   C32929967   0.554   7.300   6.849 -0.5052  0.3004 -0.3270
   30MOL   C33029968   0.603   7.423   6.897  0.4049 -0.0766 -0.0646
   30MOL   C33129969   0.681   7.644   7.127 -0.0264  0.2764  0.6062
   30MOL   C33229970   0.603   7.724   7.209  0.6602 -0.0482 -0.1560
   30MOL   C33329971   0.452   0.139   7.215  0.4466 -1.0860  0.6093
   30MOL   C33429972   0.401   0.271   7.243  0.0802  0.0982 -0.4079
   30MOL   C33529973   0.218   0.393   7.580  0.1202 -0.1119 -0.6000
   30MOL   C33629974   0.172   0.449   7.701 -0.6689 -0.3048 -0.3243
   30MOL   H33729975   0.030   0.722   7.834 -0.1986  0.7721 -1.4057
   30MOL   H33829976   0.039   0.747   7.585  0.2658 -0.1790  2.5015
   30MOL   H33929977   0.117   0.658   7.381 -0.4752  0.0185  0.2004
   30MOL   H34029978   0.227   0.477   7.246  2.6805 -2.0515 -1.3178
   30MOL   H34129979   0.111   0.186   7.385  1.3841  1.6821  2.8751
   30MOL   H34229980   0.202   7.940   7.354  0.6426 -0.5010 -1.3094
   30MOL   H34329981   0.395   7.810   7.307 -0.8026  0.1375  0.5283
   30MOL   H34429982   0.475   7.954   6.994 -0.2026  0.8307  1.6437
   30MOL   H34529983   0.634   7.827   6.838 -3.0907 -0.6226  0.0183
   30MOL   H34629984   0.828   7.651   6.843 -0.0657 -0.6658 -0.7700
   30MOL   H34729985   0.885   7.467   6.728  0.3857 -1.6575 -0.7467
   30MOL   H34829986   0.827   7.242   6.641  1.7591  4.3586 -0.8821
   30MOL   H34929987   0.651   7.076   6.617 -0.5110 -0.4092 -0.9696
   30MOL   H35029988   0.493   7.098   6.703 -0.6162 -2.7995 -1.2725
   30MOL   H35129989   0.470   7.239   6.879 -0.9085  0.7058 -0.6327
   30MOL   H35229990   0.542   7.465   6.976  0.9939  0.0343  0.3328
   30MOL   H35329991   0.739   7.566   7.174 -1.6547  0.2271  2.6345
   30MOL   H35429992   0.598   7.705   7.315  1.4983 -1.0668 -0.2929
   30MOL   H35529993   0.552   0.141   7.173  0.3808  3.1778  0.4295
   30MOL   H35629994   0.467   0.351   7.212 -0.0889  1.0410  1.5963
   30MOL   H35729995   0.261   0.295   7.575  1.2389  0.3624 -0.3558
   30MOL   H35829996   0.186   0.386   7.787 -1.8780 -1.2408 -0.7947
   30MOL   N35929997   0.653   6.997   6.809  0.2961  0.3149 -0.2215
   30MOL   C36029998   0.572   6.885   6.831 -0.5415  0.5791  0.3347
   30MOL   C36129999   0.551   6.848   6.965 -0.2617 -0.7155  0.5154
   30MOL   C36230000   0.483   6.727   6.995  0.3789 -0.3044 -0.2268
   30MOL   C36330001   0.438   6.645   6.890  0.0696 -0.1041  0.1134
   30MOL   N36430002   0.371   6.520   6.931 -0.0298  0.3611 -0.5070
   30MOL   C36530003   0.353   6.414   6.848 -0.2760  0.9457 -0.5280
   30MOL   C36630004   0.444   6.313   6.835  0.0150 -0.6234  0.1595
   30MOL   C36730005   0.425   6.204   6.747  0.4831 -0.0207  0.2643
   30MOL   C36830006   0.311   6.200   6.666  0.2204 -0.3769  0.2144
   30MOL   N36930007   0.285   6.093   6.582  0.0107  0.7116 -0.0922
   30MOL   C37030008   0.295   5.953   6.617  0.2289 -0.0753 -0.1383
   30MOL   C37130009   0.349   5.856   6.528 -0.1005 -0.3974  0.1884
   30MOL   C37230010   0.376   5.721   6.571  0.6968  0.0567 -0.6174
   30MOL   C37330011   0.342   5.681   6.703  0.4239  0.0388 -0.5091
   30MOL   N37430012   0.369   5.544   6.739 -0.2961  0.2407  0.2768
   30MOL   C37530013   0.395   5.511   6.870 -0.0861  0.0655  0.6309
   30MOL   C37630014   0.469   5.596   6.954  0.1207  0.1299 -0.2326
   30MOL   C37730015   0.473   5.565   7.091  0.1959 -0.0238  0.1846
   30MOL   C37830016   0.394   5.452   7.138  0.5653  0.2993  0.0545
   30MOL   C37930017   0.401   5.420   7.290  0.2844  0.3074  0.2967
   30MOL   C38030018   0.324   5.369   7.052 -0.2697  0.1741 -0.2681
   30MOL   C38130019   0.336   5.389   6.917  0.0829  0.1551 -0.0960
   30MOL   C38230020   0.285   5.769   6.790 -0.5364  0.0139 -0.1701
   30MOL   C38330021   0.245   5.900   6.742 -0.0464 -0.7707 -0.0661
   30MOL   C38430022   0.221   6.306   6.666 -0.5165  0.5247 -0.4715
   30MOL   C38530023   0.240   6.414   6.761  0.0123  0.0875  1.1519
   30MOL   C38630024   0.453   6.683   6.760 -0.2460  0.1439  0.0802
   30MOL   C38730025   0.517   6.811   6.728  0.5542  0.8748 -0.4466
   30MOL   H38830026   0.705   7.026   6.891 -1.4621  1.8764  0.3858
   30MOL   H38930027   0.595   6.913   7.039  1.0407  0.2720 -1.0959
   30MOL   H39030028   0.473   6.687   7.094  2.1490 -3.3779 -1.2242
   30MOL   H39130029   0.316   6.516   7.016  0.3072  2.3508 -0.1682
   30MOL   H39230030   0.528   6.310   6.903 -0.4372 -0.0122  0.7482
   30MOL   H39330031   0.492   6.119   6.747 -0.0260 -0.4215  0.4984
   30MOL   H39430032   0.248   6.113   6.490 -0.0543  0.3088 -0.1574
   30MOL   H39530033   0.378   5.885   6.428 -1.8416 -2.9288 -1.0865
   30MOL   H39630034   0.409   5.658   6.490  2.8229 -0.9507  0.9756
   30MOL   H39730035   0.367   5.472   6.669 -2.8967  0.1516  0.4166
   30MOL   H39830036   0.523   5.679   6.911  1.3156 -0.9276 -0.8075
   30MOL   H39930037   0.537   5.626   7.153 -1.3322  0.3771  1.3860
   30MOL   H40030038   0.501   5.383   7.308 -0.6079 -2.1714  0.3029
   30MOL   H40130039   0.331   5.337   7.302 -0.7196  1.1806  0.5660
   30MOL   H40230040   0.282   5.280   7.097  1.2771  0.4113  1.7021
   30MOL   H40330041   0.270   5.333   6.852  0.7489  0.7091 -1.2539
   30MOL   H40430042   0.252   5.744   6.890  1.6017  0.7408  0.7309
   30MOL   H40530043   0.195   5.964   6.813 -1.9879 -1.3024 -0.9111
   30MOL   H40630044   0.137   6.299   6.599 -0.0905 -3.6306 -0.7406
   30MOL   H40730045   0.164   6.490   6.772 -1.8207 -2.0486  3.6879
   30MOL   H40830046   0.420   6.609   6.688  0.7316 -0.8451  0.6283
   30MOL   H40930047   0.520   6.836   6.623 -0.0671 -0.4521 -0.7962
   30MOL   N41030048   0.366   5.536   7.371 -0.0216  0.1585 -0.7564
   30MOL   C41130049   0.274   5.511   7.474  0.1559  0.0470  0.5619
   30MOL   C41230050   0.153   5.584   7.473  0.3086 -0.1534 -0.4553
   30MOL   C41330051   0.071   5.581   7.584 -0.4746 -0.4867  0.1450
   30MOL   C41430052   0.105   5.499   7.691 -0.5813  0.0057  0.1429
   30MOL   N41530053   0.028   5.496   7.807 -0.0910 -0.0954  0.3918
   30MOL   C41630054   7.890   5.565   7.823 -0.0405 -0.0230  0.3161
   30MOL   C41730055   7.785   5.560   7.727 -0.1159  0.1006  0.2252
   30MOL   C41830056   7.662   5.617   7.754 -0.6841 -0.8092  0.3663
   30MOL   C41930057   7.630   5.666   7.880 -0.8812 -0.1743  0.1713
   30MOL   N42030058   7.499   5.709   7.910  0.3430 -0.7107 -0.3263
   30MOL   C42130059   7.409   5.651   0.023 -0.1696  0.8027 -0.0127
   30MOL   C42230060   7.286   5.716   0.036  0.9904  0.6040  0.5777
   30MOL   C42330061   7.177   5.649   0.105  0.1621  0.1660 -0.1438
   30MOL   C42430062   7.195   5.521   0.155 -0.3415  0.9155  0.1787
   30MOL   N42530063   7.087   5.454   0.213 -0.5694 -0.1318  0.0771
   30MOL   C42630064   7.086   5.430   0.352 -0.0868  0.3834 -0.0116
   30MOL   C42730065   7.203   5.430   0.431 -0.0082  0.3913  0.6399
   30MOL   C42830066   7.188   5.395   0.568  0.1748 -0.4906 -0.1265
   30MOL   C42930067   7.058   5.352   0.617  0.4861  0.1316 -0.0575
   30MOL   C43030068   7.045   5.322   0.767  0.2783  0.0697 -0.3721
   30MOL   C43130069   6.949   5.347   0.529  0.7046 -0.4481  0.2726
   30MOL   C43230070   6.961   5.404   0.402  0.4491 -0.3925 -0.1033
   30MOL   C43330071   7.322   5.460   0.142  0.2945 -0.3308 -0.2877
   30MOL   C43430072   7.428   5.526   0.075  0.0884 -1.0910  1.3329
   30MOL   C43530073   7.731   5.668   7.980  0.3205 -0.6380  0.5087
   30MOL   C43630074   7.858   5.608   7.957 -0.1599 -0.7066  0.3062
   30MOL   C43730075   0.221   5.420   7.691  0.6386  0.7658  0.0547
   30MOL   C43830076   0.311   5.436   7.583  0.4520 -0.8786 -0.2755
   30MOL   H43930077   0.353   5.617   7.312 -3.5273 -1.0008 -1.6600
   30MOL   H44030078   0.142   5.645   7.384 -3.0753 -0.1565 -0.0848
   30MOL   H44130079   7.976   5.657   7.592  1.2017  1.2841 -0.0203
   30MOL   H44230080   0.057   5.443   7.888 -2.4950 -1.7746  0.2214
   30MOL   H44330081   7.799   5.519   7.628 -0.3010  0.5701  0.0052
   30MOL   H44430082   7.585   5.615   7.678  0.2458 -0.2316 -0.6129
   30MOL   H44530083   7.457   5.771   7.843 -0.9871 -1.3490 -0.0879
   30MOL   H44630084   7.270   5.810   7.968 -1.0658  0.2705  0.5558
   30MOL   H44730085   7.078   5.693   0.108  0.9057  1.8196  0.5364
   30MOL   H44830086   6.994   5.463   0.173 -0.8431 -1.2321  0.4431
   30MOL   H44930087   7.305   5.455   0.404  0.2029 -0.6100  0.5042
   30MOL   H45030088   7.270   5.406   0.636  1.7408  3.1172 -2.4032
   30MOL   H45130089   7.018   5.217   0.779 -0.1502 -0.0343 -2.1006
   30MOL   H45230090   6.965   5.385   0.806  0.8302  0.7047 -0.2591
   30MOL   H45330091   6.850   5.325   0.565  0.0948  0.1903 -0.9726
   30MOL   H45430092   6.877   5.423   0.337  0.3639  2.0598  0.6551
   30MOL   H45530093   7.333   5.364   0.191 -2.2770 -0.6085 -0.1825
   30MOL   H45630094   7.526   5.482   0.071  0.7420  0.2881  1.8775
   30MOL   H45730095   7.700   5.709   0.093  1.2372  1.9507 -0.2705
   30MOL   H45830096   7.934   5.613   0.051  0.6688 -0.8158 -0.5006
   30MOL   H45930097   0.239   5.362   7.780 -0.5531 -1.1444 -0.9116
   30MOL   H46030098   0.409   5.392   7.576  1.2169  0.8072 -0.5402
   30MOL   N46130099   7.172   5.332   0.844 -0.0855 -0.3787 -0.1306
   30MOL   C46230100   7.180   5.362   0.977  0.0396  0.8542 -0.2515
   30MOL   C46330101   7.096   5.456   1.041 -0.1558  0.2820  0.0016
   30MOL   C46430102   7.102   5.470   1.181 -0.6644  0.0920  0.8603
   30MOL   C46530103   7.191   5.386   1.253 -0.2501 -0.4115  0.0267
   30MOL   N46630104   7.203   5.397   1.392  0.2927  0.4118  0.1982
   30MOL   C46730105   7.208   5.517   1.460  0.7508  0.4292 -0.2125
   30MOL   C46830106   7.178   5.516   1.599  0.4365 -0.0305 -0.0676
   30MOL   C46930107   7.196   5.633   1.678  0.5616 -0.4900 -0.6509
   30MOL   C47030108   7.244   5.757   1.618 -0.2346  0.1413  0.4309
   30MOL   N47130109   7.269   5.868   1.704 -0.6279 -0.5349 -0.0656
   30MOL   C47230110   7.393   5.923   1.733 -0.2563 -0.7601  0.5531
   30MOL   C47330111   7.515   5.872   1.681 -0.6398  0.1096 -0.7701
   30MOL   C47430112   7.641   5.925   1.725 -0.1392  0.2494  0.1495
   30MOL   C47530113   7.652   6.028   1.815 -0.2434 -0.4437 -0.7846
   30MOL   N47630114   7.782   6.085   1.843 -0.3463  0.1550 -0.0469
   30MOL   C47730115   7.910   6.042   1.802 -0.1288  0.1287  0.1164
   30MOL   C47830116   0.014   5.957   1.876  0.1517 -0.1766  0.8957
   30MOL   C47930117   0.127   5.897   1.814 -0.5327 -0.2285  0.2137
   30MOL   C48030118   0.170   5.950   1.684 -0.6521 -0.5299 -0.6619
   30MOL   C48130119   0.306   5.920   1.632 -0.4158 -0.3579  0.0581
   30MOL   C48230120   0.087   6.050   1.622  0.4201  0.7443  0.1522
   30MOL   C48330121   7.956   6.096   1.684  0.6711 -0.4107  0.2178
   30MOL   C48430122   7.532   6.081   1.863 -0.2488 -0.2198  0.2542
   30MOL   C48530123   7.402   6.032   1.829 -0.1978  0.1290 -0.7120
   30MOL   C48630124   7.259   5.763   1.480 -0.1089  0.1064  0.5659
   30MOL   C48730125   7.247   5.642   1.401  0.0059  0.0994 -0.7162
   30MOL   C48830126   7.268   5.284   1.188 -0.7460 -0.1447 -0.5446
   30MOL   C48930127   7.271   5.283   1.052  0.2676  0.3277  0.3298
   30MOL   H49030128   7.256   5.295   0.801  0.1425 -0.6952  0.5786
   30MOL   H49130129   7.017   5.506   0.988  1.2468  1.1517 -1.3027
   30MOL   H49230130   7.048   5.547   1.235 -0.9825  0.1211  0.5070
   30MOL   H49330131   7.229   5.308   1.433 -1.3094 -1.2954 -2.3773
   30MOL   H49430132   7.130   5.431   1.647  0.0800 -0.5480 -1.3282
   30MOL   H49530133   7.171   5.634   1.783 -1.0546  0.2485 -1.0368
   30MOL   H49630134   7.202   5.872   1.779 -0.4155 -0.1822  0.1072
   30MOL   H49730135   7.517   5.793   1.608 -0.8502  0.9958 -1.7472
   30MOL   H49830136   7.729   5.876   1.688 -0.2868  0.0354  0.0865
   30MOL   H49930137   7.787   6.181   1.874  1.5314  0.4286 -1.1295
   30MOL   H50030138   7.977   5.921   1.977 -1.1297  0.6260  0.9483
   30MOL   H50130139   0.187   5.820   1.861  2.3424  2.6417  1.4309
   30MOL   H50230140   0.337   5.823   1.671 -0.5054  0.1051  1.3176
   30MOL   H50330141   0.381   5.985   1.677 -1.2678 -0.0466  1.0350
   30MOL   H50430142   0.115   6.082   1.523 -2.0179 -2.7351 -1.7749
   30MOL   H50530143   7.899   6.169   1.629 -0.6402 -1.4400  0.1911
   30MOL   H50630144   7.539   6.167   1.928 -2.0093  1.2196 -1.4070
   30MOL   H50730145   7.312   6.082   1.862  0.4122  1.6322 -1.2979
   30MOL   H50830146   7.302   5.854   1.443  3.8489 -1.3942  1.2139
   30MOL   H50930147   7.277   5.654   1.298 -0.1300  1.0673 -0.6516
   30MOL   H51030148   7.338   5.226   1.248 -1.0988  0.4594  0.4694
   30MOL   H51130149   7.331   5.203   1.013  1.0848  0.6066  1.0000
   30MOL   N51230150   0.313   5.904   1.487  0.2007  0.2540 -0.2677
   30MOL   C51330151   0.425   5.859   1.420  0.6541 -0.0478  0.4918
   30MOL   C51430152   0.407   5.840   1.278  0.8637  0.4209  0.0513
   30MOL   C51530153   0.519   5.805   1.199  0.1056  0.2941 -0.0531
   30MOL   C51630154   0.654   5.804   1.251 -0.0831 -0.5335  0.1841
   30MOL   N51730155   0.774   5.781   1.177 -0.3339  0.3729  0.2246
   30MOL   C51830156   0.810   5.690   1.075  0.8175  0.0223 -0.1619
   30MOL   C51930157   0.948   5.673   1.038  0.5936  0.7500 -0.5384
   30MOL   C52030158   0.984   5.576   0.938 -0.4469 -0.5661  0.0143
   30MOL   C52130159   0.884   5.489   0.883 -0.3782  0.0893  0.2357
   30MOL   N52230160   0.916   5.392   0.787  0.0737  0.0013  0.3474
   30MOL   C52330161   1.032   5.355   0.723  0.5399  1.1245 -0.1624
   30MOL   C52430162   1.134   5.279   0.787  0.4128 -0.4093 -0.5244
   30MOL   C52530163   1.246   5.241   0.714 -0.5393  0.1876  0.1700
   30MOL   C52630164   1.266   5.269   0.576  0.1345  0.8254  0.2214
   30MOL   N52730165   1.386   5.236   0.515 -0.7006  0.3746 -1.0365
   30MOL   C52830166   1.474   5.137   0.560 -0.2846  0.1953  0.2188
   30MOL   C52930167   1.432   5.005   0.580  0.2887 -0.3829 -1.0502
   30MOL   C53030168   1.521   4.911   0.635 -0.8029 -0.1951  0.7329
   30MOL   C53130169   1.652   4.948   0.675 -0.1577  0.1054 -0.4260
   30MOL   C53230170   1.757   4.851   0.732  0.1759 -0.1726  0.4502
   30MOL   C53330171   1.687   5.083   0.654  0.4922  0.1936  0.2404
   30MOL   C53430172   1.603   5.180   0.596 -0.7010 -0.3711  0.5970
   30MOL   C53530173   1.163   5.336   0.507  0.4704  0.4035  0.2767
   30MOL   C53630174   1.049   5.384   0.585  0.0404  0.1122 -0.2805
   30MOL   C53730175   0.754   5.503   0.927 -0.1218 -0.2019  0.1528
   30MOL   C53830176   0.716   5.609   1.015  0.4708 -0.6913 -0.8538
   30MOL   C53930177   0.666   5.820   1.385  0.2870 -0.3839  0.5757
   30MOL   C54030178   0.555   5.847   1.467  0.5501 -0.2572  0.0530
   30MOL   H54130179   0.223   5.873   1.451  0.7107 -1.7447  0.1112
   30MOL   H54230180   0.312   5.869   1.236  0.7865  0.4131  0.2197
   30MOL   H54330181   0.517   5.792   1.091 -0.5412 -0.9443  0.0976
   30MOL   H54430182   0.847   5.834   1.223 -0.8937 -0.7835  2.4982
   30MOL   H54530183   1.030   5.724   1.087  0.6814  1.3503 -1.3013
   30MOL   H54630184   1.087   5.568   0.908 -0.4862  0.4628 -0.4248
   30MOL   H54730185   0.836   5.344   0.749 -0.4914  1.1135  0.0799
   30MOL   H54830186   1.121   5.251   0.890 -2.3169 -0.3780 -0.8189
   30MOL   H54930187   1.316   5.190   0.779  0.1559  0.7109 -0.1705
   30MOL   H55030188   1.394   5.276   0.422  1.2393  0.0924 -1.0042
   30MOL   H55130189   1.334   4.975   0.546 -0.0465  1.7030 -2.0812
   30MOL   H55230190   1.496   4.805   0.636  0.2345 -0.4586 -0.1186
   30MOL   H55330191   1.760   4.854   0.841  1.4173  1.0454  0.4007
   30MOL   H55430192   1.856   4.891   0.708  0.0390 -1.0702 -1.7199
   30MOL   H55530193   1.788   5.117   0.674 -0.1025  1.4211  1.2182
   30MOL   H55630194   1.640   5.277   0.566 -1.5241 -0.3417 -0.3604
   30MOL   H55730195   1.175   5.361   0.402 -0.0159  2.7867  0.7435
   30MOL   H55830196   0.964   5.435   0.541 -0.8101  0.0195  1.2395
   30MOL   H55930197   0.673   5.445   0.885  0.4893  0.4163 -1.9195
   30MOL   H56030198   0.611   5.623   1.039 -0.0663 -2.2458 -2.2074
   30MOL   H56130199   0.760   5.817   1.439  0.7605  4.1339  0.1906
   30MOL   H56230200   0.585   5.865   1.570 -0.6448 -2.1261  0.7484
   30MOL   N56330201   1.746   4.727   0.667  0.5969 -0.0514 -0.0131
   30MOL   C56430202   1.758   4.712   0.532  0.0197  0.0047 -0.0040
   30MOL   C56530203   1.828   4.804   0.446 -0.2563  0.0401 -0.4564
   30MOL   C56630204   1.836   4.783   0.308 -1.0044  0.2925  0.0357
   30MOL   C56730205   1.787   4.664   0.249  0.1848 -0.2014 -0.2596
   30MOL   N56830206   1.773   4.650   0.114  0.1241  0.1585  0.3026
   30MOL   C56930207   1.657   4.681   0.050 -0.4012  0.0343  0.2832
   30MOL   C57030208   1.653   4.696   7.893  0.2406  0.3645  0.8303
   30MOL   C57130209   1.530   4.695   7.830 -0.9144 -0.1307 -0.6667
   30MOL   C57230210   1.410   4.710   7.906  0.2637  0.6841 -0.2966
   30MOL   N57330211   1.287   4.737   7.845  0.1307 -0.0764 -0.0616
   30MOL   C57430212   1.191   4.838   7.879  0.5346 -0.4262 -0.3132
   30MOL   C57530213   1.230   4.949   7.951  0.2085 -0.0255 -0.0706
   30MOL   C57630214   1.135   5.046   7.981 -0.4056 -0.3926 -0.1405
   30MOL   C57730215   1.003   5.035   7.933  0.0919  0.2392  0.2836
   30MOL   N57830216   0.914   5.137   7.949 -0.0315 -0.0336  0.6545
   30MOL   C57930217   0.850   5.172   0.082  0.1779 -0.5719 -0.5927
   30MOL   C58030218   0.901   5.135   0.210  0.2057 -0.1691 -0.4283
   30MOL   C58130219   0.845   5.195   0.329  0.2527 -0.4206  0.6430
   30MOL   C58230220   0.735   5.277   0.315  0.2630 -0.0168  0.1874
   30MOL   C58330221   0.672   5.332   0.439  0.2256 -0.5222  1.0111
   30MOL   C58430222   0.691   5.321   0.189 -0.1871  0.5289  0.2363
   30MOL   C58530223   0.748   5.267   0.074  0.2918  0.1310  0.2992
   30MOL   C58630224   0.963   4.920   7.864 -0.8355  0.0795  0.7239
   30MOL   C58730225   1.057   4.818   7.835  0.1547  0.1277 -0.0003
   30MOL   C58830226   1.417   4.708   0.063  0.4951 -0.2044 -0.0715
   30MOL   C58930227   1.538   4.690   0.121 -0.0949  0.0514  0.6469
   30MOL   C59030228   1.733   4.569   0.335  0.3854 -0.1118 -0.3845
   30MOL   C59130229   1.714   4.593   0.472  0.3946  0.7490  0.2577
   30MOL   H59230230   1.702   4.653   0.721  1.5059 -0.1995  0.5287
   30MOL   H59330231   1.868   4.896   0.487  1.7183 -0.9118 -0.1994
   30MOL   H59430232   1.869   4.873   0.258  0.4378 -0.1972  0.0797
   30MOL   H59530233   1.854   4.644   0.055 -0.0829 -1.0339  0.1211
   30MOL   H59630234   1.741   4.698   7.830 -1.7368 -2.3809 -2.1883
   30MOL   H59730235   1.520   4.697   7.722 -0.9177  1.5662 -0.6384
   30MOL   H59830236   1.249   4.660   7.792 -1.1069  0.9657 -0.7154
   30MOL   H59930237   1.329   4.957   0.010 -0.6511 -0.1429  2.0761
   30MOL   H60030238   1.156   5.130   0.063 -1.9610  0.5946 -0.8989
   30MOL   H60130239   0.896   5.208   7.880  0.7257  0.1022  0.6023
   30MOL   H60230240   0.989   5.074   0.225 -0.2670 -1.0171 -1.1118
   30MOL   H60330241   0.892   5.172   0.424  0.4471  0.9141  0.8754
   30MOL   H60430242   0.724   5.425   0.458  0.6570 -0.7190  0.8059
   30MOL   H60530243   0.690   5.267   0.525  0.3459  0.9826  2.1323
   30MOL   H60630244   0.622   5.403   0.185 -1.5743 -0.6746 -1.0187
   30MOL   H60730245   0.713   5.307   7.963  1.4306 -0.5232 -0.4212
   30MOL   H60830246   0.861   4.910   7.831 -0.5568 -0.6094  0.0422
   30MOL   H60930247   1.027   4.730   7.781  0.0925  2.9621 -4.8075
   30MOL   H61030248   1.326   4.723   0.118  0.6639  2.8913 -0.5685
   30MOL   H61130249   1.534   4.685   0.229 -2.5882  1.4655  0.6504
   30MOL   H61230250   1.703   4.471   0.303  0.5393 -0.1973 -0.2646
   30MOL   H61330251   1.674   4.508   0.525 -0.6577  0.0338 -1.6309
   30MOL   N61430252   0.534   5.370   0.433 -0.5143  0.4105  0.2481
   30MOL   C61530253   0.436   5.272   0.467  0.1762 -0.0140 -0.0768
   30MOL   C61630254   0.305   5.323   0.488 -0.9321  0.1607 -0.8235
   30MOL   C61730255   0.203   5.233   0.525 -0.6495 -0.1879 -0.3234
   30MOL   C61830256   0.231   5.098   0.523 -0.2921 -0.2517  1.3422
   30MOL   N61930257   0.118   5.015   0.543 -0.7347  0.4147  1.1533
   30MOL   C62030258   0.103   4.878   0.538 -0.1975  0.0574 -0.8946
   30MOL   C62130259   0.005   4.819   0.609 -0.4554 -0.9495  0.7399
   30MOL   C62230260   7.972   4.680   0.614  0.5302 -0.4090 -0.1580
   30MOL   C62330261   0.071   4.597   0.535  0.2905  0.2825 -0.5723
   30MOL   N62430262   0.064   4.458   0.539  0.4632 -0.4195  0.3750
   30MOL   C62530263   7.945   4.389   0.466  0.0176 -0.1171 -0.7011
   30MOL   C62630264   7.911   4.432   0.337  0.1603  0.3121  0.6070
   30MOL   C62730265   7.816   4.353   0.271  0.1710  0.0384 -0.0163
   30MOL   C62830266   7.745   4.247   0.337  0.5723 -0.9337  0.2185
   30MOL   N62930267   7.648   4.179   0.267  0.3564  0.2365 -0.5205
   30MOL   C63030268   7.552   4.088   0.326 -0.1067 -0.2200 -0.2689
   30MOL   C63130269   7.498   4.105   0.453  0.3703 -0.1573  0.0455
   30MOL   C63230270   7.406   4.015   0.499 -0.1687 -0.8558  0.4110
   30MOL   C63330271   7.363   3.906   0.420  0.8489  0.5588 -0.0976
   30MOL   C63430272   7.277   3.797   0.478  0.7149  0.5206  0.3203
   30MOL   C63530273   7.416   3.888   0.291  0.4617  0.4325 -0.4888
   30MOL   C63630274   7.510   3.980   0.242  0.2720  0.0455 -0.8573
   30MOL   C63730275   7.783   4.213   0.464 -0.0266  0.1335  0.0368
   30MOL   C63830276   7.889   4.276   0.521 -0.4929  0.3015  1.0207
   30MOL   C63930277   0.168   4.648   0.455  0.1664  0.0029  0.5723
   30MOL   C64030278   0.177   4.793   0.450  0.1918  0.5148  0.3740
   30MOL   C64130279   0.362   5.047   0.499 -0.0665  0.1121 -0.5274
   30MOL   C64230280   0.463   5.134   0.462  0.3133 -0.4396  0.5780
   30MOL   H64330281   0.524   5.465   0.465  1.4803 -0.2795  3.1141
   30MOL   H64430282   0.296   5.431   0.478 -0.1296  0.1743 -1.4614
   30MOL   H64530283   0.101   5.267   0.532 -1.3918 -2.7814  2.2208
   30MOL   H64630284   0.052   5.080   0.584  1.7379  4.2371 -0.6474
   30MOL   H64730285   7.918   4.879   0.665 -0.2575  0.5796 -0.6295
   30MOL   H64830286   7.894   4.631   0.669 -0.6873  0.2652 -1.2584
   30MOL   H64930287   0.065   4.433   0.637  1.5406  2.0430  1.0427
   30MOL   H65030288   7.959   4.512   0.282  2.0588 -0.3253  1.3188
   30MOL   H65130289   7.780   4.371   0.171 -0.7222  0.7651  0.4289
   30MOL   H65230290   7.657   4.178   0.166  0.1358 -0.0069 -0.5402
   30MOL   H65330291   7.533   4.188   0.514 -0.8226  1.3005 -1.2154
   30MOL   H65430292   7.375   4.014   0.603 -1.3726  0.3338  0.0747
   30MOL   H65530293   7.234   3.823   0.575  1.1626 -0.3481  0.7553
   30MOL   H65630294   7.337   3.709   0.500 -2.8648 -1.6909  1.6602
   30MOL   H65730295   7.392   3.799   0.234 -2.6208 -0.2363  1.7308
   30MOL   H65830296   7.539   3.952   0.142 -0.8326 -1.0210 -0.8884
   30MOL   H65930297   7.736   4.132   0.519 -1.2871 -1.8354 -3.7370
   30MOL   H66030298   7.941   4.238   0.608 -1.2458  1.6696  2.1004
   30MOL   H66130299   0.228   4.582   0.395 -1.7202 -0.9446 -0.3120
   30MOL   H66230300   0.255   4.841   0.393 -0.2940 -0.5611 -1.2039
   30MOL   H66330301   0.382   4.942   0.513  3.1546  0.9739  2.2940
   30MOL   H66430302   0.561   5.097   0.437  0.2891 -0.2372  0.1830
   30MOL   N66530303   7.181   3.749   0.381 -0.0605 -0.0707  0.2680
   30MOL   C66630304   7.045   3.732   0.424  0.5327 -0.0715 -0.0508
   30MOL   C66730305   6.941   3.725   0.322 -0.9769  0.6108 -0.3119
   30MOL   C66830306   6.809   3.691   0.359 -0.3720  0.1314 -0.2500
   30MOL   C66930307   6.774   3.675   0.495  0.2853 -0.2039  0.6307
   30MOL   N67030308   6.648   3.633   0.547  0.2893  0.4376 -0.3436
   30MOL   C67130309   6.558   3.533   0.509  0.4497  0.6191  0.2644
   30MOL   C67230310   6.534   3.487   0.372 -0.9811  0.2837  0.0421
   30MOL   C67330311   6.433   3.388   0.345 -0.7745 -0.0852  0.0884
   30MOL   C67430312   6.358   3.339   0.453 -1.1900  0.1682 -0.2589
   30MOL   N67530313   6.264   3.238   0.423 -0.4304  1.1785 -0.2830
   30MOL   C67630314   6.142   3.225   0.479  0.1754 -0.0744 -0.1410
   30MOL   C67730315   6.069   3.336   0.522  0.1397 -0.3444  0.1754
   30MOL   C67830316   5.939   3.324   0.574  1.1553 -0.0001 -0.1041
   30MOL   C67930317   5.867   3.204   0.569 -0.2105  0.5677 -0.3159
   30MOL   N68030318   5.738   3.198   0.613 -0.0032 -0.4253  0.9094
   30MOL   C68130319   5.696   3.102   0.698 -0.0168  0.0929 -0.2731
   30MOL   C68230320   5.718   3.123   0.837 -0.3556  0.3533  0.8930
   30MOL   C68330321   5.685   3.011   0.923  0.4265 -0.1011  0.2039
   30MOL   C68430322   5.627   2.899   0.872  0.1452  1.1028  0.1561
   30MOL   C68530323   5.582   2.795   0.970 -0.2140  0.5812  0.2456
   30MOL   C68630324   5.597   2.888   0.734  0.4454  0.1466 -0.1977
   30MOL   C68730325   5.618   2.996   0.648 -0.0015  0.3536  0.6116
   30MOL   C68830326   5.932   3.088   0.520  0.5606  0.0880  1.0893
   30MOL   C68930327   6.066   3.104   0.470 -0.4813 -0.3383  1.0890
   30MOL   C69030328   6.383   3.385   0.585  0.3069 -0.4197 -0.3494
   30MOL   C69130329   6.479   3.483   0.613 -0.5878 -0.2245  0.0775
   30MOL   C69230330   6.877   3.694   0.597 -0.1599 -0.3668 -0.1572
   30MOL   C69330331   7.011   3.710   0.562  0.3668  0.4340 -0.2159
   30MOL   H69430332   7.215   3.755   0.286  2.5644 -0.7228  1.1149
   30MOL   H69530333   6.972   3.735   0.218 -0.3834 -0.9421 -0.3060
   30MOL   H69630334   6.731   3.685   0.284  1.1398 -2.1341 -1.6942
   30MOL   H69730335   6.628   3.668   0.639 -2.2894  0.6575 -0.9333
   30MOL   H69830336   6.593   3.531   0.293  0.5151 -0.0614  0.9484
   30MOL   H69930337   6.416   3.363   0.241 -0.0292 -0.3353  0.0252
   30MOL   H70030338   6.290   3.160   0.366 -0.0775  1.8650 -1.0760
   30MOL   H70130339   6.122   3.429   0.516  0.9454 -0.8191 -0.0924
   30MOL   H70230340   5.896   3.417   0.608  0.4851 -0.3949  0.1567
   30MOL   H70330341   5.700   3.291   0.623 -2.3280 -1.2205 -0.1649
   30MOL   H70430342   5.778   3.205   0.874  1.7456 -0.3091 -0.9773
   30MOL   H70530343   5.702   3.008   1.029 -1.5917 -0.5841  0.5485
   30MOL   H70630344   5.502   2.731   0.931 -0.0564 -1.5180  3.1618
   30MOL   H70730345   5.530   2.847   1.050  2.3631  1.6559  1.2713
   30MOL   H70830346   5.548   2.799   0.699 -1.5816  2.4675 -3.6026
   30MOL   H70930347   5.604   2.991   0.541  0.0318  2.3052  0.4948
   30MOL   H71030348   5.889   2.989   0.513  3.1379 -0.9824 -0.0515
   30MOL   H71130349   6.102   3.012   0.425 -2.6985 -1.8888  2.3451
   30MOL   H71230350   6.317   3.345   0.661  0.0311  0.8557  0.0902
   30MOL   H71330351   6.493   3.523   0.713 -0.1806  0.6585 -0.3317
   30MOL   H71430352   6.857   3.687   0.703 -1.9968 -1.4118 -0.5471
   30MOL   H71530353   7.081   3.713   0.643  1.6842  0.1131 -1.3369
   30MOL   N71630354   5.699   2.719   1.026 -0.2119  0.0047 -0.6439
   30MOL   C71730355   5.674   2.613   1.112  0.5399  0.2344  0.3993
   30MOL   C71830356   5.783   2.522   1.145 -0.4793  0.2352  0.9613
   30MOL   C71930357   5.763   2.409   1.218 -0.9578 -0.5238 -0.4040
   30MOL   C72030358   5.638   2.371   1.259  0.5373  0.7158 -0.3087
   30MOL   N72130359   5.615   2.248   1.328  0.1017 -0.5999  0.2325
   30MOL   C72230360   5.680   2.199   1.443  0.1672  0.1106  0.1010
   30MOL   C72330361   5.743   2.283   1.537  0.4731 -0.1519 -0.2426
   30MOL   C72430362   5.783   2.229   1.657 -0.0190 -0.2330  0.0433
   30MOL   C72530363   5.768   2.095   1.688  0.2288 -0.9659 -0.3979
   30MOL   N72630364   5.801   2.039   1.816 -0.1722 -0.2404 -0.1760
   30MOL   C72730365   5.910   2.072   1.895  0.2410 -0.3762  0.0579
   30MOL   C72830366   6.016   2.155   1.854  0.1904 -0.6193  0.0711
   30MOL   C72930367   6.111   2.205   1.942  0.3159 -0.0083 -0.2538
   30MOL   C73030368   6.098   2.171   2.083 -0.2189 -0.1025 -0.0909
   30MOL   N73130369   6.188   2.230   2.175 -0.2308 -0.2933  0.1959
   30MOL   C73230370   6.161   2.283   2.299  0.1690 -0.1977 -0.5797
   30MOL   C73330371   6.025   2.293   2.342 -0.0293 -0.1063  0.4143
   30MOL   C73430372   6.003   2.355   2.462 -0.4058 -0.1762  0.1125
   30MOL   C73530373   6.111   2.405   2.539 -0.2411  0.7564  0.5370
   30MOL   C73630374   6.086   2.489   2.662  0.7230  0.5240 -0.4742
   30MOL   C73730375   6.241   2.363   2.514 -0.3292  0.6087  0.7570
   30MOL   C73830376   6.268   2.303   2.387 -0.1383  0.1799  0.4717
   30MOL   C73930377   5.998   2.075   2.125  0.5553  0.1113  0.2013
   30MOL   C74030378   5.904   2.033   2.030  0.0103  0.2167  0.1297
   30MOL   C74130379   5.697   2.011   1.603 -0.5777  1.1601  0.5487
   30MOL   C74230380   5.664   2.059   1.476 -0.1760 -0.4703  0.2838
   30MOL   C74330381   5.525   2.452   1.217 -0.3264 -0.6472  0.3183
   30MOL   C74430382   5.544   2.574   1.150 -0.8548 -0.0306 -0.4279
   30MOL   H74530383   5.786   2.721   0.974 -0.2751 -0.9784 -0.7877
   30MOL   H74630384   5.884   2.541   1.110 -0.5047  0.7018  1.1347
   30MOL   H74730385   5.847   2.353   1.257  0.1502  0.6641 -1.0283
   30MOL   H74830386   5.542   2.193   1.285 -0.2978 -1.3764  1.8712
   30MOL   H74930387   5.748   2.390   1.525 -1.2606 -0.2257 -2.0108
   30MOL   H75030388   5.823   2.297   1.731 -0.6525 -0.0879  0.2598
   30MOL   H75130389   5.762   1.949   1.840 -1.6449 -0.0781 -1.8913
   30MOL   H75230390   6.028   2.168   1.748  0.5980 -2.2418 -0.0978
   30MOL   H75330391   6.184   2.274   1.905  1.7050 -0.9121  0.7527
   30MOL   H75430392   6.268   2.273   2.131 -1.0293 -0.0800 -1.0775
   30MOL   H75530393   5.942   2.276   2.276  0.3892  0.4449 -0.2557
   30MOL   H75630394   5.906   2.385   2.500  0.2521  0.8437  1.0201
   30MOL   H75730395   6.175   2.551   2.665 -1.2036  3.3667  2.4337
   30MOL   H75830396   6.074   2.417   2.743 -0.7047  0.9606 -0.2670
   30MOL   H75930397   6.319   2.398   2.579 -0.1996 -1.4485  1.7473
   30MOL   H76030398   6.367   2.288   2.347  0.3163 -0.1373  1.6833
   30MOL   H76130399   5.974   2.053   2.228 -1.6508  0.9623 -0.1235
   30MOL   H76230400   5.827   1.967   2.068 -0.9395  0.9000 -0.5911
   30MOL   H76330401   5.681   1.905   1.617 -2.1131  1.2616 -0.2997
   30MOL   H76430402   5.609   1.995   1.409  0.9363 -0.4051 -0.7145
   30MOL   H76530403   5.431   2.410   1.251 -0.1717 -1.4624 -0.2523
   30MOL   H76630404   5.458   2.635   1.124 -0.5068  0.7716  0.2731
   30MOL   N76730405   5.974   2.583   2.649  0.5285 -0.4175  0.1889
   30MOL   C76830406   5.949   2.658   2.770  0.9480 -0.5927 -0.5696
   30MOL   C76930407   5.925   2.582   2.883  0.1415 -0.3131  0.2224
   30MOL   C77030408   5.881   2.646   3.003  0.0346 -0.1768  0.4374
   30MOL   C77130409   5.874   2.783   3.004  0.4268  0.2530 -0.7762
   30MOL   N77230410   5.825   2.851   3.115  0.1363 -0.0289  0.0011
   30MOL   C77330411   5.744   2.802   3.219 -0.2401  0.3791  0.1190
   30MOL   C77430412   5.739   2.881   3.335  0.2231 -0.1005  0.0428
   30MOL   C77530413   5.664   2.842   3.451 -0.7587 -0.2381  0.2558
   30MOL   C77630414   5.595   2.723   3.445 -0.2216  0.2836  0.1478
   30MOL   N77730415   5.523   2.682   3.559 -0.1567  0.8173  0.1437
   30MOL   C77830416   5.499   2.549   3.594 -0.5867 -0.7188  0.5579
   30MOL   C77930417   5.566   2.501   3.704  0.0318  0.1400 -0.5884
   30MOL   C78030418   5.537   2.376   3.753 -0.7504  0.2575 -0.0462
   30MOL   C78130419   5.452   2.284   3.679  1.0090 -0.0872  0.0239
   30MOL   N78230420   5.431   2.155   3.721 -0.0433 -0.4419  0.0264
   30MOL   C78330421   5.425   2.040   3.637  0.0399 -0.6097  0.4935
   30MOL   C78430422   5.326   1.948   3.661 -0.1558  1.2548 -0.3304
   30MOL   C78530423   5.326   1.827   3.590 -0.1657  0.6182  0.3327
   30MOL   C78630424   5.420   1.810   3.484  0.3583  0.2750  0.0154
   30MOL   C78730425   5.415   1.694   3.392 -0.1185  0.4687  0.0415
   30MOL   C78830426   5.517   1.908   3.458  0.4006  0.2095 -0.0407
   30MOL   C78930427   5.520   2.024   3.537 -0.1563  0.6805 -0.6072
   30MOL   C79030428   5.391   2.331   3.562 -0.5172  0.0196 -0.7887
   30MOL   C79130429   5.410   2.464   3.527 -0.4207 -0.4467 -0.0009
   30MOL   C79230430   5.591   2.648   3.325  0.5038  0.4830 -0.0471
   30MOL   C79330431   5.664   2.686   3.210  0.2393 -0.0973 -0.1705
   30MOL   C79430432   5.906   2.859   2.892  0.1101 -0.5375 -0.9320
   30MOL   C79530433   5.951   2.793   2.776  0.2505 -0.1390  1.1403
   30MOL   H79630434   5.957   2.627   2.559  2.7515  0.1789  0.0131
   30MOL   H79730435   5.915   2.475   2.883 -1.3301 -0.1845 -0.5900
   30MOL   H79830436   5.862   2.578   3.084  0.7704 -0.1456  0.6456
   30MOL   H79930437   5.857   2.946   3.126  0.6666 -0.5061  2.8011
   30MOL   H80030438   5.794   2.973   3.334 -0.9483  0.6052 -2.1176
   30MOL   H80130439   5.685   2.899   3.541 -0.5519 -0.5729  0.4195
   30MOL   H80230440   5.558   2.729   3.641  2.8819 -1.9201  0.4989
   30MOL   H80330441   5.610   2.581   3.761 -0.2556  0.3034 -0.5904
   30MOL   H80430442   5.597   2.346   3.838 -0.7471  2.7201  0.8755
   30MOL   H80530443   5.397   2.143   3.815  0.2205 -0.9070  0.0650
   30MOL   H80630444   5.249   1.952   3.736 -1.1330  1.8583 -1.3478
   30MOL   H80730445   5.261   1.745   3.616 -0.6494  0.2577 -1.8997
   30MOL   H80830446   5.455   1.713   3.292  2.6703  0.9553  1.2362
   30MOL   H80930447   5.309   1.674   3.372  0.1733 -1.4654  0.3256
   30MOL   H81030448   5.582   1.897   3.373  0.7742 -2.0154  0.5042
   30MOL   H81130449   5.588   2.107   3.525 -0.9733  1.6412  1.1021
   30MOL   H81230450   5.327   2.268   3.503  0.1377  0.0122 -1.4999
   30MOL   H81330451   5.355   2.499   3.441 -0.5677  0.7332  0.5594
   30MOL   H81430452   5.530   2.559   3.320  0.0379  0.7828  0.2306
   30MOL   H81530453   5.658   2.614   3.129  1.0501  0.0184 -0.3413
   30MOL   H81630454   5.887   2.965   2.896  0.2975 -0.4978 -1.1405
   30MOL   H81730455   5.970   2.855   2.689  0.5549  0.3962  1.5858
   30MOL   N81830456   5.463   1.572   3.450  0.0878 -0.3291 -0.1173
   30MOL   C81930457   5.425   1.443   3.401  0.4431 -0.2409 -0.5685
   30MOL   C82030458   5.384   1.423   3.269  0.3177 -0.3022 -0.2933
   30MOL   C82130459   5.360   1.294   3.216  0.4184 -0.4788 -0.1049
   30MOL   C82230460   5.379   1.178   3.295 -0.4930  0.3962  0.0456
   30MOL   N82330461   5.387   1.051   3.233 -0.4068 -0.0931 -0.1339
   30MOL   C82430462   5.494   0.960   3.220 -0.0149 -0.8428 -0.9297
   30MOL   C82530463   5.597   0.945   3.310  0.7378 -0.5012  0.4017
   30MOL   C82630464   5.688   0.836   3.293  0.6348  0.0100 -0.1491
   30MOL   C82730465   5.689   0.759   3.176 -0.1426  0.3037  0.4462
   30MOL   N82830466   5.789   0.666   3.146  0.0417 -0.1698  0.4172
   30MOL   C82930467   5.865   0.579   3.227 -0.2724  0.3923 -0.6144
   30MOL   C83030468   5.813   0.542   3.348 -0.1286  0.1517  0.8045
   30MOL   C83130469   5.873   0.442   3.422 -0.0052 -0.0592 -0.2612
   30MOL   C83230470   5.990   0.384   3.376  0.0899  0.1261  0.0690
   30MOL   N83330471   6.060   0.297   3.451 -0.2259  0.7044  0.0670
   30MOL   C83430472   6.039   0.261   3.583 -0.5184  0.5341 -0.7057
   30MOL   C83530473   6.128   0.302   3.681  0.1803  0.2776 -0.6493
   30MOL   C83630474   6.108   0.262   3.815 -0.2498  0.2789 -0.4539
   30MOL   C83730475   5.998   0.180   3.850  0.0219  0.8397 -0.3181
   30MOL   C83830476   5.982   0.133   3.993 -0.3704  0.4676 -0.2484
   30MOL   C83930477   5.900   0.153   3.750 -0.4757  0.1844  0.5794
   30MOL   C84030478   5.919   0.190   3.621 -0.0546 -0.7063  0.1889
   30MOL   C84130479   6.039   0.417   3.245 -0.4275 -0.2003 -0.0393
   30MOL   C84230480   5.977   0.518   3.173 -0.0840  1.0969  0.0069
   30MOL   C84330481   5.579   0.774   3.085 -0.0222  0.1855  0.0307
   30MOL   C84430482   5.488   0.873   3.106 -0.3121 -0.5095  0.3625
   30MOL   C84530483   5.421   1.202   3.426  0.0599  0.9617  0.4935
   30MOL   C84630484   5.451   1.329   3.480 -0.2511 -0.0331  0.0924
   30MOL   H84730485   5.464   1.571   3.551 -0.0132  0.6886 -0.1017
   30MOL   H84830486   5.373   1.516   3.214  0.9894 -0.0454 -0.0002
   30MOL   H84930487   5.327   1.283   3.114  1.4234  0.3749 -0.5291
   30MOL   H85030488   5.305   1.010   3.191  0.7690 -0.8520 -1.7757
   30MOL   H85130489   5.611   1.012   3.394 -1.3451  0.1306  0.2722
   30MOL   H85230490   5.767   0.818   3.365  1.0994 -1.0971 -0.9102
   30MOL   H85330491   5.789   0.637   3.050  2.0137  0.4513  0.2106
   30MOL   H85430492   5.716   0.585   3.370  0.1871  0.0046  2.5017
   30MOL   H85530493   5.816   0.415   3.510 -0.3989  0.4339 -0.3617
   30MOL   H85630494   6.157   0.286   3.424 -0.5904 -2.6642 -0.1441
   30MOL   H85730495   6.216   0.363   3.665 -1.4270  2.2430 -2.1950
   30MOL   H85830496   6.182   0.301   3.883 -0.1009  2.1674 -1.6465
   30MOL   H85930497   6.013   0.209   4.065 -0.5406 -0.3989  0.7557
   30MOL   H86030498   6.031   0.036   4.003 -0.7984  0.2894  0.1564
   30MOL   H86130499   5.807   0.103   3.773  0.1741 -0.6106  1.5154
   30MOL   H86230500   5.845   0.173   3.544 -0.0459 -2.5766  0.5712
   30MOL   H86330501   6.105   0.346   3.198 -1.1495 -1.9397  1.5254
   30MOL   H86430502   6.009   0.539   3.073  0.8511 -1.6488 -0.3202
   30MOL   H86530503   5.568   0.716   2.995  0.0936 -0.4362  0.4126
   30MOL   H86630504   5.404   0.878   3.037 -0.0320 -3.2288 -0.2154
   30MOL   H86730505   5.440   1.119   3.493  0.5657  0.6185 -0.0699
   30MOL   H86830506   5.486   1.350   3.579  0.0584 -1.1532  0.2316
   30MOL   N86930507   5.841   0.107   4.028 -0.4168 -0.7071  0.4483
   30MOL   C87030508   5.748   0.200   4.064 -0.4568 -0.7717 -0.4120
   30MOL   C87130509   5.648   0.146   4.144  0.4856 -0.0521 -0.6460
   30MOL   C87230510   5.528   0.218   4.166 -0.0480 -0.4342 -0.8239
   30MOL   C87330511   5.515   0.356   4.113 -0.1691  0.9055  0.0046
   30MOL   N87430512   5.389   0.415   4.131  0.2393  0.1022  0.5732
   30MOL   C87530513   5.351   0.549   4.111 -0.8559 -0.0628 -0.5067
   30MOL   C87630514   5.222   0.575   4.054  0.3516 -1.1423  0.3905
   30MOL   C87730515   5.177   0.707   4.035 -0.1740 -0.1848 -0.6181
   30MOL   C87830516   5.258   0.812   4.085  0.1882  0.5154  0.5436
   30MOL   N87930517   5.216   0.947   4.077  0.2384  0.1198 -0.2771
   30MOL   C88030518   5.206   1.024   3.964  0.2464 -0.2463 -1.1188
   30MOL   C88130519   5.209   0.966   3.835  0.4878 -0.1317 -0.0818
   30MOL   C88230520   5.194   1.054   3.722 -0.1296  0.0315 -0.2167
   30MOL   C88330521   5.167   1.194   3.728  0.2504  0.4945  0.4947
   30MOL   N88430522   5.146   1.268   3.615 -0.0926 -0.1233  0.3946
   30MOL   C88530523   5.061   1.383   3.596 -0.4502  0.0688 -0.5801
   30MOL   C88630524   4.957   1.416   3.686 -0.2695  0.3047  0.0302
   30MOL   C88730525   4.879   1.532   3.669  0.5786 -0.6315  0.4749
   30MOL   C88830526   4.897   1.610   3.549 -0.9216 -0.0559 -0.3535
   30MOL   C88930527   4.817   1.737   3.533  1.1786  0.4592  0.2841
   30MOL   C89030528   4.995   1.567   3.453 -0.9183  0.4504 -0.0543
   30MOL   C89130529   5.071   1.448   3.473  0.0804 -0.3880  0.2427
   30MOL   C89230530   5.171   1.241   3.863 -0.2338 -0.2514 -0.1239
   30MOL   C89330531   5.184   1.162   3.981  0.3942 -0.2542  0.1307
   30MOL   C89430532   5.383   0.786   4.150 -0.5491 -0.4006  0.1321
   30MOL   C89530533   5.432   0.655   4.159 -0.8152 -0.1354 -0.7823
   30MOL   C89630534   5.624   0.416   4.048  0.0228 -0.2957  0.5247
   30MOL   C89730535   5.741   0.336   4.021  0.2985  0.2093  0.0890
   30MOL   H89830536   5.833   0.021   4.081 -0.0337 -0.2852  1.2010
   30MOL   H89930537   5.660   0.046   4.185  0.7706 -0.6090 -2.0653
   30MOL   H90030538   5.445   0.170   4.216 -0.4529  1.1610  0.0653
   30MOL   H90130539   5.311   0.353   4.145  0.4942 -0.1233  1.0073
   30MOL   H90230540   5.170   0.495   4.003 -1.0829  0.6867 -1.1211
   30MOL   H90330541   5.077   0.726   3.999 -0.2215 -1.0380 -0.9377
   30MOL   H90430542   5.241   0.993   4.163  2.0489 -0.6734 -0.3427
   30MOL   H90530543   5.235   0.861   3.827  1.3925 -0.0516  1.5842
   30MOL   H90630544   5.195   1.008   3.624 -0.8565 -2.2900  0.8279
   30MOL   H90730545   5.190   1.224   3.536  2.1455  1.2121  0.8286
   30MOL   H90830546   4.948   1.365   3.780 -0.4019  1.0907  0.4490
   30MOL   H90930547   4.803   1.565   3.739  1.0425 -2.0407  1.6663
   30MOL   H91030548   4.854   1.804   3.456 -1.8341  1.9205  0.0335
   30MOL   H91130549   4.826   1.798   3.624 -1.2283  0.2873  0.6805
   30MOL   H91230550   5.012   1.627   3.365  0.1802 -1.1830 -0.9829
   30MOL   H91330551   5.147   1.419   3.402  1.4508 -0.0432  1.5563
   30MOL   H91430552   5.147   1.346   3.874 -3.6900 -0.9430 -0.3981
   30MOL   H91530553   5.181   1.199   4.082 -1.7555 -0.5292  0.2057
   30MOL   H91630554   5.457   0.861   4.175 -0.1427 -0.8802  0.3908
   30MOL   H91730555   5.532   0.635   4.195  0.1043  1.3200 -2.4590
   30MOL   H91830556   5.623   0.519   4.016  0.6309 -0.7846 -1.1484
   30MOL   H91930557   5.822   0.375   3.960 -0.4892  0.5599 -0.7466
   30MOL   N92030558   4.676   1.708   3.519 -0.1309 -0.7495  0.1150
   30MOL   C92130559   4.631   1.705   3.389 -0.8853  0.3431  1.0331
   30MOL   C92230560   4.713   1.656   3.280 -0.3339 -0.3687 -0.4804
   30MOL   C92330561   4.656   1.648   3.153  0.1375  0.0586 -0.7711
   30MOL   C92430562   4.527   1.691   3.132  0.1580  0.4498 -0.0997
   30MOL   N92530563   4.473   1.669   3.007  0.1300  0.1081  0.0236
   30MOL   C92630564   4.508   1.728   2.883 -0.1838 -0.3289  0.4759
   30MOL   C92730565   4.452   1.686   2.763  0.1485  0.9822 -0.6042
   30MOL   C92830566   4.482   1.743   2.642  0.5863  0.0311 -0.7349
   30MOL   C92930567   4.571   1.853   2.639 -0.7436 -0.7115  0.5904
   30MOL   N93030568   4.602   1.918   2.516  0.8674 -0.1349 -0.0162
   30MOL   C93130569   4.556   1.908   2.386  0.6093  0.0444 -0.5281
   30MOL   C93230570   4.545   1.786   2.314  0.1898  0.0498  0.0845
   30MOL   C93330571   4.501   1.785   2.178 -0.2329 -0.5650  0.0788
   30MOL   C93430572   4.470   1.909   2.120 -0.5739 -0.8103  0.2015
   30MOL   N93530573   4.416   1.921   1.990 -0.0214 -0.3525 -0.1414
   30MOL   C93630574   4.400   1.825   1.891  0.3328 -0.2618 -1.2706
   30MOL   C93730575   4.273   1.827   1.826 -0.9504 -0.6700 -0.6826
   30MOL   C93830576   4.253   1.727   1.724  1.1959  0.1405  0.4073
   30MOL   C93930577   4.356   1.633   1.695  0.2280  0.1096 -0.6183
   30MOL   C94030578   4.324   1.515   1.602 -0.1499  0.0145  0.2603
   30MOL   C94130579   4.479   1.636   1.753 -0.1059 -0.0432  0.4171
   30MOL   C94230580   4.504   1.731   1.852 -0.2520  0.2962  0.8193
   30MOL   C94330581   4.485   2.026   2.190 -0.2542 -0.6590 -0.7512
   30MOL   C94430582   4.534   2.033   2.324  0.5522  0.1115 -0.3177
   30MOL   C94530583   4.622   1.906   2.751  0.1380  0.3127  0.1616
   30MOL   C94630584   4.592   1.845   2.878 -0.1967  0.6686  0.4490
   30MOL   C94730585   4.451   1.751   3.234 -0.3299  0.5481  0.5774
   30MOL   C94830586   4.502   1.759   3.364 -0.3206 -0.8728  0.4688
   30MOL   H94930587   4.621   1.753   3.590  0.3262 -3.0527  1.9925
   30MOL   H95030588   4.812   1.614   3.291 -0.7370 -0.8524  1.5302
   30MOL   H95130589   4.711   1.603   3.072 -0.6024 -0.0637 -1.2086
   30MOL   H95230590   4.408   1.592   3.010 -0.4065  0.5956  1.7989
   30MOL   H95330591   4.389   1.598   2.762 -0.7276  1.6205 -1.7702
   30MOL   H95430592   4.434   1.705   2.553 -3.6386  0.9168  1.0077
   30MOL   H95530593   4.625   2.013   2.541  1.6091 -0.1915 -0.4732
   30MOL   H95630594   4.562   1.693   2.366 -0.3651  0.7283  1.5191
   30MOL   H95730595   4.473   1.703   2.114 -1.4753 -0.4227  0.4200
   30MOL   H95830596   4.399   2.014   1.957 -0.7546 -0.9783 -1.5673
   30MOL   H95930597   4.196   1.898   1.853  1.3287  0.1361  4.4405
   30MOL   H96030598   4.163   1.739   1.666  0.3359  1.5258  2.0002
   30MOL   H96130599   4.410   1.471   1.553  0.1351  0.8456 -0.0019
   30MOL   H96230600   4.257   1.538   1.519  0.6329  0.4427 -0.2616
   30MOL   H96330601   4.554   1.563   1.727  1.1684  1.1812  0.5690
   30MOL   H96430602   4.603   1.728   1.896 -1.1093  1.7220  2.9329
   30MOL   H96530603   4.460   2.116   2.136  0.8522 -1.0386 -1.9251
   30MOL   H96630604   4.538   2.132   2.368 -0.3170  0.4934 -1.1006
   30MOL   H96730605   4.680   1.996   2.747 -1.2595  1.2763  1.2261
   30MOL   H96830606   4.636   1.884   2.969  0.2148  1.2829 -0.0085
   30MOL   H96930607   4.356   1.795   3.206  1.0781  1.5088 -2.9296
   30MOL   H97030608   4.445   1.808   3.441 -1.0358 -2.2786  0.8515
   30MOL   N97130609   4.256   1.414   1.688 -0.2695 -0.6265  0.0491
   30MOL   C97230610   4.237   1.282   1.644 -0.2921 -0.1368  0.5871
   30MOL   C97330611   4.248   1.167   1.733 -0.1593  0.2351 -0.4554
   30MOL   C97430612   4.227   1.037   1.686  0.4363  0.4799 -0.5852
   30MOL   C97530613   4.198   1.005   1.551 -0.0591 -0.4995  0.8146
   30MOL   N97630614   4.168   0.879   1.496 -0.1188 -0.1641  0.1784
   30MOL   C97730615   4.219   0.756   1.536  0.2455  0.5565  0.9783
   30MOL   C97830616   4.331   0.739   1.623  0.6411  0.3946 -1.1054
   30MOL   C97930617   4.381   0.611   1.652 -0.5270 -0.1392 -0.1952
   30MOL   C98030618   4.329   0.493   1.594 -0.7120  0.1830  0.6583
   30MOL   N98130619   4.380   0.367   1.626  0.4750 -0.4536 -0.4900
   30MOL   C98230620   4.458   0.336   1.738  0.0760 -0.0528  0.3695
   30MOL   C98330621   4.456   0.404   1.865  0.1582 -0.1671 -0.5390
   30MOL   C98430622   4.544   0.374   1.969 -0.6969  0.0714 -0.3500
   30MOL   C98530623   4.646   0.280   1.946  0.1924 -0.6108 -0.9530
   30MOL   N98630624   4.735   0.256   2.051 -0.5000  0.3792  0.0627
   30MOL   C98730625   4.881   0.244   2.033  0.3269 -0.4493 -0.1725
   30MOL   C98830626   4.963   0.211   2.140  0.1277  0.1337  0.2106
   30MOL   C98930627   5.098   0.175   2.122  0.3343  0.0944 -0.1801
   30MOL   C99030628   5.161   0.195   1.998  0.6971  0.1223  0.7570
   30MOL   C99130629   5.305   0.159   1.991  0.0782  0.9318 -0.0372
   30MOL   C99230630   5.086   0.245   1.887  0.4821 -0.5869 -0.2959
   30MOL   C99330631   4.946   0.264   1.907  0.3232  0.6790  0.3791
   30MOL   C99430632   4.647   0.206   1.826  0.3095  0.7531 -0.7445
   30MOL   C99530633   4.544   0.220   1.729 -0.8781 -0.5590  0.7082
   30MOL   C99630634   4.214   0.510   1.507 -0.4182  0.6356 -0.7436
   30MOL   C99730635   4.168   0.641   1.470 -0.5822  0.1649 -0.4160
   30MOL   C99830636   4.191   1.122   1.467  0.4587  0.2346  0.1265
   30MOL   C99930637   4.213   1.254   1.511  0.1199 -0.0554  0.0659
   30MOL     H130638   4.210   1.438   1.775  2.8458  0.7995  1.3432
   30MOL     H230639   4.247   1.189   1.839  0.4458  1.1780 -0.6363
   30MOL     H330640   4.226   0.959   1.761  0.6449  0.0976 -0.9825
   30MOL     H430641   4.124   0.882   1.405  0.7131  0.5401 -0.2051
   30MOL     H530642   4.386   0.818   1.671 -0.2278 -1.6204  3.4280
   30MOL     H630643   4.477   0.605   1.701 -0.0310  1.4969 -0.9325
   30MOL     H730644   4.350   0.294   1.563 -0.8163 -0.6158  0.2867
   30MOL     H830645   4.378   0.477   1.884  4.1808  3.4347  3.3745
   30MOL     H930646   4.532   0.421   2.065 -0.7629  0.9414 -0.7746
   30MOL    H1030647   4.720   0.298   2.141  2.0374 -1.6105  1.5135
   30MOL    H1130648   4.916   0.210   2.238 -1.5331  3.3624 -0.5117
   30MOL    H1230649   5.162   0.155   2.207  2.7103  5.4645 -0.4737
   30MOL    H1330650   5.313   0.057   2.030 -0.9466  0.7560 -0.2937
   30MOL    H1430651   5.370   0.226   2.048 -0.9112  0.5036  1.6298
   30MOL    H1530652   5.133   0.274   1.794 -0.3176  1.6401 -0.0467
   30MOL    H1630653   4.886   0.286   1.819 -0.7454  1.4866  1.2969
   30MOL    H1730654   4.717   0.126   1.808  0.8068  0.7012  1.2916
   30MOL    H1830655   4.567   0.158   1.644  1.9720 -0.2460  1.2187
   30MOL    H1930656   4.183   0.422   1.453  0.2491 -0.7379  1.0342
   30MOL    H2030657   4.076   0.643   1.413 -0.9180 -1.2876  0.0359
   30MOL    H2130658   4.165   1.109   1.363 -1.2188  0.5689  0.4897
   30MOL    H2230659   4.200   1.336   1.442 -2.7532  0.7809  1.5292
   30MOL    H2330660   5.342   0.156   1.889 -2.0561  1.4132 -0.8444
   31MOL     N130661   7.743   2.830   5.767 -0.1991  0.7416 -0.4087
   31MOL     C230662   7.809   2.947   5.764 -0.4951  1.3016  0.0516
   31MOL     C330663   7.824   3.030   5.655  0.9358 -0.0810  0.1371
   31MOL     C430664   7.893   3.151   5.661  0.3522 -0.6699 -0.0211
   31MOL     C530665   7.941   3.202   5.780 -0.1808 -1.1339  0.2058
   31MOL     N630666   7.979   3.332   5.789 -0.1120 -0.3610 -0.2346
   31MOL     C730667   0.075   3.403   5.885 -0.0776 -0.3330  0.8853
   31MOL     C830668   0.081   3.542   5.875  0.2001  0.3098 -0.3488
   31MOL     C930669   0.159   3.614   5.970  0.0119 -0.5583 -0.0413
   31MOL    C1030670   0.227   3.549   6.072  0.0760 -0.3030 -0.1287
   31MOL    N1130671   0.315   3.621   6.157  0.2009  0.2508 -0.4830
   31MOL    C1230672   0.455   3.639   6.146  0.4460 -0.2345 -0.2265
   31MOL    C1330673   0.528   3.584   6.041  0.1857  0.5553 -0.3282
   31MOL    C1430674   0.665   3.588   6.040 -1.0003  0.2390  0.5773
   31MOL    C1530675   0.736   3.648   6.146 -0.5909  0.9297 -0.9726
   31MOL    N1630676   0.877   3.639   6.147  0.2732  0.2413 -0.5951
   31MOL    C1730677   0.966   3.693   6.238  0.2817  0.6091 -0.5690
   31MOL    C1830678   0.957   3.835   6.277  1.2717 -0.0609 -0.1820
   31MOL    C1930679   1.053   3.889   6.368 -0.4035 -0.6552  0.6169
   31MOL    C2030680   1.155   3.806   6.419  0.4606  0.4048  0.3002
   31MOL    C2130681   1.228   3.854   6.542  0.0051  0.0406 -0.4020
   31MOL    C2230682   1.175   3.673   6.371  0.6168  0.6519  0.6628
   31MOL    C2330683   1.073   3.620   6.288  0.2662  0.7880  0.6213
   31MOL    C2430684   0.667   3.704   6.250 -0.6664 -0.6599  0.2043
   31MOL    C2530685   0.527   3.701   6.252 -0.3349 -0.4331  0.6158
   31MOL    C2630686   0.230   3.412   6.071  0.2858 -0.2503  0.0176
   31MOL    C2730687   0.162   3.335   5.981 -1.0557 -0.9551  0.7214
   31MOL    C2830688   7.929   3.123   5.897  0.3992 -0.5400  0.1295
   31MOL    C2930689   7.873   2.996   5.883  0.0992 -0.1251 -0.5932
   31MOL    H3030690   7.706   2.790   5.682  0.7021 -2.1332  0.5137
   31MOL    H3130691   7.777   3.008   5.560 -0.1666  1.8317  0.2353
   31MOL    H3230692   7.902   3.200   5.565 -0.3144  2.7203  1.5571
   31MOL    H3330693   7.946   3.381   5.707 -0.5840 -1.5145 -0.7551
   31MOL    H3430694   0.012   3.595   5.810 -0.2737 -2.9608 -2.6478
   31MOL    H3530695   0.155   3.721   5.957 -3.6170 -0.6358 -0.0960
   31MOL    H3630696   0.277   3.699   6.209 -0.0647 -0.4408  0.3686
   31MOL    H3730697   0.474   3.552   5.953 -2.1632  1.9930  0.5372
   31MOL    H3830698   0.719   3.529   5.967 -0.8789 -0.3225  1.1103
   31MOL    H3930699   0.912   3.584   6.070 -0.6202 -0.0954 -0.7769
   31MOL    H4030700   0.877   3.892   6.233  2.3776  1.8665  0.2297
   31MOL    H4130701   1.045   3.989   6.406  0.9766 -0.2711 -0.0893
   31MOL    H4230702   1.204   3.960   6.543 -2.9076 -0.5657  0.1318
   31MOL    H4330703   1.333   3.825   6.545 -0.1947 -0.7966 -1.0421
   31MOL    H4430704   1.246   3.604   6.412  2.0992  1.3417 -0.7179
   31MOL    H4530705   1.078   3.515   6.266 -0.2215  0.3686  2.3966
   31MOL    H4630706   0.709   3.742   6.342 -1.2215  2.4670 -0.7849
   31MOL    H4730707   0.472   3.742   6.335 -0.4741  1.8429 -0.5879
   31MOL    H4830708   0.284   3.363   6.151 -0.4636 -0.3623  0.4573
   31MOL    H4930709   0.178   3.228   5.981 -1.3509 -1.0298  2.7979
   31MOL    H5030710   7.940   3.176   5.990 -0.0552  0.3563 -0.3262
   31MOL    H5130711   7.858   2.936   5.972  0.3548  2.2895  1.1031
   31MOL    H5230712   7.770   2.762   5.836 -2.0219  0.1852 -0.2232
   31MOL    N5330713   1.160   3.793   6.654 -0.2407 -0.6251  0.0990
   31MOL    C5430714   1.187   3.838   6.786 -0.3230  0.5592 -0.3543
   31MOL    C5530715   1.162   3.750   6.894  0.0141  0.0318 -0.3753
   31MOL    C5630716   1.193   3.791   7.028 -0.7482 -0.1639  0.1696
   31MOL    C5730717   1.244   3.917   7.050  0.5161  0.3961  0.9482
   31MOL    N5830718   1.258   3.965   7.180  0.2205  0.0878  0.0933
   31MOL    C5930719   1.367   3.941   7.264  0.3196 -0.5132 -0.8499
   31MOL    C6030720   1.493   3.917   7.213  0.0887  0.4859 -0.2991
   31MOL    C6130721   1.602   3.894   7.299  0.6667 -0.1981  0.2954
   31MOL    C6230722   1.589   3.895   7.442  0.1834  0.6758 -0.4812
   31MOL    N6330723   1.698   3.856   7.520 -0.0495  0.4454  0.0396
   31MOL    C6430724   1.802   3.788   7.475 -0.2225  0.6564 -0.1789
   31MOL    C6530725   1.789   3.674   7.389  0.2665  0.0879  0.3614
   31MOL    C6630726   1.911   3.610   7.346 -0.0416  0.0047 -0.0867
   31MOL    C6730727   2.037   3.666   7.375  0.4661  0.1836 -0.7283
   31MOL    N6830728   2.150   3.632   7.302  0.1395  0.5326 -0.6249
   31MOL    C6930729   2.169   3.663   7.169 -0.8466  0.2159 -0.2684
   31MOL    C7030730   2.305   3.681   7.122  0.2064  0.1296  0.1533
   31MOL    C7130731   2.334   3.743   6.996 -0.0450 -0.4140 -0.6016
   31MOL    C7230732   2.228   3.787   6.913  0.7020 -0.2034 -0.2582
   31MOL    C7330733   2.256   3.862   6.782  0.2742 -0.0292 -0.2306
   31MOL    C7430734   2.097   3.764   6.957 -0.0512 -1.3341 -0.1950
   31MOL    C7530735   2.066   3.716   7.084  0.1712  0.1580  0.2389
   31MOL    C7630736   2.042   3.770   7.469  0.5335 -0.1540  0.1641
   31MOL    C7730737   1.927   3.824   7.526  0.2102 -0.4357  0.3433
   31MOL    C7830738   1.460   3.923   7.490 -0.5092  0.0568 -0.4440
   31MOL    C7930739   1.351   3.946   7.405  0.3404 -0.7938  0.7617
   31MOL    C8030740   1.276   4.002   6.939 -0.0377  0.1402 -0.1744
   31MOL    C8130741   1.248   3.963   6.809  0.3268  0.3355 -0.0377
   31MOL    H8230742   1.099   3.715   6.635 -0.9746 -0.5799  2.1957
   31MOL    H8330743   1.113   3.656   6.874  0.0751 -0.1257  0.2085
   31MOL    H8430744   1.171   3.733   7.116 -0.5942 -0.7649 -0.1902
   31MOL    H8530745   1.188   4.032   7.210 -1.7774 -0.5132 -3.0694
   31MOL    H8630746   1.504   3.927   7.106 -1.7675 -0.6439 -0.5930
   31MOL    H8730747   1.697   3.879   7.250  0.5455 -0.9554  0.2944
   31MOL    H8830748   1.685   3.862   7.620 -0.3791  1.5084 -0.0544
   31MOL    H8930749   1.695   3.637   7.351  0.6253 -0.0342 -0.4273
   31MOL    H9030750   1.913   3.522   7.283  3.2008  0.2462 -0.4244
   31MOL    H9130751   2.232   3.640   7.360  0.0172  2.6695 -0.6858
   31MOL    H9230752   2.375   3.657   7.201 -0.0984  0.8688  0.6523
   31MOL    H9330753   2.435   3.761   6.962 -0.4450 -0.6775 -1.9470
   31MOL    H9430754   2.194   3.951   6.772  1.2835  1.0097  2.2990
   31MOL    H9530755   2.218   3.799   6.702 -0.0351  0.7802 -0.7283
   31MOL    H9630756   2.018   3.812   6.900  0.7567  0.9452  0.5248
   31MOL    H9730757   1.965   3.723   7.121 -0.2685 -1.6344 -0.5591
   31MOL    H9830758   2.135   3.816   7.499  0.6659 -1.0166  1.0747
   31MOL    H9930759   1.930   3.909   7.593  2.3746  0.0225 -0.3039
   31MOL   H10030760   1.445   3.904   7.596 -1.1492  0.0025 -0.5445
   31MOL   H10130761   1.253   3.955   7.448 -0.0617 -0.6329 -0.1752
   31MOL   H10230762   1.322   4.098   6.960 -0.7390  0.4701 -0.1288
   31MOL   H10330763   1.274   4.035   6.732 -1.1046 -0.4700 -1.3047
   31MOL   N10430764   2.391   3.908   6.757  0.4832 -0.4199 -0.8155
   31MOL   C10530765   2.406   3.957   6.630  0.6928 -0.2576 -0.4758
   31MOL   C10630766   2.375   3.881   6.513 -0.4393 -0.5560  0.1088
   31MOL   C10730767   2.365   3.952   6.388 -0.0150 -0.4312 -0.4642
   31MOL   C10830768   2.401   4.089   6.378 -0.2583 -0.0747  0.7812
   31MOL   N10930769   2.377   4.145   6.254  0.0329  0.7237 -0.0138
   31MOL   C11030770   2.318   4.267   6.235  0.4844  0.0066 -0.0317
   31MOL   C11130771   2.234   4.334   6.329 -0.4742  0.4392  0.0359
   31MOL   C11230772   2.188   4.462   6.302  0.0760 -0.4384 -0.3276
   31MOL   C11330773   2.214   4.519   6.176 -0.1120 -0.0233  0.3838
   31MOL   N11430774   2.149   4.644   6.160 -0.2364 -0.3187  0.6331
   31MOL   C11530775   2.145   4.743   6.053 -0.0817 -0.3974  0.4617
   31MOL   C11630776   2.244   4.753   5.958 -0.6991  0.0143  0.3228
   31MOL   C11730777   2.236   4.850   5.856  0.6582  0.7105 -0.1011
   31MOL   C11830778   2.124   4.934   5.849 -1.0020  0.3406 -0.2666
   31MOL   N11930779   2.117   5.031   5.748 -0.5642  0.0301 -0.2423
   31MOL   C12030780   2.208   5.043   5.637  0.4596  0.4836 -0.3389
   31MOL   C12130781   2.300   5.148   5.632  0.0717  0.5005  0.9313
   31MOL   C12230782   2.395   5.143   5.529  0.4619  0.1103 -0.4415
   31MOL   C12330783   2.418   5.037   5.444 -0.5437  0.1552 -0.4143
   31MOL   C12430784   2.515   5.054   5.330 -0.5922  0.7127  0.1624
   31MOL   C12530785   2.326   4.927   5.454  0.6294  0.0157 -0.5910
   31MOL   C12630786   2.217   4.932   5.549  0.0378  0.2064  0.7616
   31MOL   C12730787   2.022   4.928   5.948  0.0305  0.3723  1.0281
   31MOL   C12830788   2.032   4.828   6.051  0.1981  0.2033  0.3014
   31MOL   C12930789   2.287   4.454   6.079  0.2089 -0.1165 -0.6769
   31MOL   C13030790   2.344   4.326   6.111 -0.1274  0.2052 -0.7560
   31MOL   C13130791   2.456   4.156   6.487  0.0104 -0.7383 -1.0415
   31MOL   C13230792   2.453   4.092   6.616  0.2470  0.0699  0.0145
   31MOL   H13330793   2.422   3.966   6.833  0.7878 -1.7896  0.1285
   31MOL   H13430794   2.350   3.775   6.513 -0.0026 -0.6588 -0.5860
   31MOL   H13530795   2.325   3.899   6.303 -1.6069  0.7122 -0.4541
   31MOL   H13630796   2.424   4.108   6.172 -0.3800  1.7835 -0.7489
   31MOL   H13730797   2.224   4.289   6.426  1.2391  0.0511  0.0518
   31MOL   H13830798   2.130   4.521   6.371  1.1091  1.8650 -1.3823
   31MOL   H13930799   2.084   4.653   6.236  0.5077  0.5076  1.1858
   31MOL   H14030800   2.336   4.697   5.958 -0.2686  0.6897  1.9322
   31MOL   H14130801   2.313   4.867   5.782 -2.5236  1.2801 -3.4659
   31MOL   H14230802   2.023   5.061   5.725 -0.0019  0.9004 -1.4582
   31MOL   H14330803   2.298   5.229   5.704  0.3148  0.2758  1.1951
   31MOL   H14430804   2.463   5.226   5.525  0.2162  0.3022 -0.6605
   31MOL   H14530805   2.593   5.123   5.363  0.3995 -0.0601 -0.5442
   31MOL   H14630806   2.459   5.100   5.249 -1.9206 -1.0057  0.0928
   31MOL   H14730807   2.327   4.840   5.389  2.7742  1.0465 -1.9909
   31MOL   H14830808   2.154   4.846   5.569  0.1706 -0.1196 -0.1685
   31MOL   H14930809   1.938   4.996   5.948  1.0798  1.7098 -0.5763
   31MOL   H15030810   1.956   4.823   6.127  1.3183  1.3129  1.5329
   31MOL   H15130811   2.295   4.489   5.977 -1.0950 -0.1283 -0.7849
   31MOL   H15230812   2.396   4.268   6.037 -0.4370  1.6288 -2.1275
   31MOL   H15330813   2.494   4.257   6.481  1.5434 -1.3595 -2.1481
   31MOL   H15430814   2.483   4.147   6.704 -3.7740  0.2521  1.3799
   31MOL   N15530815   2.561   4.932   5.267  0.4210  0.1911 -0.1482
   31MOL   C15630816   2.636   4.838   5.339  0.3018 -0.8869  0.2525
   31MOL   C15730817   2.651   4.704   5.288 -0.1552  0.2378 -0.2228
   31MOL   C15830818   2.718   4.610   5.357 -1.0023 -0.2985  0.3010
   31MOL   C15930819   2.786   4.639   5.478  0.0896 -0.3012 -0.4688
   31MOL   N16030820   2.854   4.542   5.552 -0.5014  0.4600  0.1678
   31MOL   C16130821   2.956   4.454   5.510  0.2141  0.5433 -0.3307
   31MOL   C16230822   2.996   4.433   5.373  0.3023 -0.0954 -0.1850
   31MOL   C16330823   3.094   4.334   5.346  0.6943  0.2888  0.7904
   31MOL   C16430824   3.157   4.260   5.450  0.2412  0.3297 -0.9606
   31MOL   N16530825   3.262   4.177   5.421  0.1817 -0.3310 -0.1222
   31MOL   C16630826   3.353   4.108   5.497  0.2409 -0.2403 -0.3461
   31MOL   C16730827   3.315   4.005   5.582  0.2474 -0.0606 -0.6568
   31MOL   C16830828   3.417   3.928   5.647  0.4713  0.8732  0.4769
   31MOL   C16930829   3.556   3.959   5.634 -0.2047 -0.4338  0.1004
   31MOL   N17030830   3.651   3.865   5.676  0.8488 -0.1883  0.0282
   31MOL   C17130831   3.788   3.857   5.642 -0.0174  0.1091 -0.3529
   31MOL   C17230832   3.841   3.736   5.583  0.7838 -0.4566 -0.2758
   31MOL   C17330833   3.973   3.726   5.542  0.7868  0.4560  0.0935
   31MOL   C17430834   4.047   3.850   5.548 -1.2178  0.1083 -0.0553
   31MOL   C17530835   4.191   3.848   5.499 -0.0441 -0.0267 -0.3834
   31MOL   C17630836   4.001   3.963   5.618 -0.3804 -0.0209  0.3797
   31MOL   C17730837   3.873   3.965   5.672  0.2182 -1.1807  1.3487
   31MOL   C17830838   3.586   4.070   5.556  0.0278 -0.3438 -0.3839
   31MOL   C17930839   3.487   4.146   5.487  0.4366  0.3429 -0.4384
   31MOL   C18030840   3.124   4.287   5.583  0.4347  0.4206  0.7734
   31MOL   C18130841   3.025   4.381   5.613 -0.2475  0.5996 -0.0288
   31MOL   C18230842   2.781   4.771   5.531  0.0439 -0.0452 -0.8837
   31MOL   C18330843   2.706   4.867   5.461 -0.1569 -0.5819 -0.2784
   31MOL   H18430844   2.514   4.898   5.185  0.2645  0.4043 -0.1485
   31MOL   H18530845   2.594   4.679   5.199 -1.8227 -0.2166  0.9465
   31MOL   H18630846   2.719   4.509   5.320  0.4965 -0.2840  0.2511
   31MOL   H18730847   2.876   4.567   5.648  1.4543  2.1265 -0.6643
   31MOL   H18830848   2.949   4.484   5.290  1.3418  1.8874  0.4260
   31MOL   H18930849   3.127   4.329   5.244  0.2533  0.7403  0.6201
   31MOL   H19030850   3.305   4.189   5.331  0.6871  0.7272  0.2571
   31MOL   H19130851   3.214   3.967   5.590  0.0445  0.6598  0.3117
   31MOL   H19230852   3.410   3.835   5.703  2.8843 -0.3966 -1.2382
   31MOL   H19330853   3.619   3.785   5.729 -1.7594  1.3452  0.9017
   31MOL   H19430854   3.777   3.649   5.576  0.3391 -0.3346  1.9371
   31MOL   H19530855   4.016   3.636   5.503  1.5648  0.8088  0.1289
   31MOL   H19630856   4.197   3.778   5.415  1.1379 -0.7121  0.2698
   31MOL   H19730857   4.250   3.790   5.570  1.3419  0.0072 -1.4703
   31MOL   H19830858   4.063   4.051   5.610 -0.6834 -0.0287 -2.6827
   31MOL   H19930859   3.836   4.059   5.709  0.1736 -0.9537  0.7249
   31MOL   H20030860   3.686   4.112   5.547 -1.1717  3.0951  1.2232
   31MOL   H20130861   3.524   4.242   5.454 -0.6094  0.8393 -0.1681
   31MOL   H20230862   3.170   4.231   5.663  0.9219 -0.6431 -0.2322
   31MOL   H20330863   3.000   4.401   5.716 -0.2430 -0.2657  0.1394
   31MOL   H20430864   2.823   4.804   5.625 -3.7821 -0.8155  1.2239
   31MOL   H20530865   2.691   4.967   5.501 -0.9886  0.3309 -2.8013
   31MOL   N20630866   4.251   3.975   5.470  0.1480 -0.2031  0.0398
   31MOL   C20730867   4.219   4.052   5.362  0.3193 -0.4193 -0.3518
   31MOL   C20830868   4.212   4.000   5.232  0.5181 -0.0310 -0.4695
   31MOL   C20930869   4.196   4.081   5.120 -0.2423  0.4886  0.7464
   31MOL   C21030870   4.195   4.220   5.139 -0.2693  0.5727  0.0407
   31MOL   N21130871   4.197   4.311   5.033  0.0126  0.4035 -0.9392
   31MOL   C21230872   4.124   4.302   4.909  0.1998 -0.5386 -0.5348
   31MOL   C21330873   4.164   4.384   4.807  0.1619 -0.1339 -0.2752
   31MOL   C21430874   4.119   4.345   4.675  0.3499 -0.2515 -0.0066
   31MOL   C21530875   4.005   4.261   4.655 -0.1462  0.4634 -0.3029
   31MOL   N21630876   3.942   4.239   4.535  0.5264 -0.1591  0.7342
   31MOL   C21730877   3.984   4.256   4.408 -0.2450 -0.7217 -0.2061
   31MOL   C21830878   4.113   4.221   4.361  0.5975  0.4903 -0.2192
   31MOL   C21930879   4.133   4.212   4.221  0.3360  0.0623 -0.1015
   31MOL   C22030880   4.037   4.254   4.123  0.4678  0.3671 -0.3439
   31MOL   N22130881   4.069   4.245   3.986  0.0780 -0.2690  0.0319
   31MOL   C22230882   4.004   4.325   3.885  0.2836 -0.8352 -0.2692
   31MOL   C22330883   3.969   4.463   3.908  0.5017  0.1272  0.4109
   31MOL   C22430884   3.898   4.543   3.820 -0.9032  0.3712  0.4505
   31MOL   C22530885   3.861   4.480   3.697 -0.4289  0.4834  0.4796
   31MOL   C22630886   3.770   4.556   3.596 -0.2319 -0.8044  0.0328
   31MOL   C22730887   3.903   4.350   3.667  0.1440 -0.1421  0.4751
   31MOL   C22830888   3.980   4.275   3.759  0.6936  0.5339  0.1183
   31MOL   C22930889   3.918   4.293   4.181  0.0065  0.2955  0.6530
   31MOL   C23030890   3.885   4.286   4.314 -0.7664 -0.4699 -0.3458
   31MOL   C23130891   3.948   4.198   4.767 -0.2263  0.0624 -0.9036
   31MOL   C23230892   4.014   4.208   4.891 -0.8742  0.5632  0.2820
   31MOL   C23330893   4.193   4.274   5.265 -0.0566  0.0187  0.4743
   31MOL   C23430894   4.201   4.190   5.380 -0.3428 -0.2920  0.4269
   31MOL   H23530895   4.286   4.027   5.549 -0.3740 -0.1182  0.2203
   31MOL   H23630896   4.225   3.893   5.236  1.3967  0.0626 -0.6462
   31MOL   H23730897   4.172   4.028   5.029  3.2840 -2.5253  1.4461
   31MOL   H23830898   4.265   4.385   5.042 -0.7384  1.1505 -1.4507
   31MOL   H23930899   4.243   4.458   4.801 -0.9510  1.0942  0.0348
   31MOL   H24030900   4.170   4.401   4.598 -0.1138 -0.9447 -0.8304
   31MOL   H24130901   3.841   4.237   4.540  0.6437 -1.8496  3.3327
   31MOL   H24230902   4.196   4.190   4.423 -0.6974 -0.2235  1.2125
   31MOL   H24330903   4.230   4.178   4.188 -0.7021 -0.3880 -2.8248
   31MOL   H24430904   4.139   4.179   3.955 -0.8772 -1.0994 -0.3765
   31MOL   H24530905   4.005   4.510   3.998 -0.6810  1.2187  0.3214
   31MOL   H24630906   3.882   4.648   3.841 -1.0718  0.2674  0.8454
   31MOL   H24730907   3.673   4.565   3.644 -0.1584  2.4491 -0.3296
   31MOL   H24830908   3.752   4.496   3.506  1.2748  1.0083 -1.5245
   31MOL   H24930909   3.880   4.307   3.570 -0.6882  0.0499  0.5851
   31MOL   H25030910   4.017   4.178   3.730 -0.4923 -0.0425  0.5304
   31MOL   H25130911   3.841   4.324   4.111  1.6764  1.6974 -0.5990
   31MOL   H25230912   3.786   4.314   4.346 -1.4109 -0.3765 -2.3768
   31MOL   H25330913   3.864   4.133   4.750 -0.3000 -0.9403  2.8510
   31MOL   H25430914   3.973   4.149   4.971 -2.0637  0.0709 -0.6677
   31MOL   H25530915   4.173   4.380   5.276  0.2665  0.2185 -0.7429
   31MOL   H25630916   4.190   4.233   5.478 -2.4486 -0.4074  0.2631
   31MOL   N25730917   3.825   4.686   3.563 -0.0090 -0.5377 -0.2391
   31MOL   C25830918   3.761   4.772   3.468  0.7416 -1.0213 -0.0190
   31MOL   C25930919   3.842   4.864   3.389 -0.5424  0.1868  1.0929
   31MOL   C26030920   3.782   4.946   3.289  0.8007  0.7149  0.1753
   31MOL   C26130921   3.643   4.942   3.264  0.4384  0.8557  0.1750
   31MOL   N26230922   3.582   5.022   3.170  0.0243 -0.5813 -0.0460
   31MOL   C26330923   3.606   5.152   3.131  0.1716  0.1365  0.4673
   31MOL   C26430924   3.686   5.243   3.204  0.2212 -0.1735  0.5458
   31MOL   C26530925   3.711   5.377   3.155  0.0029  0.6368 -0.8349
   31MOL   C26630926   3.658   5.422   3.035  1.0608 -0.4902 -0.3379
   31MOL   N26730927   3.708   5.539   2.984  0.0922  1.0836 -0.1727
   31MOL   C26830928   3.679   5.665   3.039 -0.3069 -0.4231  0.2364
   31MOL   C26930929   3.740   5.715   3.152  0.7933 -0.1242  0.4856
   31MOL   C27030930   3.706   5.847   3.188 -0.4440  0.5517 -0.7103
   31MOL   C27130931   3.608   5.920   3.121 -0.0955 -0.8099 -0.0072
   31MOL   N27230932   3.574   6.041   3.177  0.1972  0.0729 -0.6468
   31MOL   C27330933   3.475   6.132   3.143  0.0328  0.5154  0.0571
   31MOL   C27430934   3.407   6.196   3.252 -1.0381  0.7520 -0.5046
   31MOL   C27530935   3.345   6.318   3.227  0.7811 -0.3278 -0.1917
   31MOL   C27630936   3.319   6.361   3.092  0.4877  0.4135  0.6854
   31MOL   C27730937   3.244   6.490   3.066 -0.1395 -0.6048 -0.6369
   31MOL   C27830938   3.368   6.293   2.985 -0.6781 -0.3265  0.0319
   31MOL   C27930939   3.456   6.182   3.009  0.1048 -0.3997 -0.1624
   31MOL   C28030940   3.545   5.870   3.003 -0.6137  0.1166  0.4412
   31MOL   C28130941   3.588   5.744   2.960  0.4324 -0.5234 -0.5687
   31MOL   C28230942   3.586   5.326   2.955  0.0738 -0.1559 -0.3697
   31MOL   C28330943   3.563   5.193   3.003  0.0806 -0.1568  0.0656
   31MOL   C28430944   3.570   4.859   3.352  0.2129  0.0986  0.4336
   31MOL   C28530945   3.621   4.778   3.453  0.3503 -0.0882 -1.1142
   31MOL   H28630946   3.908   4.725   3.604 -1.8487  1.5904  1.5847
   31MOL   H28730947   3.950   4.863   3.398 -0.3952  0.3107 -0.4414
   31MOL   H28830948   3.845   5.019   3.239  2.5351  0.2824  1.6552
   31MOL   H28930949   3.494   4.999   3.126 -1.4339 -0.9215  2.9696
   31MOL   H29030950   3.728   5.210   3.298 -2.1451 -1.8828  1.0450
   31MOL   H29130951   3.779   5.433   3.217  0.4529 -0.4726 -0.3091
   31MOL   H29230952   3.724   5.531   2.885  0.3799 -0.2941 -0.0327
   31MOL   H29330953   3.818   5.670   3.213  0.5072 -2.4397 -0.8045
   31MOL   H29430954   3.750   5.886   3.278  3.3897  0.6210 -2.5258
   31MOL   H29530955   3.592   6.049   3.276  0.4953 -0.8840 -0.6199
   31MOL   H29630956   3.426   6.179   3.357 -1.1181  0.8595 -0.4725
   31MOL   H29730957   3.300   6.360   3.315  2.3833  0.8370  0.0862
   31MOL   H29830958   3.317   6.571   3.059  1.6656 -2.1855 -0.3755
   31MOL   H29930959   3.178   6.521   3.148 -0.8331 -1.0980 -1.0045
   31MOL   H30030960   3.355   6.331   2.884  0.2669  1.1311  0.4532
   31MOL   H30130961   3.503   6.137   2.923 -0.3093  0.1040 -0.6534
   31MOL   H30230962   3.467   5.925   2.954  0.0610  0.9401  0.2742
   31MOL   H30330963   3.554   5.707   2.865  0.7087 -0.2852 -0.7577
   31MOL   H30430964   3.549   5.357   2.858  0.8295  0.1079 -0.5841
   31MOL   H30530965   3.501   5.127   2.945 -1.0045  0.1066  0.8855
   31MOL   H30630966   3.464   4.854   3.335  0.3176  0.3671 -0.3114
   31MOL   H30730967   3.553   4.720   3.514  1.3034 -0.5376 -0.4715
   31MOL   N30830968   3.155   6.486   2.956  0.5878 -0.2139  0.0812
   31MOL   C30930969   3.054   6.386   2.939 -0.4184 -0.5562  0.8204
   31MOL   C31030970   3.029   6.283   3.032  0.3781 -0.6276  0.1579
   31MOL   C31130971   2.929   6.187   3.010  0.0252  0.2741  0.1734
   31MOL   C31230972   2.850   6.189   2.895 -0.5204 -0.0122 -0.2788
   31MOL   N31330973   2.748   6.093   2.874  0.0658  0.5825 -0.3396
   31MOL   C31430974   2.685   6.015   2.976 -0.3604  0.2372  0.3688
   31MOL   C31530975   2.647   5.881   2.960  0.4330 -0.0539  0.2565
   31MOL   C31630976   2.599   5.804   3.066  0.9633  0.1069 -0.1962
   31MOL   C31730977   2.585   5.851   3.197 -0.2577  0.2638 -0.0033
   31MOL   N31830978   2.538   5.775   3.301 -0.4604 -0.3886  0.2328
   31MOL   C31930979   2.526   5.636   3.307  0.1806  0.1189  0.2941
   31MOL   C32030980   2.629   5.552   3.254  0.4210 -0.4225 -0.1632
   31MOL   C32130981   2.608   5.414   3.260 -0.4637  0.1344 -0.0217
   31MOL   C32230982   2.498   5.360   3.329  0.6063  0.6164  0.6442
   31MOL   N32330983   2.464   5.225   3.336 -0.2572 -0.2185  0.2031
   31MOL   C32430984   2.512   5.139   3.235 -0.6436  0.7040 -0.6871
   31MOL   C32530985   2.569   5.008   3.264 -0.5836 -0.5292  0.1245
   31MOL   C32630986   2.633   4.940   3.158  0.6305  0.0069  0.4799
   31MOL   C32730987   2.619   4.987   3.026 -0.3494  0.3795  0.5231
   31MOL   C32830988   2.682   4.922   2.908  0.9060 -0.5157  0.1909
   31MOL   C32930989   2.545   5.106   2.999 -0.0040  0.4734 -0.2210
   31MOL   C33030990   2.497   5.183   3.100 -0.0705 -0.5238 -0.9648
   31MOL   C33130991   2.399   5.446   3.384  0.4523 -0.5598  0.0760
   31MOL   C33230992   2.412   5.586   3.369  0.9468  0.7587  0.6003
   31MOL   C33330993   2.610   5.989   3.215  0.4865 -0.2649 -0.5595
   31MOL   C33430994   2.661   6.067   3.102  0.1564 -0.5847 -0.5623
   31MOL   C33530995   2.868   6.296   2.801  0.0148 -0.9951 -0.6919
   31MOL   C33630996   2.965   6.395   2.827 -0.3925 -0.5549  0.4540
   31MOL   H33730997   3.181   6.529   2.868  0.2507 -0.8452 -0.3276
   31MOL   H33830998   3.073   6.286   3.131  0.2451 -0.8951  0.2238
   31MOL   H33930999   2.928   6.108   3.084 -2.7942 -0.0913 -0.2097
   31MOL   H34031000   2.729   6.070   2.777  0.2343  1.1081 -0.5028
   31MOL   H34131001   2.657   5.837   2.861  0.7903 -0.2791  0.3897
   31MOL   H34231002   2.582   5.700   3.043  0.4709  0.4334 -1.2995
   31MOL   H34331003   2.467   5.832   3.346 -1.1706 -0.7486 -0.4216
   31MOL   H34431004   2.721   5.587   3.208  1.3216  0.2309  2.0253
   31MOL   H34531005   2.682   5.342   3.227  0.4190  0.3238  1.4826
   31MOL   H34631006   2.467   5.191   3.431  1.6762 -1.1235 -0.1484
   31MOL   H34731007   2.556   4.972   3.365  0.0779 -1.1828 -0.0190
   31MOL   H34831008   2.672   4.840   3.165  2.2135  0.5588 -0.2973
   31MOL   H34931009   2.607   4.908   2.831  0.5566  2.5714 -0.0957
   31MOL   H35031010   2.709   4.820   2.937 -2.9419 -1.7693 -0.3289
   31MOL   H35131011   2.532   5.156   2.904  1.0955 -0.8564 -1.0883
   31MOL   H35231012   2.448   5.275   3.070  1.9078 -0.2713 -3.6125
   31MOL   H35331013   2.307   5.412   3.431 -0.0160 -0.2686 -0.6188
   31MOL   H35431014   2.338   5.655   3.406  0.6318  1.1561 -0.7192
   31MOL   H35531015   2.599   6.038   3.310  2.2097 -0.4769 -0.2487
   31MOL   H35631016   2.684   6.170   3.121 -1.6409 -0.5999  2.0684
   31MOL   H35731017   2.810   6.286   2.710  1.2435 -1.8545 -1.3839
   31MOL   H35831018   2.966   6.483   2.766  1.4272 -0.7734  0.1117
   31MOL   N35931019   2.803   4.995   2.874 -0.4412  0.5239 -0.9307
   31MOL   C36031020   2.847   4.967   2.745 -0.6720 -0.4034  0.0406
   31MOL   C36131021   2.914   4.849   2.717  0.2282 -0.0100 -0.6117
   31MOL   C36231022   2.961   4.821   2.585  0.6950 -0.0751  0.0608
   31MOL   C36331023   2.949   4.920   2.491 -0.3084  0.1048  0.1454
   31MOL   N36431024   2.981   4.889   2.356  0.0223 -0.5628 -0.3839
   31MOL   C36531025   3.091   4.808   2.309 -0.0065  0.2405 -0.3417
   31MOL   C36631026   3.223   4.801   2.368 -0.3540  0.5175  0.5488
   31MOL   C36731027   3.334   4.746   2.303 -0.2956 -0.1761  0.4545
   31MOL   C36831028   3.312   4.699   2.171 -0.2226 -0.3403 -0.1508
   31MOL   N36931029   3.422   4.644   2.110 -0.3624  0.1912  0.1082
   31MOL   C37031030   3.428   4.605   1.974 -0.4028 -0.1617  0.2622
   31MOL   C37131031   3.407   4.698   1.873  0.4928  0.5956  0.0391
   31MOL   C37231032   3.428   4.659   1.736  0.0846 -0.3737 -1.1030
   31MOL   C37331033   3.480   4.528   1.706 -0.0528 -0.1558  0.0646
   31MOL   N37431034   3.516   4.496   1.576 -0.1282  0.0862  0.0197
   31MOL   C37531035   3.501   4.374   1.511 -0.3502 -0.1126 -0.4152
   31MOL   C37631036   3.394   4.282   1.537 -0.0557  0.4328  0.4029
   31MOL   C37731037   3.386   4.164   1.465  0.0541  0.2067 -0.2785
   31MOL   C37831038   3.477   4.133   1.358  0.1944  0.1008  0.9917
   31MOL   C37931039   3.472   4.005   1.281  0.1283  0.1642 -0.0177
   31MOL   C38031040   3.590   4.219   1.330  0.3879 -0.1550  0.1192
   31MOL   C38131041   3.594   4.342   1.406 -0.1615 -0.4962  0.1469
   31MOL   C38231042   3.496   4.434   1.808 -0.3673  0.2409  0.0594
   31MOL   C38331043   3.466   4.472   1.943  0.0657  0.2656 -0.0632
   31MOL   C38431044   3.186   4.696   2.110  0.6707  0.2230  0.6853
   31MOL   C38531045   3.075   4.743   2.182  0.3763  0.1113  0.4835
   31MOL   C38631046   2.883   5.038   2.517 -0.4226 -0.6268  0.0432
   31MOL   C38731047   2.825   5.060   2.642  0.1910  0.2790  0.0644
   31MOL   H38831048   2.791   5.093   2.892 -0.4887 -0.0178  2.4000
   31MOL   H38931049   2.936   4.782   2.799 -0.7613 -0.7174 -0.9218
   31MOL   H39031050   3.008   4.726   2.564 -0.4519 -0.4838 -0.6962
   31MOL   H39131051   2.916   4.926   2.288  0.3466  1.1437  0.2163
   31MOL   H39231052   3.250   4.850   2.460  1.4436 -0.8771  0.7817
   31MOL   H39331053   3.433   4.743   2.347 -0.1544 -1.0529  0.0828
   31MOL   H39431054   3.515   4.652   2.149  0.5247 -0.9458 -1.7062
   31MOL   H39531055   3.377   4.800   1.894 -1.1982  0.0577  0.3327
   31MOL   H39631056   3.406   4.742   1.671 -0.6941 -0.0446 -0.4311
   31MOL   H39731057   3.582   4.557   1.530  0.2739 -0.9753 -0.8451
   31MOL   H39831058   3.320   4.293   1.616 -0.9131 -0.6987 -0.2189
   31MOL   H39931059   3.312   4.094   1.501  1.0876 -0.2377  0.9919
   31MOL   H40031060   3.391   4.005   1.209 -0.0670 -1.2202  0.1957
   31MOL   H40131061   3.441   3.925   1.349  1.1071 -1.2109 -1.1557
   31MOL   H40231062   3.649   4.208   1.240  1.2351  0.5908  0.5702
   31MOL   H40331063   3.675   4.410   1.388 -0.6967 -0.1755 -1.1328
   31MOL   H40431064   3.532   4.334   1.792  0.8679  0.2812  2.3638
   31MOL   H40531065   3.476   4.401   2.023 -0.7185 -1.1653 -1.1983
   31MOL   H40631066   3.168   4.644   2.017  1.8393 -1.8330  1.5676
   31MOL   H40731067   2.980   4.745   2.131  1.1330 -2.8923 -1.1332
   31MOL   H40831068   2.864   5.115   2.443 -0.5358  0.7184  1.4436
   31MOL   H40931069   2.766   5.148   2.663  0.2846  0.0309  1.4296
   31MOL   N41031070   3.590   3.962   1.209 -0.5777  0.0056  0.0488
   31MOL   C41131071   3.703   3.911   1.269  0.2487  0.8388 -0.1269
   31MOL   C41231072   3.800   3.862   1.188  0.0682 -0.4920  0.0139
   31MOL   C41331073   3.922   3.809   1.242 -0.4027 -0.4914  0.1056
   31MOL   C41431074   3.946   3.804   1.378  0.3199 -0.2675  0.1700
   31MOL   N41531075   4.066   3.750   1.421 -0.3987 -0.1237 -0.5061
   31MOL   C41631076   4.136   3.785   1.536  0.3242 -0.6435 -0.7466
   31MOL   C41731077   4.132   3.918   1.577  0.8303  0.5015  0.2428
   31MOL   C41831078   4.221   3.962   1.674 -0.2461  0.2052  0.0670
   31MOL   C41931079   4.310   3.872   1.731  0.0813  0.1110  0.3742
   31MOL   N42031080   4.405   3.925   1.815  0.0473  0.0909 -0.0472
   31MOL   C42131081   4.475   3.858   1.917  0.3175  0.3770  0.0727
   31MOL   C42231082   4.408   3.771   2.001  0.3378 -0.4985 -0.3866
   31MOL   C42331083   4.489   3.697   2.095  0.0567 -0.5618 -0.2864
   31MOL   C42431084   4.623   3.717   2.121 -0.1390  0.1937 -0.2297
   31MOL   N42531085   4.686   3.631   2.209  0.6173  0.0457  0.4270
   31MOL   C42631086   4.812   3.661   2.268 -0.0946 -0.6033  0.3565
   31MOL   C42731087   4.825   3.781   2.337  0.1261 -0.0035 -0.0669
   31MOL   C42831088   4.952   3.805   2.399 -0.2603 -0.2146 -0.5192
   31MOL   C42931089   5.058   3.716   2.385 -0.2917  0.4037 -0.5330
   31MOL   C43031090   5.189   3.737   2.458  0.6615 -0.3631  0.9934
   31MOL   C43131091   5.038   3.596   2.314 -0.5193  0.2265  0.2996
   31MOL   C43231092   4.920   3.568   2.248 -0.5038 -0.3096 -0.3055
   31MOL   C43331093   4.683   3.812   2.045  0.4210 -0.4411 -0.1436
   31MOL   C43431094   4.613   3.876   1.937 -0.1521  0.3799 -0.0995
   31MOL   C43531095   4.311   3.737   1.695 -0.4045  0.2813 -0.1754
   31MOL   C43631096   4.220   3.692   1.597 -0.1227  0.4405 -0.3052
   31MOL   C43731097   3.846   3.853   1.468 -0.5023  0.4373 -0.0532
   31MOL   C43831098   3.723   3.907   1.410  0.5889  0.0104  0.1469
   31MOL   H43931099   3.580   3.925   1.116 -1.9188  0.4105  0.0264
   31MOL   H44031100   3.810   3.878   1.082  1.0677 -1.5192 -0.0525
   31MOL   H44131101   4.000   3.773   1.176  2.7725  2.9409  1.7886
   31MOL   H44231102   4.113   3.694   1.350  0.3915 -1.9484  1.3782
   31MOL   H44331103   4.078   3.988   1.515  1.2290  0.1823 -0.4707
   31MOL   H44431104   4.226   4.068   1.693  0.2357  0.1707  0.1583
   31MOL   H44531105   4.418   4.023   1.796 -1.6668  1.1720  3.8521
   31MOL   H44631106   4.304   3.740   1.994 -0.3016  1.4465  0.2305
   31MOL   H44731107   4.444   3.617   2.151 -0.7303 -0.0088 -0.1110
   31MOL   H44831108   4.663   3.533   2.217  1.2022 -0.0777  0.6092
   31MOL   H44931109   4.736   3.841   2.348  1.1269  1.3217  0.9656
   31MOL   H45031110   4.964   3.894   2.459  0.4478  1.4947 -3.0945
   31MOL   H45131111   5.266   3.707   2.386 -0.3770 -1.5965  0.3628
   31MOL   H45231112   5.202   3.663   2.536 -0.1871  0.1864  1.6610
   31MOL   H45331113   5.124   3.532   2.302  1.0710  2.5194 -0.8075
   31MOL   H45431114   4.903   3.481   2.187 -2.2312 -0.1343 -0.1071
   31MOL   H45531115   4.785   3.842   2.064 -0.4010  1.9926  0.7207
   31MOL   H45631116   4.671   3.940   1.871 -1.0623  1.5460  0.2049
   31MOL   H45731117   4.377   3.659   1.729 -1.0292  0.1153  0.6828
   31MOL   H45831118   4.222   3.588   1.567  2.4807  0.0363  1.2025
   31MOL   H45931119   3.853   3.842   1.575 -1.7052  0.7718  0.0719
   31MOL   H46031120   3.643   3.942   1.473 -0.6613  2.0799 -2.4848
   31MOL   N46131121   5.228   3.871   2.490  0.4020 -0.3960 -0.2096
   31MOL   C46231122   5.207   3.926   2.619  0.3075  0.2371  0.0078
   31MOL   C46331123   5.174   3.850   2.731 -0.4114  0.0769 -0.4291
   31MOL   C46431124   5.130   3.912   2.854  1.0811 -0.0005 -0.1756
   31MOL   C46531125   5.138   4.053   2.861  0.2746 -1.2022  0.0977
   31MOL   N46631126   5.096   4.120   2.976 -0.3393  0.0199  0.3633
   31MOL   C46731127   4.991   4.086   3.067 -0.6224  0.0835 -0.0685
   31MOL   C46831128   4.978   3.957   3.132 -0.1499  0.3287 -0.0311
   31MOL   C46931129   4.858   3.926   3.202 -0.0120  0.2107  0.7938
   31MOL   C47031130   4.750   4.019   3.222  0.0734  0.7614  0.3440
   31MOL   N47131131   4.639   3.988   3.299 -0.7021 -0.3787  0.1114
   31MOL   C47231132   4.580   3.862   3.319  0.3413  0.7021 -0.3643
   31MOL   C47331133   4.559   3.772   3.211 -0.1104 -1.1626  0.3692
   31MOL   C47431134   4.478   3.655   3.221  0.4400 -0.3208  0.7949
   31MOL   C47531135   4.434   3.627   3.356 -0.1376  0.6169 -0.3305
   31MOL   N47631136   4.354   3.514   3.368  0.1782  0.1884  0.3795
   31MOL   C47731137   4.253   3.482   3.460  0.1052 -0.1501 -0.0985
   31MOL   C47831138   4.213   3.352   3.477  0.9499 -0.2577 -0.2029
   31MOL   C47931139   4.102   3.325   3.556  0.4558 -0.2718 -0.2860
   31MOL   C48031140   4.037   3.426   3.627  0.4716  0.6911  0.0281
   31MOL   C48131141   3.925   3.397   3.723  0.2623  0.3531 -0.6169
   31MOL   C48231142   4.068   3.561   3.598 -0.0397 -0.3335 -0.8642
   31MOL   C48331143   4.173   3.587   3.512 -0.6147 -0.5517 -0.3738
   31MOL   C48431144   4.468   3.709   3.468  0.2806 -0.4898 -0.0136
   31MOL   C48531145   4.533   3.829   3.451 -0.5567 -0.7090  0.0554
   31MOL   C48631146   4.771   4.151   3.176  0.0646 -0.4799  0.2307
   31MOL   C48731147   4.885   4.179   3.095 -0.4494  0.1325  0.6954
   31MOL   C48831148   5.191   4.123   2.752  0.4592 -0.7291  0.7612
   31MOL   C48931149   5.225   4.061   2.628 -0.0842 -0.3355  0.9669
   31MOL   H49031150   5.223   3.936   2.413 -0.7540 -2.0461 -1.5847
   31MOL   H49131151   5.174   3.743   2.740 -1.8218 -0.0331 -1.4523
   31MOL   H49231152   5.108   3.842   2.933  0.4844 -0.6460 -0.9153
   31MOL   H49331153   5.101   4.221   2.968  1.3865 -0.0948  0.0074
   31MOL   H49431154   5.058   3.885   3.134  0.0000  0.5318  2.1662
   31MOL   H49531155   4.861   3.824   3.236 -2.3832  0.1575  0.9163
   31MOL   H49631156   4.601   4.060   3.360 -0.7794  0.4725 -0.9237
   31MOL   H49731157   4.606   3.789   3.115  2.2666  1.1088  1.9003
   31MOL   H49831158   4.458   3.586   3.140  0.3476 -0.5223  0.9880
   31MOL   H49931159   4.382   3.440   3.305  0.9338  0.2661  0.6212
   31MOL   H50031160   4.265   3.278   3.419  0.3952  0.0142 -1.0460
   31MOL   H50131161   4.065   3.223   3.560 -1.9641  0.6112  0.6972
   31MOL   H50231162   3.937   3.297   3.765 -2.4051 -0.2725 -1.2336
   31MOL   H50331163   3.825   3.394   3.678 -0.6966 -2.1758  1.5829
   31MOL   H50431164   4.021   3.643   3.652  0.8200  0.3050 -1.0686
   31MOL   H50531165   4.203   3.689   3.495 -0.1334 -0.7005 -0.4350
   31MOL   H50631166   4.429   3.687   3.567 -0.5636  1.4782  0.1097
   31MOL   H50731167   4.550   3.896   3.534 -0.3629 -1.0760  0.3113
   31MOL   H50831168   4.689   4.221   3.186 -0.4337 -1.0018 -0.1186
   31MOL   H50931169   4.881   4.276   3.048 -1.3857  0.0632  0.6128
   31MOL   H51031170   5.207   4.229   2.763 -1.7470 -0.1747 -0.9143
   31MOL   H51131171   5.254   4.117   2.540 -1.3036  0.0013  0.7596
   31MOL   N51231172   3.893   3.486   3.833 -0.6742  0.0401 -0.2622
   31MOL   C51331173   3.995   3.515   3.928  0.0489 -0.6397  0.1906
   31MOL   C51431174   4.123   3.465   3.918  0.5921  0.2611  0.8571
   31MOL   C51531175   4.228   3.515   4.004  0.2777  0.2580 -0.4121
   31MOL   C51631176   4.192   3.603   4.106  0.0127 -0.1294  0.0784
   31MOL   N51731177   4.281   3.654   4.201 -0.4446 -0.3844 -0.1551
   31MOL   C51831178   4.358   3.771   4.184  0.1936 -0.0810  0.5839
   31MOL   C51931179   4.335   3.892   4.260 -0.4286  0.1331  0.8676
   31MOL   C52031180   4.424   4.001   4.249  0.4790  0.0555  0.5493
   31MOL   C52131181   4.523   4.003   4.150  0.5576  0.5560 -0.1148
   31MOL   N52231182   4.597   4.120   4.130 -0.1572  0.1523 -0.1757
   31MOL   C52331183   4.737   4.140   4.132  0.2608  0.5803 -0.0858
   31MOL   C52431184   4.785   4.267   4.095 -0.0710 -0.8134 -0.7313
   31MOL   C52531185   4.927   4.288   4.092 -0.1395  0.0892  0.1833
   31MOL   C52631186   5.020   4.187   4.118 -0.2123 -0.3575  0.1699
   31MOL   N52731187   5.157   4.217   4.122 -0.2404  0.4759  1.1290
   31MOL   C52831188   5.256   4.154   4.041 -0.2984 -0.3973  0.9809
   31MOL   C52931189   5.376   4.216   4.018 -0.5478 -0.3325 -0.2012
   31MOL   C53031190   5.474   4.158   3.937  0.0215 -0.1068  0.4923
   31MOL   C53131191   5.456   4.025   3.888  0.6139 -0.7348  0.5426
   31MOL   C53231192   5.566   3.952   3.811  0.0612 -0.1590 -0.2557
   31MOL   C53331193   5.331   3.958   3.908 -0.7150 -0.7527  0.1961
   31MOL   C53431194   5.235   4.025   3.989  0.3322  0.2812  0.0868
   31MOL   C53531195   4.972   4.063   4.163 -0.3991 -0.5288  0.4051
   31MOL   C53631196   4.829   4.040   4.164  0.4329 -0.2746 -0.5346
   31MOL   C53731197   4.545   3.880   4.074  0.3053 -0.9944 -0.0492
   31MOL   C53831198   4.455   3.774   4.084  0.1263 -0.4346 -0.2547
   31MOL   C53931199   4.061   3.642   4.121  0.0138  0.2869 -0.1517
   31MOL   C54031200   3.962   3.605   4.028  0.2681  0.5270  0.3699
   31MOL   H54131201   3.846   3.569   3.800  1.3174  0.8668 -1.0899
   31MOL   H54231202   4.140   3.386   3.846  1.9876  1.2914  0.0245
   31MOL   H54331203   4.334   3.497   3.998 -0.0588 -1.9994  0.0247
   31MOL   H54431204   4.220   3.676   4.278 -1.4296 -1.2964 -0.6559
   31MOL   H54531205   4.251   3.900   4.326 -0.2209 -0.4919  1.2140
   31MOL   H54631206   4.413   4.082   4.320 -2.1830  0.0787  0.1649
   31MOL   H54731207   4.560   4.199   4.182  2.9765  1.2027  0.5425
   31MOL   H54831208   4.724   4.352   4.070  0.9164 -0.0755 -0.6966
   31MOL   H54931209   4.974   4.379   4.059  2.4353 -1.2224  0.1792
   31MOL   H55031210   5.181   4.314   4.136  0.4255  0.5179 -0.2557
   31MOL   H55131211   5.394   4.308   4.072 -0.1714 -1.1528  1.1135
   31MOL   H55231212   5.573   4.201   3.934 -0.0261 -0.0833 -0.8459
   31MOL   H55331213   5.670   3.969   3.841  0.0584 -3.2205  1.6116
   31MOL   H55431214   5.559   3.999   3.712  1.5140 -1.5000 -1.0212
   31MOL   H55531215   5.304   3.861   3.869 -0.2336 -1.2081  0.9952
   31MOL   H55631216   5.157   3.958   4.026  1.4522 -1.2804 -0.3299
   31MOL   H55731217   5.042   3.988   4.197 -0.5315 -0.6190  0.4786
   31MOL   H55831218   4.785   3.956   4.215 -2.4243  1.4752  0.0098
   31MOL   H55931219   4.626   3.878   4.004  0.4703  0.4808  0.0870
   31MOL   H56031220   4.463   3.689   4.018 -0.3404 -2.4958  2.2504
   31MOL   H56131221   4.027   3.699   4.206 -0.0574 -1.3147  0.9003
   31MOL   H56231222   3.862   3.646   4.025 -0.7550 -1.9719 -4.7962
   31MOL   N56331223   5.539   3.807   3.796  0.1460 -0.3700  0.2798
   31MOL   C56431224   5.583   3.724   3.693 -1.2386  0.3779  0.2837
   31MOL   C56531225   5.692   3.763   3.610  0.4135  0.3760  0.2104
   31MOL   C56631226   5.741   3.674   3.509  0.6400 -0.4371 -0.5381
   31MOL   C56731227   5.687   3.542   3.508 -0.0376  0.1799 -0.2783
   31MOL   N56831228   5.745   3.449   3.426  0.1929 -0.4576 -0.2038
   31MOL   C56931229   5.748   3.449   3.286 -0.2981  1.0460  0.1219
   31MOL   C57031230   5.775   3.327   3.226  0.3705  0.1840  0.3185
   31MOL   C57131231   5.777   3.319   3.087 -0.6770 -0.4872 -0.5132
   31MOL   C57231232   5.759   3.431   3.007  0.3111  0.7488 -0.6161
   31MOL   N57331233   5.760   3.410   2.872 -0.3536  0.5050  0.0959
   31MOL   C57431234   5.695   3.479   2.775 -0.2243  0.3944 -0.0981
   31MOL   C57531235   5.569   3.532   2.789  0.3587  0.0956  0.2262
   31MOL   C57631236   5.512   3.614   2.690 -0.1080  0.1074  0.2103
   31MOL   C57731237   5.576   3.626   2.564 -0.0702  0.5669 -0.1639
   31MOL   N57831238   5.517   3.701   2.462  0.1185  0.0364  0.3031
   31MOL   C57931239   5.534   3.678   2.319 -0.4190  0.4888 -0.1222
   31MOL   C58031240   5.573   3.554   2.279  0.1039 -0.0780 -0.4569
   31MOL   C58131241   5.593   3.529   2.144  0.0678 -0.6534  0.4238
   31MOL   C58231242   5.592   3.630   2.044 -0.8380  0.4234  0.6482
   31MOL   C58331243   5.643   3.608   1.905  0.6564 -0.6415 -0.7042
   31MOL   C58431244   5.563   3.755   2.088 -0.5861 -0.3030  0.2955
   31MOL   C58531245   5.532   3.781   2.225 -0.3029  0.2099  0.2447
   31MOL   C58631246   5.707   3.570   2.545 -0.2070  0.2528 -0.0097
   31MOL   C58731247   5.761   3.500   2.651  0.5201 -0.1180 -0.0874
   31MOL   C58831248   5.724   3.550   3.067  0.6367  0.3714  0.2936
   31MOL   C58931249   5.724   3.562   3.206 -0.0527 -0.8136 -1.1184
   31MOL   C59031250   5.593   3.498   3.605  0.3647 -0.4459 -0.7447
   31MOL   C59131251   5.542   3.591   3.694 -0.6141  0.2378  0.7538
   31MOL   H59231252   5.500   3.762   3.877 -0.3656  1.4717  1.0983
   31MOL   H59331253   5.743   3.858   3.616 -0.0003  0.8380 -2.9049
   31MOL   H59431254   5.821   3.703   3.443  0.0095 -0.4183 -1.3048
   31MOL   H59531255   5.770   3.363   3.473 -1.7969 -1.1992 -0.4527
   31MOL   H59631256   5.791   3.242   3.291 -2.1322 -1.6522 -1.4142
   31MOL   H59731257   5.779   3.221   3.040  0.8101  0.0139 -1.5177
   31MOL   H59831258   5.774   3.311   2.859  0.5086  0.7232 -0.6627
   31MOL   H59931259   5.511   3.515   2.879 -0.9092 -0.9642 -0.7647
   31MOL   H60031260   5.409   3.640   2.708 -0.3184 -0.6076  0.0516
   31MOL   H60131261   5.461   3.780   2.490  0.3390  0.0013  0.8405
   31MOL   H60231262   5.559   3.469   2.343 -0.7809 -0.0209 -0.5573
   31MOL   H60331263   5.607   3.424   2.122 -0.4947 -0.5691 -0.3352
   31MOL   H60431264   5.568   3.631   1.829 -0.7422 -3.6961 -0.2987
   31MOL   H60531265   5.662   3.501   1.898 -1.2844 -1.0243 -0.4038
   31MOL   H60631266   5.556   3.836   2.017  1.1947  0.3595  0.8400
   31MOL   H60731267   5.502   3.879   2.258  0.2787  0.9435 -1.3681
   31MOL   H60831268   5.756   3.575   2.449  1.4875  0.8212  0.8671
   31MOL   H60931269   5.862   3.461   2.641  1.3621  1.7251  0.8625
   31MOL   H61031270   5.706   3.640   3.010  3.0145  0.1344 -0.9016
   31MOL   H61131271   5.710   3.660   3.250 -0.6231 -1.0383 -0.7901
   31MOL   H61231272   5.558   3.396   3.612 -2.1195  0.3467 -1.3608
   31MOL   H61331273   5.460   3.553   3.753 -0.2089 -0.1033  1.0975
   31MOL   N61431274   5.763   3.678   1.856 -0.4806 -0.2910 -0.3677
   31MOL   C61531275   5.843   3.634   1.748  0.6856 -0.1091 -0.3557
   31MOL   C61631276   5.802   3.536   1.657 -0.0775  0.2294  0.3184
   31MOL   C61731277   5.887   3.494   1.552  0.6341 -0.1893 -0.5255
   31MOL   C61831278   6.006   3.557   1.530  0.0281  0.2122 -0.1616
   31MOL   N61931279   6.081   3.519   1.416 -0.6837  0.3935 -0.3352
   31MOL   C62031280   6.134   3.612   1.320 -0.7716 -0.2275  0.2386
   31MOL   C62131281   6.104   3.747   1.309  0.3060  0.6694  1.0497
   31MOL   C62231282   6.139   3.811   1.190 -0.5902  0.3676 -0.0094
   31MOL   C62331283   6.221   3.755   1.093 -0.1994 -0.2285 -0.0992
   31MOL   N62431284   6.259   3.827   0.989  0.0599  0.4801 -0.1315
   31MOL   C62531285   6.390   3.858   0.946  1.0281  0.5572  0.2509
   31MOL   C62631286   6.422   3.988   0.904 -0.4697  0.0356  0.2903
   31MOL   C62731287   6.546   4.018   0.857 -0.1514  0.7029  0.3290
   31MOL   C62831288   6.656   3.927   0.866  0.7562  0.3750 -0.2773
   31MOL   N62931289   6.787   3.970   0.851 -0.3839  0.9345 -0.1439
   31MOL   C63031290   6.887   3.928   0.937 -0.2041  0.3379 -0.3408
   31MOL   C63131291   7.020   3.931   0.883 -0.1972 -0.7431 -0.3425
   31MOL   C63231292   7.128   3.880   0.957  0.1894  0.2855 -0.0541
   31MOL   C63331293   7.107   3.843   1.088  0.7116 -0.0271  0.0587
   31MOL   C63431294   7.221   3.786   1.173 -0.3130 -0.0781 -0.2078
   31MOL   C63531295   6.977   3.846   1.145 -0.4020  0.4750  0.9025
   31MOL   C63631296   6.867   3.884   1.066 -0.3431 -0.1564  0.0389
   31MOL   C63731297   6.623   3.798   0.902 -0.2008  0.0571 -0.6637
   31MOL   C63831298   6.493   3.761   0.939  0.6749 -0.1386  0.1593
   31MOL   C63931299   6.260   3.621   1.116 -0.5749 -0.3028 -0.9620
   31MOL   C64031300   6.213   3.550   1.227 -0.3334  0.6370 -0.1598
   31MOL   C64131301   6.047   3.658   1.621  0.4612  0.0620  0.2985
   31MOL   C64231302   5.968   3.696   1.728 -0.0066  0.4705  0.1737
   31MOL   H64331303   5.796   3.751   1.918  0.0334  0.1889 -1.1897
   31MOL   H64431304   5.702   3.496   1.663  0.1720 -0.4175  0.3042
   31MOL   H64531305   5.858   3.414   1.485 -0.0478 -1.3045  1.0811
   31MOL   H64631306   6.075   3.425   1.380  0.4831 -0.3831  1.4373
   31MOL   H64731307   6.036   3.802   1.373 -1.3855 -0.3148  0.1595
   31MOL   H64831308   6.104   3.912   1.179 -0.9867  0.1131 -1.1997
   31MOL   H64931309   6.197   3.902   0.962 -0.7865 -0.3672 -0.5906
   31MOL   H65031310   6.347   4.066   0.903  1.9100  2.4031 -1.1537
   31MOL   H65131311   6.564   4.122   0.830 -1.5378  0.7933 -0.2764
   31MOL   H65231312   6.798   4.063   0.811 -2.2818  0.9859 -0.6061
   31MOL   H65331313   7.026   3.958   0.778  0.5131  3.6885  0.7381
   31MOL   H65431314   7.229   3.879   0.917 -0.3230  0.5106 -1.3843
   31MOL   H65531315   7.282   3.710   1.123 -1.8608 -1.7946  0.4541
   31MOL   H65631316   7.176   3.731   1.255 -0.1525 -1.5036 -1.0489
   31MOL   H65731317   6.965   3.812   1.246 -0.3970  1.1003  1.1175
   31MOL   H65831318   6.772   3.889   1.116 -0.6246 -1.7036 -0.3110
   31MOL   H65931319   6.701   3.724   0.909  0.1447  0.4713 -0.0202
   31MOL   H66031320   6.479   3.655   0.959  3.3242 -1.0319 -2.3436
   31MOL   H66131321   6.324   3.571   1.044  0.8912 -0.6231  0.5440
   31MOL   H66231322   6.222   3.443   1.219  0.0869  0.6288  0.4005
   31MOL   H66331323   6.146   3.701   1.606  0.7535 -1.1127 -1.3382
   31MOL   H66431324   6.010   3.763   1.802  1.3693  0.2684 -0.4064
   31MOL   N66531325   7.318   3.883   1.234  0.2857  0.6198 -0.6518
   31MOL   C66631326   7.382   3.843   1.353  1.3307  0.3280  0.5594
   31MOL   C66731327   7.392   3.932   1.459 -0.1502  0.4054 -0.2806
   31MOL   C66831328   7.437   3.885   1.582  0.2360  0.5252 -0.0306
   31MOL   C66931329   7.481   3.748   1.600 -0.5911 -0.2390 -0.2878
   31MOL   N67031330   7.513   3.699   1.729  0.0314 -0.2600  0.3704
   31MOL   C67131331   7.610   3.751   1.818 -0.2273  0.5054  0.7629
   31MOL   C67231332   7.689   3.859   1.787 -0.4986 -0.6622 -0.5210
   31MOL   C67331333   7.772   3.925   1.880  0.1334 -0.3988  0.3491
   31MOL   C67431334   7.768   3.885   2.012  0.8110 -0.7719  0.5489
   31MOL   N67531335   7.855   3.939   2.109  0.2154  0.1213 -0.6363
   31MOL   C67631336   0.005   3.991   2.097 -0.3548 -0.0057 -0.0337
   31MOL   C67731337   0.058   4.068   2.207  0.2752 -0.3288 -0.7304
   31MOL   C67831338   0.186   4.117   2.198  0.2496 -0.8318  0.4774
   31MOL   C67931339   0.257   4.115   2.080  0.4634  0.1672  0.0165
   31MOL   N68031340   0.385   4.172   2.076  0.1859  0.0880 -0.0570
   31MOL   C68131341   0.434   4.290   2.131  0.0296  0.5666 -0.2752
   31MOL   C68231342   0.573   4.311   2.118 -0.0110  0.0948  0.1508
   31MOL   C68331343   0.629   4.424   2.174  0.0266 -0.2877 -0.3119
   31MOL   C68431344   0.551   4.527   2.229 -0.4498 -0.2058 -0.5098
   31MOL   C68531345   0.615   4.652   2.284  0.2596  0.0217 -0.6864
   31MOL   C68631346   0.415   4.500   2.251  0.2330  0.0187  0.0684
   31MOL   C68731347   0.353   4.382   2.203  0.2164  0.3408  0.0148
   31MOL   C68831348   0.212   4.044   1.971  0.1565  0.8838  0.9244
   31MOL   C68931349   0.088   3.977   1.982 -0.5603 -0.0866 -0.5006
   31MOL   C69031350   7.696   3.771   2.049  0.3466 -0.7735  0.0658
   31MOL   C69131351   7.614   3.705   1.957 -0.1211 -0.0918 -0.1200
   31MOL   C69231352   7.472   3.658   1.490  0.5960  0.3004 -0.5818
   31MOL   C69331353   7.420   3.709   1.369 -0.1006 -0.1375 -0.4198
   31MOL   H69431354   7.294   3.981   1.234  2.1795  1.1011 -0.9527
   31MOL   H69531355   7.362   4.035   1.457 -0.0788  0.4305 -0.0567
   31MOL   H69631356   7.434   3.954   1.665  0.5555  0.4342  0.0600
   31MOL   H69731357   7.504   3.598   1.728 -1.7558 -0.1202 -1.4146
   31MOL   H69831358   7.694   3.897   1.686 -0.7738 -1.6375 -0.9066
   31MOL   H69931359   7.838   4.008   1.858  0.6562 -0.5588  1.2872
   31MOL   H70031360   7.811   3.933   2.200 -0.3374  2.2614 -0.7460
   31MOL   H70131361   0.004   4.082   2.299 -0.0831  1.9241 -1.2491
   31MOL   H70231362   0.230   4.161   2.286 -1.0917  0.7247  0.3919
   31MOL   H70331363   0.451   4.131   2.012 -0.2396 -0.6647 -0.0164
   31MOL   H70431364   0.629   4.245   2.054  1.8295  0.4206  1.3686
   31MOL   H70531365   0.734   4.448   2.163 -0.4022  1.6666 -0.4124
   31MOL   H70631366   0.719   4.624   2.303 -0.0309 -1.0941 -0.7285
   31MOL   H70731367   0.574   4.674   2.383  0.0332 -1.3095 -0.4748
   31MOL   H70831368   0.351   4.577   2.290 -1.5888 -0.9739 -0.9099
   31MOL   H70931369   0.246   4.364   2.207  0.5243 -1.5344  0.5124
   31MOL   H71031370   0.275   4.040   1.884 -1.5513  2.0826 -0.4225
   31MOL   H71131371   0.059   3.912   1.901 -1.4484 -1.6483  1.0336
   31MOL   H71231372   7.709   3.730   2.148  1.6844 -0.9756 -0.1792
   31MOL   H71331373   7.555   3.617   1.977  0.3915 -0.8276 -1.8146
   31MOL   H71431374   7.510   3.557   1.495  1.8365  0.7988  0.2454
   31MOL   H71531375   7.416   3.639   1.286 -0.7082 -0.8905  0.2339
   31MOL   N71631376   0.588   4.767   2.195  0.0868  0.1427  0.1912
   31MOL   C71731377   0.693   4.852   2.160 -0.4587  0.4428  0.5318
   31MOL   C71831378   0.650   4.979   2.123  0.1816 -0.2328  0.0366
   31MOL   C71931379   0.746   5.086   2.098  0.4621  0.1879 -0.6785
   31MOL   C72031380   0.884   5.053   2.108 -0.4131  0.6891 -0.3523
   31MOL   N72131381   0.974   5.153   2.076  0.5927  0.5442  0.6486
   31MOL   C72231382   0.984   5.287   2.102  0.0521 -0.1185  0.2188
   31MOL   C72331383   0.898   5.345   2.202 -0.0536 -0.1246 -0.5278
   31MOL   C72431384   0.902   5.483   2.233 -0.6024 -0.5123 -0.6083
   31MOL   C72531385   0.995   5.567   2.167  0.4774  0.1934  0.1011
   31MOL   N72631386   0.995   5.698   2.199 -0.3360 -0.9838  0.4990
   31MOL   C72731387   1.096   5.792   2.192  0.2226  0.5484 -0.2424
   31MOL   C72831388   1.062   5.924   2.171 -0.2762 -0.1864  0.6939
   31MOL   C72931389   1.165   6.018   2.169 -0.1905 -0.0705  0.1073
   31MOL   C73031390   1.301   5.987   2.199  0.7895  0.2896 -0.7788
   31MOL   N73131391   1.396   6.091   2.198 -0.1984 -0.0166 -0.2004
   31MOL   C73231392   1.492   6.127   2.290 -0.0228 -0.0415 -0.7224
   31MOL   C73331393   1.569   6.239   2.260  0.2278 -0.7667 -0.0273
   31MOL   C73431394   1.675   6.284   2.339  0.1906  0.4915 -0.2438
   31MOL   C73531395   1.703   6.208   2.453  0.0669 -0.2567 -0.0686
   31MOL   C73631396   1.827   6.240   2.539  0.0616 -0.1261 -0.7043
   31MOL   C73731397   1.624   6.104   2.495  0.4867 -0.1885 -0.4043
   31MOL   C73831398   1.514   6.064   2.410  0.5543 -0.0813 -0.3354
   31MOL   C73931399   1.330   5.851   2.227 -0.0812 -0.1153 -0.0581
   31MOL   C74031400   1.228   5.761   2.232 -0.0332 -0.1438  0.2316
   31MOL   C74131401   1.076   5.512   2.075  0.0610  0.6560  0.3249
   31MOL   C74231402   1.071   5.376   2.035 -0.0924 -0.3647 -0.2844
   31MOL   C74331403   0.926   4.923   2.140 -0.5078  0.4713 -0.7353
   31MOL   C74431404   0.830   4.820   2.159 -0.2230  0.4264  0.0028
   31MOL   H74531405   0.490   4.788   2.185 -0.1063 -0.0701  1.5739
   31MOL   H74631406   0.543   4.990   2.120  0.4422  3.4129  1.8729
   31MOL   H74731407   0.722   5.184   2.060  2.9662  0.6866 -1.0482
   31MOL   H74831408   1.045   5.115   2.015  0.0445 -0.3889  0.5815
   31MOL   H74931409   0.822   5.283   2.250 -1.1060  1.1941 -0.4696
   31MOL   H75031410   0.831   5.528   2.302 -0.9296 -1.9742  0.0315
   31MOL   H75131411   0.905   5.741   2.214  1.0115  1.7741  1.1272
   31MOL   H75231412   0.962   5.951   2.140 -1.3432  0.1335  4.2560
   31MOL   H75331413   1.132   6.120   2.153 -0.7570 -0.3763 -0.6559
   31MOL   H75431414   1.402   6.141   2.110  2.0377  1.4369  0.7500
   31MOL   H75531415   1.549   6.301   2.174  0.9299 -0.2029  0.2106
   31MOL   H75631416   1.735   6.368   2.308 -1.8598  1.0668 -2.7988
   31MOL   H75731417   1.807   6.265   2.643  0.9392  0.0284 -0.5692
   31MOL   H75831418   1.881   6.323   2.494 -0.6621  0.1798 -1.0172
   31MOL   H75931419   1.648   6.054   2.588  1.4305 -0.1906 -0.6426
   31MOL   H76031420   1.458   5.977   2.442  2.9969 -1.9126 -0.8556
   31MOL   H76131421   1.430   5.832   2.264 -0.0274  1.9540  0.8875
   31MOL   H76231422   1.257   5.660   2.260  0.7032  0.6591  2.4698
   31MOL   H76331423   1.148   5.572   2.022 -1.7240 -0.2814 -3.3820
   31MOL   H76431424   1.144   5.328   1.972  0.4548 -0.2063  0.2202
   31MOL   H76531425   1.030   4.901   2.156 -0.9965 -0.5190  1.2520
   31MOL   H76631426   0.867   4.722   2.184  1.5520  1.1306  0.2039
   31MOL   N76731427   1.922   6.131   2.561  0.0257 -0.2058 -0.4642
   31MOL   C76831428   2.012   6.091   2.458  0.9099 -0.0091 -0.6608
   31MOL   C76931429   2.136   6.028   2.489  0.2554 -0.8123  0.1991
   31MOL   C77031430   2.225   5.984   2.398 -0.2999  0.0020 -0.2050
   31MOL   C77131431   2.205   6.009   2.259 -0.0857  0.2533 -0.3386
   31MOL   N77231432   2.299   5.975   2.158  0.7801  0.3534 -0.0339
   31MOL   C77331433   2.292   5.884   2.060  0.3962 -0.1688  0.2716
   31MOL   C77431434   2.167   5.819   2.034  0.1709 -0.3222  0.3009
   31MOL   C77531435   2.174   5.703   1.953 -0.1670 -0.4743 -0.2777
   31MOL   C77631436   2.289   5.658   1.884 -0.2971 -0.1215  0.0458
   31MOL   N77731437   2.292   5.538   1.810  0.7478  0.0746 -0.0062
   31MOL   C77831438   2.383   5.489   1.718 -0.5741 -0.8099 -0.3130
   31MOL   C77931439   2.465   5.571   1.639  0.3249  0.5740 -0.3026
   31MOL   C78031440   2.562   5.509   1.554  0.5661  0.0664  0.0931
   31MOL   C78131441   2.565   5.368   1.543  0.3405  0.4298 -0.2420
   31MOL   N78231442   2.664   5.312   1.471  0.5550  0.3627  0.6126
   31MOL   C78331443   2.790   5.273   1.518  0.4029  0.3175  0.2315
   31MOL   C78431444   2.821   5.278   1.654 -0.5824 -0.0319  0.2659
   31MOL   C78531445   2.952   5.247   1.699 -0.9180  0.0498 -0.4482
   31MOL   C78631446   3.045   5.205   1.601 -0.2198  0.2194  0.1978
   31MOL   C78731447   3.187   5.177   1.642  0.3108  0.6721 -0.1489
   31MOL   C78831448   3.009   5.194   1.463 -0.5574  0.0526 -0.1453
   31MOL   C78931449   2.880   5.224   1.419 -0.1993 -0.7081 -0.1371
   31MOL   C79031450   2.477   5.284   1.620  0.1882  0.5197  0.0990
   31MOL   C79131451   2.386   5.349   1.708  0.6982  0.4945 -0.0114
   31MOL   C79231452   2.406   5.729   1.907 -0.4152  0.2649 -0.2744
   31MOL   C79331453   2.409   5.835   1.999 -0.2352 -0.0619 -0.1478
   31MOL   C79431454   2.082   6.057   2.223  0.9983 -0.0216  0.8034
   31MOL   C79531455   1.983   6.102   2.320  0.3211  0.8533  0.4696
   31MOL   H79631456   1.924   6.092   2.654  0.8573  1.1674  0.1063
   31MOL   H79731457   2.156   6.007   2.593 -2.0554 -1.4194  0.5530
   31MOL   H79831458   2.317   5.936   2.426 -0.2721 -0.2456 -0.7028
   31MOL   H79931459   2.392   5.989   2.194  0.0212 -2.8452  3.5242
   31MOL   H80031460   2.080   5.860   2.083 -1.1666 -0.5713 -1.8388
   31MOL   H80131461   2.085   5.641   1.946  0.3991 -1.3497  0.1084
   31MOL   H80231462   2.201   5.496   1.798  0.8890 -0.1713 -0.2126
   31MOL   H80331463   2.462   5.679   1.637  1.1792  0.6264  0.8274
   31MOL   H80431464   2.619   5.565   1.481  1.4651 -0.3625  0.4500
   31MOL   H80531465   2.645   5.345   1.377  1.5699 -0.1727  0.2146
   31MOL   H80631466   2.760   5.334   1.724 -0.6902 -1.6385  1.4873
   31MOL   H80731467   2.980   5.270   1.801 -1.8417 -2.4793  0.4152
   31MOL   H80831468   3.232   5.274   1.661 -1.7676  1.4046  1.1504
   31MOL   H80931469   3.245   5.143   1.556 -1.8405  1.5859 -2.0156
   31MOL   H81031470   3.084   5.162   1.393  0.1809  2.9709 -0.7708
   31MOL   H81131471   2.854   5.246   1.316 -1.2225 -1.9049 -0.1486
   31MOL   H81231472   2.484   5.178   1.601 -1.1411  0.6446 -1.1281
   31MOL   H81331473   2.323   5.293   1.775 -0.6638 -1.2171 -2.5998
   31MOL   H81431474   2.499   5.700   1.861  0.4832  1.8901  0.4866
   31MOL   H81531475   2.505   5.870   2.033  0.3138  0.4448 -2.1749
   31MOL   H81631476   2.063   6.080   2.120 -3.7496  1.6017  1.9341
   31MOL   H81731477   1.887   6.134   2.284  0.2054  0.9733  0.8781
   31MOL   N81831478   3.211   5.080   1.744  0.2200  0.0766 -1.5149
   31MOL   C81931479   3.266   5.123   1.869 -0.1277 -0.0025  0.4052
   31MOL   C82031480   3.384   5.201   1.876  0.4326  1.0541  0.1486
   31MOL   C82131481   3.428   5.247   2.000 -0.5335 -0.2321 -0.6131
   31MOL   C82231482   3.375   5.192   2.123  0.3118  0.4277  0.4104
   31MOL   N82331483   3.437   5.229   2.248  0.1407  0.2969  0.1626
   31MOL   C82431484   3.407   5.181   2.377  0.0893 -0.7691  0.3001
   31MOL   C82531485   3.506   5.144   2.477  0.0195 -0.2016 -0.5884
   31MOL   C82631486   3.473   5.110   2.605  0.8619  0.6700  0.1456
   31MOL   C82731487   3.339   5.095   2.636 -0.5475  0.6843 -0.6387
   31MOL   N82831488   3.308   5.039   2.760  0.2932 -0.1063  0.5366
   31MOL   C82931489   3.369   4.928   2.820 -0.2260  0.3951 -0.2065
   31MOL   C83031490   3.324   4.901   2.953 -0.4825 -0.0728 -0.8034
   31MOL   C83131491   3.373   4.791   3.019  0.2143 -0.4623 -0.3478
   31MOL   C83231492   3.468   4.705   2.954 -0.5698  0.8855 -0.0029
   31MOL   N83331493   3.500   4.598   3.035 -0.0083  1.1993  0.0052
   31MOL   C83431494   3.629   4.548   3.049 -0.1782  0.0953 -0.3308
   31MOL   C83531495   3.696   4.570   3.171 -0.4464  0.0092  0.1775
   31MOL   C83631496   3.833   4.536   3.177 -0.1840 -0.6697  0.5777
   31MOL   C83731497   3.891   4.462   3.067  0.6508 -0.7187 -0.1178
   31MOL   C83831498   4.033   4.438   3.066 -1.0123  0.4006  0.1505
   31MOL   C83931499   3.811   4.431   2.953  0.0315  0.0100  0.1599
   31MOL   C84031500   3.684   4.480   2.937 -0.4058 -0.4508 -0.1081
   31MOL   C84131501   3.508   4.729   2.822  0.2023 -0.8136  0.3198
   31MOL   C84231502   3.463   4.845   2.756 -0.3564  0.2631  0.5300
   31MOL   C84331503   3.234   5.147   2.548  0.2081  0.0366  1.0193
   31MOL   C84431504   3.268   5.187   2.416 -0.0766 -0.3198  0.0039
   31MOL   C84531505   3.262   5.106   2.113  0.2528 -0.1651  0.7682
   31MOL   C84631506   3.203   5.082   1.987  0.0016  0.5974 -0.1187
   31MOL   H84731507   3.137   5.012   1.753 -0.3088  0.8280  0.0571
   31MOL   H84831508   3.426   5.240   1.785  0.4140 -0.1951 -0.4090
   31MOL   H84931509   3.515   5.312   2.000 -2.1712  2.1042  1.9380
   31MOL   H85031510   3.530   5.267   2.245  1.1647 -2.0103  1.3010
   31MOL   H85131511   3.612   5.147   2.453  0.8047  0.1729  2.6375
   31MOL   H85231512   3.561   5.097   2.667  0.9356  2.5809  0.4649
   31MOL   H85331513   3.212   5.044   2.793  0.7448 -0.3870  1.9127
   31MOL   H85431514   3.262   4.967   3.012  0.4878 -2.1708  2.7116
   31MOL   H85531515   3.336   4.772   3.118 -0.5536  3.1576  0.1057
   31MOL   H85631516   3.446   4.606   3.120 -0.3365 -0.2882 -0.0453
   31MOL   H85731517   3.645   4.621   3.252  0.3435  1.8356 -0.4465
   31MOL   H85831518   3.894   4.568   3.261  0.2603 -0.0548  0.0196
   31MOL   H85931519   4.060   4.363   3.140  1.0204  0.8075 -0.1520
   31MOL   H86031520   4.095   4.526   3.087  0.5513 -0.5516 -0.3759
   31MOL   H86131521   3.845   4.370   2.870  0.0224  1.5978 -1.0356
   31MOL   H86231522   3.618   4.470   2.852  0.9033  0.8538 -1.3002
   31MOL   H86331523   3.574   4.658   2.776  0.0012  0.5145 -2.0944
   31MOL   H86431524   3.508   4.870   2.661 -0.0799  1.6541  1.0158
   31MOL   H86531525   3.133   5.144   2.585 -0.3397 -1.6982 -0.5341
   31MOL   H86631526   3.190   5.219   2.349 -0.5064 -0.0878  0.6071
   31MOL   H86731527   3.223   5.062   2.204  1.3448  0.1832  1.4072
   31MOL   H86831528   3.110   5.028   1.983 -0.4435  1.2625  0.9734
   31MOL   N86931529   4.085   4.388   2.935  0.3738  0.2047 -0.7381
   31MOL   C87031530   4.222   4.360   2.920 -0.7386  0.2328 -0.1482
   31MOL   C87131531   4.259   4.295   2.800 -0.1252 -0.8190  0.2660
   31MOL   C87231532   4.393   4.266   2.774 -0.6031  0.5469  0.5308
   31MOL   C87331533   4.496   4.297   2.867 -0.5245 -0.1510  0.5604
   31MOL   N87431534   4.622   4.246   2.834  0.2881 -0.2719 -0.4900
   31MOL   C87531535   4.693   4.258   2.717 -0.3006 -1.9487  0.3496
   31MOL   C87631536   4.662   4.364   2.627  0.3145 -0.0381  0.3821
   31MOL   C87731537   4.745   4.386   2.515 -0.1633 -0.5267  0.3172
   31MOL   C87831538   4.856   4.307   2.502  0.6320  0.1229 -0.6646
   31MOL   N87931539   4.944   4.344   2.405 -0.4426 -0.5285  0.7277
   31MOL   C88031540   5.007   4.251   2.322  0.0047 -0.0132 -0.2556
   31MOL   C88131541   4.936   4.141   2.263  0.0905  0.2399 -0.1971
   31MOL   C88231542   5.003   4.045   2.191  0.1635 -0.1767  0.1658
   31MOL   C88331543   5.141   4.051   2.171 -1.0196 -0.0687 -0.1931
   31MOL   N88431544   5.220   3.947   2.122 -0.3094 -0.0008 -0.1211
   31MOL   C88531545   5.176   3.847   2.041  0.0484  0.3569  0.0395
   31MOL   C88631546   5.223   3.720   2.047 -0.2435  0.3150 -0.0381
   31MOL   C88731547   5.191   3.624   1.951 -0.0602 -0.2311  0.4741
   31MOL   C88831548   5.103   3.657   1.845 -0.0206 -0.1362 -0.4454
   31MOL   C88931549   5.061   3.550   1.749  0.2386  0.4572 -0.1526
   31MOL   C89031550   5.055   3.792   1.834 -0.1221  0.9254 -0.4587
   31MOL   C89131551   5.095   3.885   1.935 -0.4660  0.0455 -0.5894
   31MOL   C89231552   5.213   4.164   2.226  0.6956 -0.1966  0.1941
   31MOL   C89331553   5.142   4.265   2.296  0.3617  0.3635 -0.7006
   31MOL   C89431554   4.883   4.194   2.587  0.2062 -0.3346 -0.6329
   31MOL   C89531555   4.806   4.176   2.700  0.3659  0.2034 -0.4096
   31MOL   C89631556   4.453   4.356   2.993 -0.0748 -0.1599  0.3597
   31MOL   C89731557   4.317   4.382   3.021  0.0124  0.0694  0.2349
   31MOL   H89831558   4.021   4.352   2.865 -0.1405 -3.1481  1.3362
   31MOL   H89931559   4.173   4.272   2.738 -0.6600  1.7454 -0.0266
   31MOL   H90031560   4.412   4.221   2.677 -1.2370  0.5929  0.3847
   31MOL   H90131561   4.678   4.203   2.905 -0.4221  2.0510  1.5424
   31MOL   H90231562   4.584   4.436   2.645  0.9223  0.3523  1.4848
   31MOL   H90331563   4.715   4.458   2.441 -1.9460 -2.9233 -1.3792
   31MOL   H90431564   4.933   4.435   2.362 -1.2363  0.6856  3.3400
   31MOL   H90531565   4.831   4.120   2.275  0.6634 -1.9136  1.1548
   31MOL   H90631566   4.950   3.954   2.163 -2.0970  1.2166 -0.1875
   31MOL   H90731567   5.290   3.917   2.188  0.3329 -0.4375 -0.9881
   31MOL   H90831568   5.296   3.705   2.126 -0.2906  2.3287  0.4097
   31MOL   H90931569   5.228   3.523   1.957  2.4402  0.6775  0.8578
   31MOL   H91031570   5.093   3.448   1.770  0.3520  0.1918 -1.5572
   31MOL   H91131571   5.103   3.578   1.652 -1.3886  0.8033 -0.7726
   31MOL   H91231572   4.988   3.826   1.756 -1.5923 -0.6877  0.0777
   31MOL   H91331573   5.087   3.986   1.897 -0.3504 -0.0791 -0.9436
   31MOL   H91431574   5.319   4.166   2.206  0.6632  1.8361  0.1629
   31MOL   H91531575   5.187   4.349   2.347  0.4405 -0.9177  1.3702
   31MOL   H91631576   4.974   4.138   2.576  0.3921  0.2111 -1.9104
   31MOL   H91731577   4.837   4.102   2.773 -1.2278  0.4464  0.5160
   31MOL   H91831578   4.529   4.390   3.062 -0.2473  2.1373 -0.5379
   31MOL   H91931579   4.296   4.426   3.117 -2.8734 -0.5183 -0.0801
   31MOL   N92031580   4.911   3.545   1.737  0.2012  0.2585 -0.3506
   31MOL   C92131581   4.831   3.486   1.837  0.6418 -0.0977  0.1504
   31MOL   C92231582   4.879   3.395   1.933  0.6105  0.3850 -0.7893
   31MOL   C92331583   4.793   3.328   2.016  0.4457 -0.3552 -0.4033
   31MOL   C92431584   4.656   3.353   2.022 -0.3602 -0.4081 -0.1056
   31MOL   N92531585   4.572   3.284   2.105  0.4656 -0.4975  0.2663
   31MOL   C92631586   4.602   3.214   2.222 -0.7476 -0.1771  0.4208
   31MOL   C92731587   4.696   3.259   2.326  0.6559 -0.3045  0.1056
   31MOL   C92831588   4.715   3.177   2.439 -0.1465  0.7743  0.5956
   31MOL   C92931589   4.648   3.052   2.444 -0.3990  0.6240 -0.6981
   31MOL   N93031590   4.667   2.970   2.560  1.0625 -0.0937 -0.2065
   31MOL   C93131591   4.682   2.831   2.552  0.2074  0.1564  0.5576
   31MOL   C93231592   4.655   2.749   2.669  0.0008 -0.5482  0.3805
   31MOL   C93331593   4.664   2.606   2.656  0.1774 -0.8602  0.1153
   31MOL   C93431594   4.695   2.553   2.531 -0.5655 -0.5635  0.4981
   31MOL   N93531595   4.717   2.415   2.503  0.8451 -0.0506 -0.5654
   31MOL   C93631596   4.799   2.327   2.577  0.8037 -0.0383  0.0256
   31MOL   C93731597   4.813   2.197   2.524 -0.0739  0.2826  0.0400
   31MOL   C93831598   4.903   2.101   2.577 -0.3024 -0.3562 -0.1279
   31MOL   C93931599   4.996   2.146   2.671  0.0278 -0.7907  0.4664
   31MOL   C94031600   5.104   2.056   2.723  0.4054  0.3472 -0.1691
   31MOL   C94131601   4.985   2.276   2.729  0.1992  0.1248  0.0095
   31MOL   C94231602   4.881   2.367   2.684  0.6841  0.1684 -0.5237
   31MOL   C94331603   4.712   2.633   2.419  0.0466  0.9152  0.2062
   31MOL   C94431604   4.721   2.768   2.432  1.0022  0.5031  0.1047
   31MOL   C94531605   4.561   3.012   2.339  0.4574  0.1068 -0.1363
   31MOL   C94631606   4.528   3.090   2.233 -0.0680 -0.6108 -0.0186
   31MOL   C94731607   4.605   3.442   1.922  0.1825 -0.2457 -0.2561
   31MOL   C94831608   4.693   3.509   1.833  0.0997 -0.8391  0.4717
   31MOL   H94931609   4.872   3.611   1.671  0.1459  0.9032  0.3174
   31MOL   H95031610   4.984   3.376   1.948  0.2717 -0.3992  0.7192
   31MOL   H95131611   4.824   3.261   2.094  2.4259  0.6656 -0.2670
   31MOL   H95231612   4.482   3.267   2.061  0.6204  0.4841 -0.4395
   31MOL   H95331613   4.755   3.349   2.322 -1.4164  1.2833  2.9044
   31MOL   H95431614   4.772   3.204   2.527 -0.5171 -1.4319  1.5584
   31MOL   H95531615   4.726   2.998   2.637  0.2127  0.8998  0.0907
   31MOL   H95631616   4.636   2.795   2.765  0.3333 -1.3858  0.8584
   31MOL   H95731617   4.638   2.536   2.734  0.3757 -1.6320 -0.4992
   31MOL   H95831618   4.709   2.381   2.408 -0.6816 -0.4614 -0.2989
   31MOL   H95931619   4.756   2.158   2.441  0.6370  0.6851 -0.6477
   31MOL   H96031620   4.897   2.000   2.539  0.7785 -0.1599 -0.8063
   31MOL   H96131621   5.063   1.998   2.806  0.2411  1.0373  0.2322
   31MOL   H96231622   5.173   2.120   2.777 -0.7886  0.7323  0.9480
   31MOL   H96331623   5.053   2.305   2.808  0.0394  0.9855 -0.1670
   31MOL   H96431624   4.890   2.469   2.720 -0.4849  0.5354 -1.2646
   31MOL   H96531625   4.735   2.599   2.319 -0.6591  2.0767 -0.3718
   31MOL   H96631626   4.751   2.830   2.349 -3.3358 -1.0036 -2.7727
   31MOL   H96731627   4.502   2.923   2.353 -0.9455  0.8666 -1.0969
   31MOL   H96831628   4.458   3.072   2.153  0.5554  1.3942 -1.0531
   31MOL   H96931629   4.498   3.454   1.922  0.2177  0.0848  0.2205
   31MOL   H97031630   4.644   3.566   1.755  1.4017 -0.8560 -0.3778
   31MOL   N97131631   5.160   1.965   2.624 -0.5205  0.3529 -0.0082
   31MOL   C97231632   5.302   1.948   2.635 -0.2556  0.1071 -0.7508
   31MOL   C97331633   5.372   1.919   2.514  0.0709 -0.5792  0.3296
   31MOL   C97431634   5.511   1.892   2.522  0.3248  0.3030  0.1789
   31MOL   C97531635   5.588   1.910   2.640 -0.0706  0.7473 -0.0874
   31MOL   N97631636   5.726   1.896   2.630 -0.2830  0.5146  0.0664
   31MOL   C97731637   5.819   1.935   2.723 -0.5150 -0.1070 -0.3401
   31MOL   C97831638   5.817   2.061   2.776 -0.6499  0.1362  0.0426
   31MOL   C97931639   5.914   2.093   2.877  0.3162  0.0356  1.4163
   31MOL   C98031640   6.019   2.006   2.910  0.5117  0.5531 -0.0831
   31MOL   N98131641   6.112   2.022   3.012 -0.0432 -0.2065 -0.3538
   31MOL   C98231642   6.154   2.141   3.082 -0.5485  0.3174 -0.1646
   31MOL   C98331643   6.206   2.118   3.212  0.4029 -0.7377 -0.5638
   31MOL   C98431644   6.263   2.230   3.281 -0.2899 -0.3224 -0.2224
   31MOL   C98531645   6.282   2.350   3.208 -0.4053 -0.6482  0.0690
   31MOL   N98631646   6.337   2.461   3.272  0.3612 -0.2426 -0.4264
   31MOL   C98731647   6.405   2.463   3.396  0.1761 -0.3810  1.0444
   31MOL   C98831648   6.372   2.561   3.491  0.7159 -0.4425  0.0190
   31MOL   C98931649   6.460   2.584   3.606 -0.7103 -0.1063 -0.5218
   31MOL   C99031650   6.562   2.490   3.632 -0.2940  0.2268 -1.0679
   31MOL   C99131651   6.642   2.492   3.761 -0.1674  0.1236 -0.3391
   31MOL   C99231652   6.592   2.392   3.532  0.3593  0.8790 -0.1811
   31MOL   C99331653   6.523   2.385   3.414  0.0880 -0.0815  0.0563
   31MOL   C99431654   6.233   2.370   3.073  0.5709 -0.5118  0.2562
   31MOL   C99531655   6.169   2.263   3.013  0.2999  0.1308  0.2911
   31MOL   C99631656   6.023   1.885   2.844  0.1644 -0.0382  0.3618
   31MOL   C99731657   5.925   1.851   2.750 -0.0894  0.3699  0.0089
   31MOL   C99831658   5.518   1.924   2.760 -0.3797 -1.2621 -0.2809
   31MOL   C99931659   5.379   1.945   2.755  0.6094 -0.0954  0.4201
   31MOL     H131660   5.113   1.947   2.536 -0.6002 -0.2263  0.1510
   31MOL     H231661   5.314   1.907   2.424  0.8237 -2.9491  0.1026
   31MOL     H331662   5.558   1.888   2.425 -0.1002  1.1048 -0.0602
   31MOL     H431663   5.760   1.839   2.554  0.5965 -0.4605  1.1641
   31MOL     H531664   5.743   2.137   2.757 -0.4363  0.2830 -0.1853
   31MOL     H631665   5.906   2.191   2.922  2.6008  1.2503 -0.7419
   31MOL     H731666   6.131   1.931   3.052  1.8030 -0.8992 -2.6978
   31MOL     H831667   6.209   2.017   3.250  0.2499 -0.7309 -0.5350
   31MOL     H931668   6.284   2.209   3.384 -1.5055  2.1956  0.5659
   31MOL    H1031669   6.298   2.551   3.248 -1.3379 -0.6898  0.5902
   31MOL    H1131670   6.297   2.638   3.481  0.7640 -0.3274  0.5465
   31MOL    H1231671   6.435   2.665   3.673 -2.5226 -0.4936 -0.6958
   31MOL    H1331672   6.739   2.444   3.745 -0.0620 -0.3254  1.5323
   31MOL    H1431673   6.589   2.444   3.844 -0.0801 -0.6543 -0.7236
   31MOL    H1531674   6.670   2.318   3.546 -1.1901 -1.2015 -2.1529
   31MOL    H1631675   6.551   2.310   3.341 -0.5956 -1.1731  0.8979
   31MOL    H1731676   6.240   2.464   3.021 -0.0878 -1.6927 -2.0161
   31MOL    H1831677   6.122   2.263   2.916 -2.7706 -2.0449  1.6724
   31MOL    H1931678   6.097   1.809   2.862  0.9580  0.3219 -1.2434
   31MOL    H2031679   5.929   1.759   2.692  0.5534  0.5533 -0.2449
   31MOL    H2131680   5.577   1.921   2.851  0.5888 -0.1954 -0.8547
   31MOL    H2231681   5.326   1.956   2.848 -0.1790  0.5440 -0.0987
   31MOL    H2331682   6.647   2.598   3.784 -2.0360  0.4093 -1.1680
   32MOL     N131683   3.350   3.906   5.998 -0.3648  0.1888  0.1397
   32MOL     C231684   3.264   3.975   6.080  0.3394  0.2616  0.2204
   32MOL     C331685   3.311   4.041   6.195  0.5103 -0.0452 -0.0226
   32MOL     C431686   3.234   4.119   6.277  0.3022 -0.3720 -0.6879
   32MOL     C531687   3.092   4.128   6.245  0.1359 -0.2094  0.3538
   32MOL     N631688   3.001   4.208   6.319 -0.1892  0.3010  0.3490
   32MOL     C731689   3.020   4.316   6.403 -0.3155  0.1765 -0.5358
   32MOL     C831690   3.111   4.416   6.367 -0.5929  0.0639  0.2020
   32MOL     C931691   3.134   4.528   6.457  0.2776  0.3158  0.4705
   32MOL    C1031692   3.053   4.535   6.574  0.5698 -0.0241 -0.7429
   32MOL    N1131693   3.080   4.648   6.655 -0.2457 -0.0626 -0.1534
   32MOL    C1231694   3.091   4.641   6.794 -0.5650  0.2300  0.5749
   32MOL    C1331695   2.977   4.603   6.876  0.2318 -0.7150  0.1418
   32MOL    C1431696   2.981   4.608   7.016  0.2720  0.7105  0.1242
   32MOL    C1531697   3.108   4.639   7.076  0.1714 -0.3855 -0.2115
   32MOL    N1631698   3.126   4.634   7.216 -0.0720  0.1588  0.2300
   32MOL    C1731699   3.025   4.655   7.312  0.5051  0.1149 -0.4490
   32MOL    C1831700   3.038   4.589   7.440  0.0207 -0.1753 -0.5715
   32MOL    C1931701   2.939   4.607   7.536 -0.0758  0.4636 -0.2784
   32MOL    C2031702   2.824   4.684   7.505  0.3736 -0.6519 -0.6529
   32MOL    C2131703   2.711   4.693   7.612 -0.0899 -0.1274  0.1130
   32MOL    C2231704   2.808   4.736   7.376 -0.2981  0.0870  0.1745
   32MOL    C2331705   2.912   4.728   7.282  0.7337  0.1950 -0.0181
   32MOL    C2431706   3.223   4.665   7.005 -0.2155  0.3240  0.4922
   32MOL    C2531707   3.213   4.669   6.868  0.1523  0.2560  0.0283
   32MOL    C2631708   2.961   4.431   6.606 -0.1884  0.4006 -0.2095
   32MOL    C2731709   2.943   4.325   6.520 -0.5608  0.4541  0.2488
   32MOL    C2831710   3.044   4.052   6.137 -0.1580  0.0390 -0.4498
   32MOL    C2931711   3.126   3.975   6.055 -0.6552  0.4107 -0.7323
   32MOL    H3031712   3.335   3.898   5.898  0.3865  2.9970 -0.2461
   32MOL    H3131713   3.417   4.036   6.218  1.2319  0.6229 -2.9640
   32MOL    H3231714   3.275   4.178   6.358 -1.9532  2.4163 -1.5046
   32MOL    H3331715   2.906   4.183   6.297  0.7345 -2.8665 -0.3028
   32MOL    H3431716   3.164   4.416   6.273 -0.0156 -1.2900  0.5185
   32MOL    H3531717   3.208   4.605   6.444 -0.5676  1.5073  2.5178
   32MOL    H3631718   3.152   4.708   6.619 -0.6005  1.1681  1.1475
   32MOL    H3731719   2.877   4.594   6.834  0.9950 -0.2233 -1.8364
   32MOL    H3831720   2.890   4.578   7.067 -1.5772  1.2351 -2.7321
   32MOL    H3931721   3.219   4.626   7.254  0.1018  0.5188 -0.1130
   32MOL    H4031722   3.122   4.525   7.460  0.9206  1.6710  1.8586
   32MOL    H4131723   2.950   4.544   7.623 -0.0149 -1.2170 -1.4724
   32MOL    H4231724   2.620   4.688   7.552  0.8785 -1.5350 -1.2791
   32MOL    H4331725   2.697   4.780   7.677  2.0564 -0.3702  0.9362
   32MOL    H4431726   2.724   4.799   7.352  0.6319  1.6310  0.8656
   32MOL    H4531727   2.903   4.783   7.189  4.1677  2.2883  0.7792
   32MOL    H4631728   3.322   4.681   7.045 -0.6611 -1.2338  2.2476
   32MOL    H4731729   3.305   4.681   6.813 -1.4222  1.6880 -2.3486
   32MOL    H4831730   2.893   4.436   6.690 -0.6986 -0.6294 -0.5574
   32MOL    H4931731   2.864   4.256   6.547  0.1212 -0.3314  0.2592
   32MOL    H5031732   2.938   4.060   6.123 -0.1046  0.0371 -0.8630
   32MOL    H5131733   3.074   3.916   5.980 -0.7140  1.9930 -1.9495
   32MOL    H5231734   3.446   3.928   6.021  0.2098 -0.2563 -1.7097
   32MOL    N5331735   2.710   4.580   7.704 -0.7887  0.6030  0.6655
   32MOL    C5431736   2.752   4.575   7.834 -0.4343 -0.1855 -0.2702
   32MOL    C5531737   2.738   4.452   7.905 -0.2923 -0.0472  0.9083
   32MOL    C5631738   2.771   4.446   0.060 -0.2608 -0.1919 -0.4463
   32MOL    C5731739   2.834   4.562   0.123  0.8211  0.1514  0.0166
   32MOL    N5831740   2.855   4.572   0.259 -0.0299  0.2208 -0.1077
   32MOL    C5931741   2.786   4.518   0.363 -0.0038 -0.4407  0.2619
   32MOL    C6031742   2.849   4.464   0.477  0.4568 -0.2744  1.0081
   32MOL    C6131743   2.771   4.420   0.585 -0.1646 -0.6923  0.4236
   32MOL    C6231744   2.631   4.412   0.579 -0.3266 -0.0876  0.4005
   32MOL    N6331745   2.539   4.365   0.676 -0.0746 -0.1142  0.0749
   32MOL    C6431746   2.568   4.280   0.781  0.5144 -0.4581 -0.3942
   32MOL    C6531747   2.507   4.294   0.905 -0.7699  0.0782  0.5494
   32MOL    C6631748   2.518   4.195   1.001  0.1165  0.1863 -0.0518
   32MOL    C6731749   2.608   4.088   0.981 -0.0448 -0.8612 -0.0946
   32MOL    N6831750   2.620   3.992   1.087 -0.7616 -0.0231  0.9106
   32MOL    C6931751   2.711   3.890   1.087  0.4637  0.1162 -0.0223
   32MOL    C7031752   2.664   3.759   1.092 -0.2813  0.0793  0.5485
   32MOL    C7131753   2.752   3.650   1.084  0.0323 -0.1071  0.1112
   32MOL    C7231754   2.890   3.670   1.069  0.2792 -0.1732  0.2658
   32MOL    C7331755   2.982   3.553   1.064 -0.8200  0.1142 -0.1533
   32MOL    C7431756   2.940   3.803   1.078  0.5198  0.6684 -0.7767
   32MOL    C7531757   2.849   3.913   1.080  0.0462 -0.1882  0.5536
   32MOL    C7631758   2.680   4.074   0.855  0.4633 -0.2303  0.0566
   32MOL    C7731759   2.661   4.178   0.758  0.1160  0.0514  0.6705
   32MOL    C7831760   2.569   4.460   0.458 -0.3346 -0.0251  0.6484
   32MOL    C7931761   2.646   4.515   0.349 -0.5532  0.5548 -0.2550
   32MOL    C8031762   2.849   4.678   0.047  0.5112  0.1873 -0.4476
   32MOL    C8131763   2.809   4.690   7.899 -0.5670 -0.3390 -0.4650
   32MOL    H8231764   2.697   4.490   7.661  0.3416 -1.2119  3.9111
   32MOL    H8331765   2.712   4.365   7.847  0.3914  0.1321  0.3234
   32MOL    H8431766   2.769   4.351   0.110 -3.1237  0.2389  0.3864
   32MOL    H8531767   2.927   4.632   0.296 -0.0694 -0.9285  1.9203
   32MOL    H8631768   2.956   4.480   0.479  0.4752 -0.4517  1.6491
   32MOL    H8731769   2.822   4.383   0.673  2.5694  1.1261 -0.3368
   32MOL    H8831770   2.445   4.400   0.678 -0.1601 -0.3139  3.9912
   32MOL    H8931771   2.439   4.377   0.922  1.4473  1.9026  0.8243
   32MOL    H9031772   2.462   4.203   1.093 -0.0471  1.5047 -0.2689
   32MOL    H9131773   2.528   3.966   1.119 -0.6993  0.4634  1.4815
   32MOL    H9231774   2.556   3.752   1.086 -0.2738  0.4959 -0.1279
   32MOL    H9331775   2.706   3.553   1.093 -0.5290  0.2506  1.3159
   32MOL    H9431776   3.080   3.590   1.092 -0.1279  0.0437 -2.3405
   32MOL    H9531777   3.002   3.521   0.962  0.9482 -1.3525  0.6218
   32MOL    H9631778   3.048   3.808   1.075  0.5613 -0.7532 -2.0588
   32MOL    H9731779   2.885   4.015   1.083  1.5073 -0.7279  1.8482
   32MOL    H9831780   2.750   3.993   0.839  0.8359  0.1060 -0.0215
   32MOL    H9931781   2.708   4.179   0.661  0.2761  0.8060  0.7531
   32MOL   H10031782   2.464   4.446   0.439 -0.2120  0.5942 -0.5460
   32MOL   H10131783   2.601   4.528   0.252 -0.8372  0.5277 -0.1260
   32MOL   H10231784   2.890   4.772   0.081  1.5127  0.1314 -1.4361
   32MOL   H10331785   2.827   4.783   7.847 -0.2758 -0.7020 -1.0296
   32MOL   N10431786   2.945   3.434   1.138 -0.5363 -0.6498  0.5006
   32MOL   C10531787   2.889   3.323   1.078 -0.3874  0.0575 -0.6794
   32MOL   C10631788   2.918   3.195   1.128  1.1915 -0.1166 -0.3546
   32MOL   C10731789   2.865   3.080   1.063  0.6986  0.0472  0.2118
   32MOL   C10831790   2.769   3.092   0.959  0.1286  0.3936 -0.2897
   32MOL   N10931791   2.698   2.974   0.922 -0.1831  0.4973  0.2059
   32MOL   C11031792   2.612   2.957   0.814 -0.1603  0.3680  0.0277
   32MOL   C11131793   2.646   3.005   0.684 -0.8230  0.3924  0.5868
   32MOL   C11231794   2.552   2.997   0.583  0.8590 -0.2542 -0.0955
   32MOL   C11331795   2.430   2.927   0.605  0.1354 -0.1202 -0.4953
   32MOL   N11431796   2.341   2.907   0.500 -0.0598 -0.4014  0.0589
   32MOL   C11531797   2.386   2.875   0.371 -0.4227  0.6951  0.2464
   32MOL   C11631798   2.312   2.900   0.255 -0.4846  0.1248 -0.3429
   32MOL   C11731799   2.364   2.879   0.126  0.2939 -0.2843 -0.1138
   32MOL   C11831800   2.486   2.813   0.104 -0.4564  0.2342 -0.3964
   32MOL   N11931801   2.542   2.799   7.961  0.1615  0.0085 -0.1946
   32MOL   C12031802   2.478   2.737   7.850  0.1303 -0.5697 -0.3940
   32MOL   C12131803   2.533   2.769   7.726  0.4843  0.5122  0.3201
   32MOL   C12231804   2.468   2.726   7.608 -0.2018  0.1019  0.3843
   32MOL   C12331805   2.348   2.653   7.616 -0.3060  0.2233  0.0382
   32MOL   C12431806   2.275   2.598   7.504  0.9088 -0.2484  0.2863
   32MOL   C12531807   2.296   2.619   7.742  0.2421  0.1551 -0.9818
   32MOL   C12631808   2.359   2.664   7.858  0.1528 -0.6786 -0.1361
   32MOL   C12731809   2.555   2.762   0.220  0.1613  0.7921  0.2936
   32MOL   C12831810   2.505   2.803   0.351 -0.6399  0.3335  0.8557
   32MOL   C12931811   2.393   2.882   0.734 -0.4644  0.4902  0.2402
   32MOL   C13031812   2.488   2.886   0.836 -0.5705 -0.3922 -0.2597
   32MOL   C13131813   2.750   3.219   0.905  0.2203  0.4956 -0.0527
   32MOL   C13231814   2.806   3.330   0.965  0.2329  0.1547 -0.1983
   32MOL   H13331815   2.979   3.416   1.232  0.5649 -1.0815  0.0314
   32MOL   H13431816   2.981   3.186   1.215 -1.0354 -1.3581  1.2045
   32MOL   H13531817   2.882   2.990   1.120  2.0293 -1.3408 -2.2773
   32MOL   H13631818   2.683   2.906   0.995 -4.6299 -2.2851 -2.9572
   32MOL   H13731819   2.739   3.057   0.671 -1.1775  0.7283 -0.6341
   32MOL   H13831820   2.566   3.041   0.486  0.0992 -0.1538 -0.1581
   32MOL   H13931821   2.247   2.871   0.509 -0.4983  0.1888 -1.8915
   32MOL   H14031822   2.214   2.944   0.268  0.4843  1.6017  2.4781
   32MOL   H14131823   2.303   2.910   0.043  1.4101  0.1789 -0.7708
   32MOL   H14231824   2.642   2.792   7.973  0.2264  1.7034  0.4281
   32MOL   H14331825   2.624   2.827   7.718 -0.0709  1.0852 -2.3248
   32MOL   H14431826   2.509   2.747   7.510  2.3120 -0.7182  1.2293
   32MOL   H14531827   2.167   2.601   7.515  0.7013 -3.0207 -0.5405
   32MOL   H14631828   2.295   2.491   7.508 -0.1993 -0.4267  1.1270
   32MOL   H14731829   2.208   2.558   7.754 -0.0368  0.7906  0.2704
   32MOL   H14831830   2.321   2.648   7.958 -0.9852 -0.3894 -0.5150
   32MOL   H14931831   2.655   2.721   0.222 -0.3259 -0.5976 -2.2082
   32MOL   H15031832   2.568   2.778   0.435  1.8820  0.4480 -0.9333
   32MOL   H15131833   2.305   2.821   0.747 -0.8538  0.6223 -1.6181
   32MOL   H15231834   2.466   2.832   0.927 -2.0090  0.6775  0.0481
   32MOL   H15331835   2.685   3.240   0.822 -1.2264 -3.5531 -0.0425
   32MOL   H15431836   2.796   3.426   0.916  0.9944  0.3770  0.0733
   32MOL   N15531837   2.299   2.653   7.379  0.3962 -0.4207  0.3217
   32MOL   C15631838   2.248   2.780   7.341 -0.4745 -0.5084  0.1188
   32MOL   C15731839   2.303   2.833   7.226 -0.2906 -0.2348  0.3076
   32MOL   C15831840   2.255   2.953   7.174 -0.2980 -0.4512  0.8002
   32MOL   C15931841   2.162   3.030   7.250 -0.3412 -0.1912  0.0697
   32MOL   N16031842   2.119   3.157   7.202  0.4321  0.1802  0.1791
   32MOL   C16131843   2.069   3.190   7.071  0.1431  0.8692  0.3057
   32MOL   C16231844   2.021   3.091   6.983 -0.5051 -0.2266  0.2682
   32MOL   C16331845   1.977   3.129   6.854  0.0989 -0.7241  0.6262
   32MOL   C16431846   1.984   3.261   6.812  0.4696 -0.3470  0.5667
   32MOL   N16531847   1.968   3.295   6.676 -0.2380  0.1134 -0.2444
   32MOL   C16631848   1.993   3.225   6.559  0.3846  0.6259  0.5482
   32MOL   C16731849   2.093   3.121   6.554 -0.3851  0.3238 -0.9767
   32MOL   C16831850   2.136   3.071   6.431 -0.0927 -0.1095  0.3758
   32MOL   C16931851   2.070   3.104   6.311  0.0904 -0.8993  0.1196
   32MOL   N17031852   2.117   3.045   6.193 -0.0494  0.1429 -0.1009
   32MOL   C17131853   2.084   3.087   6.066  0.7716 -0.2149  0.1457
   32MOL   C17231854   2.143   3.208   6.018  0.6847  0.0998 -0.0104
   32MOL   C17331855   2.098   3.264   5.892  0.2368 -0.2516 -0.1858
   32MOL   C17431856   2.011   3.201   5.809  0.4606  0.1492  0.5592
   32MOL   C17531857   1.968   3.264   5.669 -0.2028 -0.7532 -0.5412
   32MOL   C17631858   1.955   3.080   5.852 -0.8518 -0.0573  0.7172
   32MOL   C17731859   1.988   3.031   5.979 -0.0540  0.3997 -0.3123
   32MOL   C17831860   1.967   3.207   6.321  0.0927 -0.0214 -0.2044
   32MOL   C17931861   1.929   3.262   6.442 -0.0566 -0.3525  0.0928
   32MOL   C18031862   2.020   3.361   6.899  0.9622 -0.3399  0.5620
   32MOL   C18131863   2.060   3.327   7.033 -0.2228  0.3040 -0.1466
   32MOL   C18231864   2.121   2.981   7.379 -0.4063 -0.0316 -0.1011
   32MOL   C18331865   2.163   2.854   7.424  0.6695 -0.5363 -0.3771
   32MOL   H18431866   2.394   2.637   7.347  0.4054  1.9763 -0.9324
   32MOL   H18531867   2.387   2.782   7.181 -1.9669 -2.7526 -0.0711
   32MOL   H18631868   2.285   2.991   7.078  1.5926  0.3054  1.6703
   32MOL   H18731869   2.120   3.231   7.271  0.1114  1.6850 -1.4060
   32MOL   H18831870   2.029   2.988   7.012  0.9678 -0.4423 -0.8186
   32MOL   H18931871   1.947   3.055   6.780  0.1196 -0.5092  0.4043
   32MOL   H19031872   1.927   3.386   6.659 -0.2705  0.3223  0.9594
   32MOL   H19131873   2.144   3.094   6.646 -2.5411  2.1772  0.8494
   32MOL   H19231874   2.224   3.008   6.432 -1.1892 -1.6613  0.9605
   32MOL   H19331875   2.207   3.000   6.197 -0.1705 -0.1046 -0.2091
   32MOL   H19431876   2.217   3.263   6.073 -1.4984 -0.0625  3.2352
   32MOL   H19531877   2.135   3.360   5.859  0.1699  0.0087  0.4862
   32MOL   H19631878   1.983   3.185   5.595 -0.2382 -1.3821  0.1191
   32MOL   H19731879   2.038   3.341   5.635 -1.8612  0.3486 -1.5179
   32MOL   H19831880   1.874   3.034   5.796 -1.7198 -0.0877  1.9765
   32MOL   H19931881   1.934   2.942   6.008 -0.9920  0.1953 -2.6439
   32MOL   H20031882   1.913   3.229   6.230  0.0071  2.8082  0.4846
   32MOL   H20131883   1.859   3.344   6.433  1.2914  1.0162  1.8952
   32MOL   H20231884   2.031   3.466   6.878  0.3998 -0.0480  1.6411
   32MOL   H20331885   2.090   3.403   7.104 -0.4327 -0.4516  0.7612
   32MOL   H20431886   2.049   3.037   7.436  0.0895  4.7113 -3.8226
   32MOL   H20531887   2.124   2.814   7.516 -0.2434  0.6321 -0.2339
   32MOL   N20631888   1.833   3.317   5.673  0.2770 -0.3236  0.1605
   32MOL   C20731889   1.772   3.405   5.580  0.4845  0.0976  0.0558
   32MOL   C20831890   1.639   3.446   5.596  0.3494 -0.2329  0.6596
   32MOL   C20931891   1.573   3.526   5.499 -0.0168  0.6134 -0.2038
   32MOL   C21031892   1.638   3.561   5.378 -0.4358 -0.1744 -0.4960
   32MOL   N21131893   1.574   3.643   5.285 -0.6662 -0.0947 -0.7975
   32MOL   C21231894   1.639   3.711   5.181  0.9887  0.5603  0.1856
   32MOL   C21331895   1.594   3.691   5.050  0.5693  0.6946 -0.3726
   32MOL   C21431896   1.655   3.764   4.950  0.2109  0.0721  0.5960
   32MOL   C21531897   1.762   3.855   4.972 -0.7929 -0.0553  0.3108
   32MOL   N21631898   1.817   3.931   4.865  0.3632 -0.4193 -0.5644
   32MOL   C21731899   1.773   3.911   4.736 -0.3823 -0.3759  0.4455
   32MOL   C21831900   1.684   4.006   4.674  0.0703  0.1048 -0.4902
   32MOL   C21931901   1.639   3.986   4.547  0.7382  0.1166  0.3435
   32MOL   C22031902   1.685   3.873   4.475 -0.8976  0.6857 -0.2200
   32MOL   N22131903   1.635   3.847   4.350  0.4468  0.7739 -0.6230
   32MOL   C22231904   1.681   3.912   4.237 -0.4080  0.0778  0.1360
   32MOL   C22331905   1.705   3.840   4.124 -0.1030  0.3173  0.5315
   32MOL   C22431906   1.730   3.902   4.000 -0.0288 -0.4364  0.1569
   32MOL   C22531907   1.756   4.044   3.999 -0.4351 -0.3425  0.2563
   32MOL   C22631908   1.778   4.114   3.869 -0.5992 -0.4253  0.8581
   32MOL   C22731909   1.745   4.124   4.119  0.2739  0.1749  0.1336
   32MOL   C22831910   1.701   4.057   4.234 -0.4407  0.1060  0.3628
   32MOL   C22931911   1.772   3.780   4.532 -0.2030  0.0794 -0.1986
   32MOL   C23031912   1.820   3.804   4.659  0.3217  0.1792  0.0837
   32MOL   C23131913   1.800   3.873   5.104 -0.2062 -0.8051  0.1839
   32MOL   C23231914   1.732   3.809   5.208 -0.5620  0.7068 -0.3726
   32MOL   C23331915   1.778   3.529   5.365  0.2574  0.5648 -0.0175
   32MOL   C23431916   1.842   3.454   5.466 -0.9284 -0.6357  0.1034
   32MOL   H23531917   1.786   3.305   5.762  2.4898 -2.3777  1.1158
   32MOL   H23631918   1.576   3.418   5.679  0.8466  1.0113  1.4635
   32MOL   H23731919   1.469   3.553   5.499  0.3546  2.1084 -1.4783
   32MOL   H23831920   1.498   3.585   5.253 -0.8727 -0.3335  0.1143
   32MOL   H23931921   1.514   3.621   5.028  1.5156 -0.1955 -1.0411
   32MOL   H24031922   1.612   3.753   4.851 -0.8373  3.3221  0.6274
   32MOL   H24131923   1.810   4.028   4.895 -0.1483 -0.4859 -0.4551
   32MOL   H24231924   1.653   4.091   4.732 -1.0097 -0.7206  0.1695
   32MOL   H24331925   1.578   4.059   4.496 -1.1977 -1.5296  0.2180
   32MOL   H24431926   1.652   3.749   4.334  1.4496  0.5305  1.8466
   32MOL   H24531927   1.691   3.732   4.118  1.1811  0.0395  2.3211
   32MOL   H24631928   1.737   3.852   3.905 -2.5903 -1.1729  0.3258
   32MOL   H24731929   1.744   4.217   3.876  1.0161  0.2849 -1.1379
   32MOL   H24831930   1.731   4.055   3.790  0.5791  0.8408 -0.8203
   32MOL   H24931931   1.768   4.229   4.124 -0.5078  0.2660  3.6771
   32MOL   H25031932   1.684   4.121   4.319 -0.9113 -1.7083  1.6740
   32MOL   H25131933   1.808   3.692   4.481 -1.0715 -2.4006  3.2297
   32MOL   H25231934   1.889   3.733   4.704  1.7580  1.0480 -0.7037
   32MOL   H25331935   1.870   3.944   5.145 -0.4107  0.2240 -1.2180
   32MOL   H25431936   1.758   3.841   5.308 -0.5895  0.4227 -0.2738
   32MOL   H25531937   1.836   3.567   5.282  0.4527 -1.1758 -0.7115
   32MOL   H25631938   1.947   3.430   5.460 -0.6484  0.7444 -0.5617
   32MOL   N25731939   1.921   4.146   3.844 -0.2234 -0.4857  0.0436
   32MOL   C25831940   1.968   4.186   3.720  0.0328  0.2417  0.0404
   32MOL   C25931941   1.893   4.177   3.603  0.0598 -1.4874 -0.5624
   32MOL   C26031942   1.947   4.228   3.485  0.7716  0.3695 -0.2592
   32MOL   C26131943   2.076   4.284   3.480  0.3936  0.0185 -0.3375
   32MOL   N26231944   2.127   4.325   3.352 -0.3745  0.4579 -0.2342
   32MOL   C26331945   2.170   4.241   3.246  0.3883 -0.3428  0.2127
   32MOL   C26431946   2.262   4.280   3.139  0.0508  0.8848 -0.1181
   32MOL   C26531947   2.290   4.184   3.040  0.1944 -0.0469  0.0834
   32MOL   C26631948   2.234   4.053   3.046 -0.4611 -0.6418  0.3651
   32MOL   N26731949   2.275   3.958   2.950  0.3596 -0.0347  0.2102
   32MOL   C26831950   2.299   3.827   2.981  0.2978  0.2095  0.4912
   32MOL   C26931951   2.403   3.793   3.067  0.0595 -0.0008  0.2445
   32MOL   C27031952   2.404   3.663   3.115  0.0525  1.0657 -0.3569
   32MOL   C27131953   2.313   3.567   3.069 -0.8327  0.2721 -0.4427
   32MOL   N27231954   2.319   3.438   3.123  0.6697  0.2028  0.2611
   32MOL   C27331955   2.289   3.409   3.256  0.5341 -0.1374 -0.1605
   32MOL   C27431956   2.335   3.285   3.306  0.4644  0.0760  0.5740
   32MOL   C27531957   2.319   3.264   3.443  0.5181  0.0058  0.4381
   32MOL   C27631958   2.245   3.347   3.526 -0.3957 -0.1586 -0.0021
   32MOL   C27731959   2.206   3.302   3.666 -0.4015 -0.4853 -0.2571
   32MOL   C27831960   2.203   3.469   3.474  0.2152 -0.7321 -0.2268
   32MOL   C27931961   2.227   3.506   3.341 -0.6183 -0.0897  0.2708
   32MOL   C28031962   2.218   3.599   2.972  0.5202 -0.1877  0.2055
   32MOL   C28131963   2.206   3.732   2.926 -0.1416  0.6686 -0.0705
   32MOL   C28231964   2.150   4.017   3.149  0.0921 -0.7022  0.3802
   32MOL   C28331965   2.118   4.110   3.250  0.8940  0.0708 -0.4549
   32MOL   C28431966   2.156   4.292   3.597  0.0307 -0.0545 -0.1215
   32MOL   C28531967   2.099   4.234   3.719 -0.4303  0.8334  0.0471
   32MOL   H28631968   1.983   4.165   3.922  1.5707 -0.0711 -1.4494
   32MOL   H28731969   1.795   4.133   3.602 -0.6020 -0.0315 -2.3610
   32MOL   H28831970   1.888   4.231   3.394 -0.3547  0.3013  0.4668
   32MOL   H28931971   2.172   4.415   3.362 -2.8783  1.5685  1.4289
   32MOL   H29031972   2.291   4.384   3.136 -2.5724  1.7373  1.8494
   32MOL   H29131973   2.358   4.203   2.959  0.0694 -3.6971 -0.9766
   32MOL   H29231974   2.296   3.983   2.854 -0.8660  0.1826 -0.0070
   32MOL   H29331975   2.467   3.866   3.114 -1.6502  1.7480 -0.0983
   32MOL   H29431976   2.480   3.630   3.184 -0.3131  1.3352  0.1754
   32MOL   H29531977   2.338   3.364   3.058  0.6633 -1.2578  1.8725
   32MOL   H29631978   2.373   3.207   3.242  2.6868  0.4693  1.3623
   32MOL   H29731979   2.343   3.167   3.485  1.4991  0.0752  0.0234
   32MOL   H29831980   2.180   3.393   3.721  0.5703 -2.1696  3.1146
   32MOL   H29931981   2.291   3.253   3.714  0.4634  0.7556 -0.4932
   32MOL   H30031982   2.139   3.528   3.537  1.6292 -0.8988  1.3984
   32MOL   H30131983   2.184   3.592   3.293  1.0503  0.8139  0.3706
   32MOL   H30231984   2.156   3.519   2.933  2.2751 -0.9158 -1.1150
   32MOL   H30331985   2.133   3.745   2.849  1.9262 -1.5559 -2.5235
   32MOL   H30431986   2.105   3.918   3.150 -2.3251  0.3731  1.1706
   32MOL   H30531987   2.055   4.080   3.333 -1.7657  1.3074 -1.9625
   32MOL   H30631988   2.254   4.338   3.589  0.3716 -0.7958 -0.3628
   32MOL   H30731989   2.156   4.226   3.810 -0.3965 -1.4835 -0.1388
   32MOL   N30831990   2.095   3.205   3.648  0.1964 -0.5926  0.0376
   32MOL   C30931991   2.034   3.156   3.766  0.1122  0.1302 -0.2191
   32MOL   C31031992   1.892   3.142   3.764  0.5531 -0.2637  0.3992
   32MOL   C31131993   1.824   3.097   3.881 -0.0226  0.6548  0.2327
   32MOL   C31231994   1.895   3.060   3.996 -0.8823 -0.0002 -0.3478
   32MOL   N31331995   1.829   3.011   4.107 -0.4866 -0.5375  0.4885
   32MOL   C31431996   1.725   2.922   4.110 -0.0020  0.4931 -0.6525
   32MOL   C31531997   1.704   2.817   4.017  0.6215  0.1555  0.1617
   32MOL   C31631998   1.605   2.718   4.043 -0.2004  0.1504 -0.2975
   32MOL   C31731999   1.524   2.734   4.157  0.3276  0.4625 -0.2477
   32MOL   N31832000   1.405   2.657   4.172  0.5820  0.2159  0.0741
   32MOL   C31932001   1.374   2.539   4.110  0.3511 -0.3411  0.5220
   32MOL   C32032002   1.254   2.533   4.038  0.1437  0.6527  0.3048
   32MOL   C32132003   1.232   2.410   3.967  0.2702  0.2188 -0.2052
   32MOL   C32232004   1.321   2.299   3.977  1.0397 -0.2547  0.3118
   32MOL   N32332005   1.288   2.178   3.917  0.5732  0.5454  0.2813
   32MOL   C32432006   1.166   2.114   3.905  0.2058 -0.1414 -0.3527
   32MOL   C32532007   1.052   2.164   3.967  0.4767  0.4479  0.1312
   32MOL   C32632008   0.933   2.089   3.948  0.0568 -0.5746  0.2916
   32MOL   C32732009   0.932   1.985   3.852 -0.1035  0.6772  0.9945
   32MOL   C32832010   0.803   1.903   3.836 -0.4658  0.6716 -0.1774
   32MOL   C32932011   1.050   1.934   3.793  0.1955 -0.3172 -0.5293
   32MOL   C33032012   1.168   2.006   3.818 -0.0886  0.4629 -0.0313
   32MOL   C33132013   1.445   2.316   4.044 -0.1399 -0.3903 -0.8299
   32MOL   C33232014   1.468   2.433   4.111 -0.3594  0.2563  0.1388
   32MOL   C33332015   1.541   2.839   4.247 -0.3295  0.4395  0.3289
   32MOL   C33432016   1.649   2.931   4.228  0.6087 -0.2406 -0.8961
   32MOL   C33532017   2.037   3.070   3.998 -0.2998 -0.7152  0.0446
   32MOL   C33632018   2.108   3.126   3.885  0.3835 -0.4213 -0.1055
   32MOL   H33732019   2.033   3.206   3.569 -0.7563 -3.3888  0.6883
   32MOL   H33832020   1.823   3.166   3.685  0.2275 -3.4632 -0.3529
   32MOL   H33932021   1.717   3.087   3.873 -0.1187  0.7338  1.2345
   32MOL   H34032022   1.824   3.076   4.184 -0.6430  1.0335 -0.8411
   32MOL   H34132023   1.766   2.809   3.929  1.6536 -1.2590  0.9974
   32MOL   H34232024   1.584   2.645   3.966  1.9011 -1.0834  0.2506
   32MOL   H34332025   1.331   2.720   4.198  1.1691  1.5531 -1.4192
   32MOL   H34432026   1.185   2.616   4.049  0.2761  0.9665 -1.1987
   32MOL   H34532027   1.140   2.392   3.913 -0.5010  1.2060  0.7424
   32MOL   H34632028   1.371   2.132   3.882  0.7316  0.6264  0.5481
   32MOL   H34732029   1.057   2.247   4.035 -0.6129  1.0125 -0.4709
   32MOL   H34832030   0.845   2.112   4.006  0.9078  2.7013  0.3552
   32MOL   H34932031   0.802   1.856   3.738  0.6888  1.7963 -0.7432
   32MOL   H35032032   0.718   1.971   3.842 -1.4958 -0.5435 -0.7477
   32MOL   H35132033   1.047   1.852   3.723  2.9242  0.0662 -1.1377
   32MOL   H35232034   1.259   1.965   3.777  0.0249  0.8593 -0.1784
   32MOL   H35332035   1.516   2.235   4.052 -0.0254 -0.1014  1.2510
   32MOL   H35432036   1.563   2.449   4.160 -1.1312  0.4604  1.5727
   32MOL   H35532037   1.476   2.845   4.333  0.1487  0.4065  0.6947
   32MOL   H35632038   1.673   3.001   4.307 -1.4292 -0.3979 -0.0888
   32MOL   H35732039   2.097   3.041   4.083  0.9986 -0.0922 -0.6398
   32MOL   H35832040   2.214   3.148   3.889 -0.0560  1.9081 -0.4729
   32MOL   N35932041   0.787   1.805   3.944  0.4846  0.3433 -0.0785
   32MOL   C36032042   0.655   1.754   3.972 -0.0023  0.2601 -0.5498
   32MOL   C36132043   0.650   1.652   4.071 -0.8532 -0.0813  0.0272
   32MOL   C36232044   0.524   1.608   4.112  0.2037 -0.3512 -0.4586
   32MOL   C36332045   0.408   1.651   4.048  0.2221 -0.5417 -0.4317
   32MOL   N36432046   0.290   1.606   4.092  0.0420  0.5148  0.1644
   32MOL   C36532047   0.202   1.520   4.023  0.0887  0.4541 -0.3169
   32MOL   C36632048   0.219   1.477   3.888  1.2518 -0.8493 -0.1548
   32MOL   C36732049   0.129   1.376   3.837 -0.3785 -0.5123  0.0557
   32MOL   C36832050   0.022   1.330   3.919 -0.8909  0.0534  0.0223
   32MOL   N36932051   7.919   1.225   3.873 -0.0728  0.2563 -0.2013
   32MOL   C37032052   7.828   1.232   3.770 -0.3137  0.1704 -0.0008
   32MOL   C37132053   7.726   1.135   3.768  0.1464 -0.1102 -0.1931
   32MOL   C37232054   7.631   1.143   3.665  0.3704 -0.2399 -0.0230
   32MOL   C37332055   7.630   1.244   3.567 -0.1218 -0.4487  0.2452
   32MOL   N37432056   7.530   1.242   3.467  0.4041 -0.8886 -0.1542
   32MOL   C37532057   7.542   1.340   3.370  0.2852 -0.2285 -0.6044
   32MOL   C37632058   7.643   1.342   3.271 -0.0351 -0.6062 -1.0360
   32MOL   C37732059   7.668   1.457   3.201  0.6876  0.0103  0.0612
   32MOL   C37832060   7.593   1.571   3.219 -0.2607 -0.2417 -0.4580
   32MOL   C37932061   7.638   1.704   3.161 -0.2548  0.2561 -0.5378
   32MOL   C38032062   7.484   1.571   3.312  0.8465  0.6045  0.3708
   32MOL   C38132063   7.454   1.454   3.386  0.7474  0.3442 -0.7153
   32MOL   C38232064   7.732   1.337   3.574 -0.6986 -0.8458  0.2918
   32MOL   C38332065   7.836   1.328   3.668 -0.3023 -0.5979 -0.5679
   32MOL   C38432066   7.979   1.391   4.041  0.1573  0.4125 -0.0423
   32MOL   C38532067   0.091   1.476   4.102 -1.0133  0.1578  0.2124
   32MOL   C38632068   0.413   1.732   3.936 -0.5983 -0.3443 -0.3935
   32MOL   C38732069   0.540   1.779   3.891 -0.7636  0.1309 -0.1152
   32MOL   H38832070   0.865   1.797   4.007  0.0940  0.4334  0.4252
   32MOL   H38932071   0.737   1.614   4.123  0.0355 -1.4424 -2.3863
   32MOL   H39032072   0.518   1.549   4.202  0.1272  2.6417  1.5608
   32MOL   H39132073   0.280   1.602   4.192 -0.1689 -1.3326  0.0848
   32MOL   H39232074   0.306   1.503   3.829  1.0294  2.1812  0.7561
   32MOL   H39332075   0.162   1.324   3.749  0.1911 -2.5319  1.4130
   32MOL   H39432076   7.878   1.180   3.954 -1.0068  1.2508 -0.1017
   32MOL   H39532077   7.699   1.070   3.849  2.6554  0.4883  1.1839
   32MOL   H39632078   7.554   1.068   3.660  0.0474  0.0244  1.0355
   32MOL   H39732079   7.441   1.227   3.514  1.4821  1.2646  2.7430
   32MOL   H39832080   7.706   1.258   3.249  1.0078 -0.2246  0.4134
   32MOL   H39932081   7.754   1.461   3.136 -0.2371  2.5287 -1.0865
   32MOL   H40032082   7.550   1.768   3.149 -1.1235 -0.7184  0.5597
   32MOL   H40132083   7.665   1.685   3.057  0.2270  0.7806 -0.5098
   32MOL   H40232084   7.432   1.663   3.335  0.4130  0.1958  1.0587
   32MOL   H40332085   7.378   1.460   3.463  1.4019  1.2153 -0.1256
   32MOL   H40432086   7.733   1.420   3.505  0.9346 -0.7178  0.4421
   32MOL   H40532087   7.921   1.392   3.652 -0.5688 -0.0865  0.0226
   32MOL   H40632088   7.904   1.365   4.115 -0.2613  2.0596  0.1412
   32MOL   H40732089   0.073   1.508   4.204 -0.3200  3.1094 -0.5305
   32MOL   H40832090   0.326   1.750   3.874 -0.0513 -2.3256 -1.7656
   32MOL   H40932091   0.547   1.835   3.799  0.5585 -0.3612 -0.3296
   32MOL   N41032092   7.745   1.769   3.231 -0.4567 -0.5913  0.1903
   32MOL   C41132093   7.801   1.872   3.154  0.2578  0.2456  0.4140
   32MOL   C41232094   7.730   1.988   3.118 -0.9747 -1.1335 -0.2763
   32MOL   C41332095   7.794   2.094   3.054 -0.0396  0.1559 -0.9895
   32MOL   C41432096   7.932   2.090   3.025 -0.5086 -0.5221  1.0164
   32MOL   N41532097   0.021   2.204   2.972 -0.1117  0.2802 -0.7010
   32MOL   C41632098   0.064   2.227   2.842  0.3549  0.0129  0.3187
   32MOL   C41732099   0.007   2.339   2.770 -0.4643 -0.2693  0.7472
   32MOL   C41832100   0.038   2.358   2.637  0.4074  0.7567 -0.3977
   32MOL   C41932101   0.130   2.275   2.562  0.9339 -0.1719  0.1663
   32MOL   N42032102   0.157   2.304   2.428 -0.5191 -0.2114  0.2952
   32MOL   C42132103   0.217   2.220   2.334  0.7960  0.4736  0.4028
   32MOL   C42232104   0.300   2.278   2.237  0.1537  0.0329  0.1472
   32MOL   C42332105   0.373   2.209   2.144 -0.0835 -0.3920 -0.4879
   32MOL   C42432106   0.371   2.071   2.144  0.1918 -0.4168 -0.2099
   32MOL   N42532107   0.450   2.000   2.057 -0.4153  0.6297 -0.4474
   32MOL   C42632108   0.486   1.860   2.055  0.1943  0.3195 -0.0876
   32MOL   C42732109   0.389   1.752   2.065  0.2776  0.4218 -0.2471
   32MOL   C42832110   0.428   1.617   2.080 -0.4347 -0.9073 -0.2137
   32MOL   C42932111   0.562   1.584   2.102  0.7169 -0.4607 -0.4134
   32MOL   C43032112   0.611   1.441   2.126  0.0802 -0.2467  0.2525
   32MOL   C43132113   0.659   1.685   2.095 -0.2722 -0.2306  0.6908
   32MOL   C43232114   0.620   1.821   2.068  0.5289 -0.2667 -0.1512
   32MOL   C43332115   0.277   2.010   2.229  0.1090  0.5308  0.3717
   32MOL   C43432116   0.200   2.085   2.320  0.0148 -0.1181 -0.1367
   32MOL   C43532117   0.185   2.165   2.631 -1.1564 -0.1177 -0.4569
   32MOL   C43632118   0.146   2.143   2.766  1.4141  0.1778  0.0906
   32MOL   C43732119   0.024   1.978   3.063  0.6494  0.2505  0.4223
   32MOL   C43832120   7.940   1.869   3.121  0.0755  0.1972 -0.4331
   32MOL   H43932121   7.810   1.701   3.267  0.6283 -0.1971 -1.0152
   32MOL   H44032122   7.624   1.981   3.137 -1.3362  1.2590 -1.2705
   32MOL   H44132123   7.729   2.175   3.024 -0.2125  0.1289 -0.6956
   32MOL   H44232124   7.949   2.287   2.992 -1.7465 -0.4195 -2.1124
   32MOL   H44332125   7.918   2.402   2.820 -0.6517 -1.2591  1.7406
   32MOL   H44432126   7.975   2.443   2.588 -0.1077  0.2371 -0.8401
   32MOL   H44532127   0.163   2.402   2.405 -1.6030 -0.3340 -0.5144
   32MOL   H44632128   0.306   2.386   2.231 -1.1494  0.1877  1.4981
   32MOL   H44732129   0.428   2.263   2.068  2.3350 -2.0922  0.0088
   32MOL   H44832130   0.508   2.057   1.996  1.3728 -1.2618 -0.5971
   32MOL   H44932131   0.283   1.771   2.058  0.2275  0.0021 -0.6229
   32MOL   H45032132   0.357   1.536   2.086 -1.1783 -0.0987  2.5540
   32MOL   H45132133   0.710   1.442   2.173 -1.0585 -3.6792  2.9433
   32MOL   H45232134   0.619   1.385   2.033 -0.6242  1.9219 -1.1459
   32MOL   H45332135   0.763   1.660   2.091  0.0912  1.3094  0.0638
   32MOL   H45432136   0.695   1.899   2.064 -1.3577  1.6770  1.0486
   32MOL   H45532137   0.279   1.902   2.237 -1.2971  0.4242 -0.6159
   32MOL   H45632138   0.139   2.030   2.391 -1.3384 -0.5022 -1.5641
   32MOL   H45732139   0.256   2.095   2.591  0.0689  0.2867  1.0025
   32MOL   H45832140   0.178   2.051   2.811 -0.7300 -0.4155  0.4552
   32MOL   H45932141   0.129   1.964   3.047  0.7235 -2.5129  2.8913
   32MOL   H46032142   0.001   1.772   3.138 -1.5942 -0.2619  1.3414
   32MOL   N46132143   0.535   1.377   2.226  0.8516 -0.6695  0.1735
   32MOL   C46232144   0.564   1.241   2.247 -0.1107  1.4102  0.4938
   32MOL   C46332145   0.450   1.158   2.233  0.9506  0.6730  0.0556
   32MOL   C46432146   0.460   1.017   2.256  0.2076  0.0609  0.8521
   32MOL   C46532147   0.588   0.961   2.283 -0.4963  0.5295 -0.4700
   32MOL   N46632148   0.610   0.823   2.307  0.4658 -0.2857  0.1095
   32MOL   C46732149   0.522   0.728   2.357  0.5742 -1.1275 -0.3511
   32MOL   C46832150   0.420   0.767   2.447 -0.5166 -0.3956  0.1065
   32MOL   C46932151   0.337   0.666   2.500 -0.1944  0.0977 -0.0612
   32MOL   C47032152   0.356   0.526   2.463 -0.7318  0.6090 -0.2827
   32MOL   N47132153   0.277   0.428   2.520  0.5884  0.8329 -0.1199
   32MOL   C47232154   0.209   0.323   2.459 -0.9178 -0.6253 -0.3091
   32MOL   C47332155   0.184   0.330   2.323  0.1088 -0.2218 -0.3440
   32MOL   C47432156   0.116   0.222   2.263 -0.1188  0.3008  0.0926
   32MOL   C47532157   0.060   0.117   2.340 -0.1266 -0.2634  0.5450
   32MOL   N47632158   7.971   0.011   2.281 -0.2089 -0.3759  0.1424
   32MOL   C47732159   7.854   7.933   2.329  0.0146  0.0382  0.0756
   32MOL   C47832160   7.830   7.797   2.295 -0.2847 -0.1991  0.2774
   32MOL   C47932161   7.732   7.729   2.369 -0.5251 -0.1375  0.1299
   32MOL   C48032162   7.643   7.801   2.447 -0.1835 -0.5747  0.4768
   32MOL   C48132163   7.530   7.733   2.529 -0.3479 -0.6291 -0.5389
   32MOL   C48232164   7.657   7.936   2.464  0.7102 -1.0223 -0.0465
   32MOL   C48332165   7.765   0.023   2.409 -1.4652  0.1636  0.0524
   32MOL   C48432166   0.081   0.120   2.475  0.3116 -0.0254  0.0970
   32MOL   C48532167   0.160   0.216   2.535  0.0982  0.2254 -0.0042
   32MOL   C48632168   0.458   0.492   2.380  0.1923  0.4279 -0.4832
   32MOL   C48732169   0.537   0.593   2.319  0.0511 -0.6254  0.0069
   32MOL   C48832170   0.700   1.048   2.296 -0.5160  0.0066  0.2100
   32MOL   C48932171   0.689   1.188   2.279 -0.1865  0.1581  0.0431
   32MOL   H49032172   0.437   1.400   2.229  0.9209 -0.3713  0.1107
   32MOL   H49132173   0.352   1.197   2.212  0.7131  1.7216  3.0007
   32MOL   H49232174   0.382   0.944   2.246  0.5698 -0.1703 -0.3418
   32MOL   H49332175   0.699   0.783   2.280  2.4784  1.6766  3.5320
   32MOL   H49432176   0.409   0.867   2.485  1.7788  0.7091 -2.0410
   32MOL   H49532177   0.256   0.699   2.562  1.6720  1.6991  1.5574
   32MOL   H49632178   0.273   0.433   2.620 -0.3127  0.2077 -0.1173
   32MOL   H49732179   0.220   0.407   2.257  0.7806  0.8797  1.2693
   32MOL   H49832180   0.092   0.234   2.159 -0.0242 -0.9303 -0.0802
   32MOL   H49932181   7.975   0.009   2.180  1.3198 -3.6616  0.1961
   32MOL   H50032182   7.916   7.748   2.253  0.1709 -0.4403  1.4765
   32MOL   H50132183   7.726   7.623   2.353 -0.5188  0.3267 -3.2733
   32MOL   H50232184   7.537   7.761   2.634 -1.4629 -0.4600 -0.5019
   32MOL   H50332185   7.535   7.624   2.528  0.3897 -0.6604  1.8765
   32MOL   H50432186   7.586   0.004   2.528  0.0556 -0.4085 -1.2341
   32MOL   H50532187   7.784   0.129   2.419  3.2281 -0.5646  0.1451
   32MOL   H50632188   0.046   0.035   2.532 -2.0642  0.0500 -1.1869
   32MOL   H50732189   0.180   0.210   2.641 -2.8449 -1.0505  0.5365
   32MOL   H50832190   0.473   0.387   2.357 -0.3189  0.9607 -3.4048
   32MOL   H50932191   0.614   0.550   2.256  0.6991 -1.6308  1.4429
   32MOL   H51032192   0.793   1.006   2.329 -0.6213  0.8001  1.5692
   32MOL   H51132193   0.771   1.256   2.295  1.2348 -1.0998 -1.8145
   32MOL   N51232194   7.404   7.781   2.474 -0.8893  0.1680  0.1830
   32MOL   C51332195   7.280   7.721   2.488  0.7316 -0.2849 -0.3560
   32MOL   C51432196   7.255   7.625   2.586  0.2264  0.5130 -0.1742
   32MOL   C51532197   7.121   7.584   2.600 -0.3193  0.0791 -0.5803
   32MOL   C51632198   7.023   7.627   2.515 -0.0229  0.4684  0.6786
   32MOL   N51732199   6.891   7.580   2.531 -0.0613 -0.0404  0.3074
   32MOL   C51832200   6.767   7.642   2.504 -0.5408 -0.0015  0.6151
   32MOL   C51932201   6.658   7.565   2.455 -0.1251 -0.5349  0.4566
   32MOL   C52032202   6.532   7.627   2.444 -0.4800  0.3981  0.2257
   32MOL   C52132203   6.516   7.760   2.483 -0.8663  0.5670 -0.1005
   32MOL   N52232204   6.393   7.818   2.506  0.9283 -0.1404  0.0294
   32MOL   C52332205   6.363   7.926   2.594 -0.7670  0.4742  1.0858
   32MOL   C52432206   6.279   0.048   2.550  0.1694  0.1477 -0.4340
   32MOL   C52532207   6.252   0.154   2.637  0.2594  0.4972 -0.5378
   32MOL   C52632208   6.294   0.152   2.770 -0.1056  0.0684  0.0492
   32MOL   N52732209   6.263   0.261   2.852  0.0096  0.1873 -0.4389
   32MOL   C52832210   6.266   0.398   2.816  0.7516 -0.8725  0.1008
   32MOL   C52932211   6.336   0.452   2.711 -0.2913  0.6267  0.1542
   32MOL   C53032212   6.355   0.590   2.703  0.2893 -0.1814  0.0497
   32MOL   C53132213   6.289   0.678   2.794 -0.6052  0.5981 -0.0738
   32MOL   C53232214   6.301   0.829   2.773  0.5709 -0.9043  0.0541
   32MOL   C53332215   6.211   0.618   2.895  0.8927  0.1269  0.1901
   32MOL   C53432216   6.204   0.480   2.907 -0.0279 -0.1932 -0.5707
   32MOL   C53532217   6.378   0.047   2.813 -0.0818 -0.1342  0.9332
   32MOL   C53632218   6.415   7.929   2.724 -0.1203 -0.3721 -0.2052
   32MOL   C53732219   6.626   7.839   2.517 -0.0325  0.0950 -0.7329
   32MOL   C53832220   6.755   7.780   2.528 -0.4114  0.3072 -0.1103
   32MOL   C53932221   7.053   7.722   2.417 -0.1105  0.6464  0.1652
   32MOL   C54032222   7.181   7.765   2.403  0.1560  1.1239 -0.3290
   32MOL   H54132223   7.398   7.872   2.430 -1.4233 -0.6532 -1.4880
   32MOL   H54232224   7.324   7.586   2.659 -0.2084 -1.3261 -0.7272
   32MOL   H54332225   7.098   7.519   2.683 -1.7067  0.3233 -0.7587
   32MOL   H54432226   6.883   7.483   2.559 -0.9393  0.2942  1.2037
   32MOL   H54532227   6.663   7.459   2.440  0.5716 -0.8142  2.5093
   32MOL   H54632228   6.442   7.574   2.418  1.6669 -2.0232 -2.6215
   32MOL   H54732229   6.322   7.805   2.435 -0.9155 -0.1883  1.8405
   32MOL   H54832230   6.238   0.053   2.450  0.1972  0.0043 -0.4522
   32MOL   H54932231   6.192   0.238   2.602 -2.5375 -1.2588 -0.1197
   32MOL   H55032232   6.234   0.236   2.946 -0.1978  1.1812 -0.2342
   32MOL   H55132233   6.374   0.392   2.631 -0.5723  0.1855  0.3484
   32MOL   H55232234   6.414   0.628   2.621 -0.6092  1.2459  0.0461
   32MOL   H55332235   6.247   0.882   2.851 -1.3280 -1.6063 -0.7359
   32MOL   H55432236   6.234   0.857   2.692  0.2880 -1.0166  0.2477
   32MOL   H55532237   6.165   0.681   2.970 -0.2771  0.1173 -0.4963
   32MOL   H55632238   6.154   0.431   2.989  0.7213  2.2745  1.4157
   32MOL   H55732239   6.416   0.043   2.914  2.0992  0.9483  0.1852
   32MOL   H55832240   6.471   7.841   2.754 -1.1830 -0.9727  0.0457
   32MOL   H55932241   6.608   7.944   2.532 -0.2175  0.2917 -2.1792
   32MOL   H56032242   6.837   7.845   2.556  0.7222 -1.8091  1.6481
   32MOL   H56132243   6.976   7.750   2.347  0.0804 -1.0761 -0.7559
   32MOL   H56232244   7.207   7.842   2.331 -0.9749 -0.0307 -1.9969
   32MOL   N56332245   6.438   0.873   2.742  0.2881  0.4653  0.1319
   32MOL   C56432246   6.441   0.980   2.649  0.4768  0.0269 -0.3209
   32MOL   C56532247   6.433   0.951   2.513  0.2633 -0.0785  0.0876
   32MOL   C56632248   6.414   1.058   2.425  0.0030 -0.0183 -0.6639
   32MOL   C56732249   6.404   1.196   2.466  0.1572 -0.0117 -0.4547
   32MOL   N56832250   6.402   1.299   2.373  0.0109 -0.5596  0.6910
   32MOL   C56932251   6.436   1.299   2.236 -0.3097 -0.1579 -0.7866
   32MOL   C57032252   6.523   1.205   2.168 -1.0217 -0.1440 -0.2729
   32MOL   C57132253   6.545   1.203   2.033  0.5330  0.4226  0.4369
   32MOL   C57232254   6.485   1.298   1.954 -0.1027 -1.0563  0.3819
   32MOL   N57332255   6.501   1.305   1.812  0.2174 -0.2550 -0.2209
   32MOL   C57432256   6.597   1.255   1.724  1.2922 -0.3584 -0.2023
   32MOL   C57532257   6.562   1.197   1.599 -0.5565  0.7854 -0.4770
   32MOL   C57632258   6.656   1.126   1.529 -0.3151 -0.1219  0.0831
   32MOL   C57732259   6.792   1.136   1.566 -0.3820  0.9132  0.1338
   32MOL   N57832260   6.893   1.072   1.495  0.7199 -0.1566  0.3112
   32MOL   C57932261   6.920   0.936   1.509 -0.6364  0.0158 -0.3140
   32MOL   C58032262   7.046   0.887   1.475  0.2562  0.5981  0.6794
   32MOL   C58132263   7.077   0.750   1.483  0.2685 -0.1188  0.0365
   32MOL   C58232264   6.980   0.661   1.531  0.0741 -0.0393 -0.2400
   32MOL   C58332265   7.012   0.518   1.537  0.2961  0.4384 -0.1183
   32MOL   C58432266   6.854   0.710   1.571 -0.4431 -0.0256 -0.6508
   32MOL   C58532267   6.824   0.848   1.560  0.2346 -0.6875  0.2936
   32MOL   C58632268   6.833   1.205   1.676  0.6571 -0.5571 -0.3419
   32MOL   C58732269   6.729   1.256   1.757  0.1082  0.0383 -0.9568
   32MOL   C58832270   6.395   1.386   2.014  0.7337  0.0605  0.3595
   32MOL   C58932271   6.373   1.389   2.150 -0.4023  0.0050 -0.3858
   32MOL   C59032272   6.416   1.217   2.605 -0.0428 -0.1464 -1.0090
   32MOL   C59132273   6.432   1.111   2.700  0.0966 -0.5741 -0.2512
   32MOL   H59232274   6.491   0.895   2.825 -1.3935 -0.0867  1.3642
   32MOL   H59332275   6.442   0.848   2.482 -1.0565 -1.0813  2.8897
   32MOL   H59432276   6.407   1.033   2.321 -0.6337 -3.5762  0.1474
   32MOL   H59532277   6.378   1.387   2.418 -0.3678  0.1720 -0.9105
   32MOL   H59632278   6.575   1.130   2.226 -1.3125  0.6323  0.9945
   32MOL   H59732279   6.610   1.126   1.996 -1.0616 -0.9916  0.4686
   32MOL   H59832280   6.425   1.352   1.764  0.3413 -0.0482 -0.2104
   32MOL   H59932281   6.461   1.195   1.560  0.1550  0.5439 -2.3574
   32MOL   H60032282   6.619   1.071   1.444  1.9481  0.9244 -1.6368
   32MOL   H60132283   6.965   1.132   1.458 -1.3833  0.3845 -3.0977
   32MOL   H60232284   7.117   0.955   1.428  2.2857 -0.4168  2.2127
   32MOL   H60332285   7.176   0.711   1.464  0.4981 -0.2750  1.5049
   32MOL   H60432286   7.064   0.482   1.448 -1.3963  0.0950 -1.0038
   32MOL   H60532287   6.914   0.472   1.550 -0.3016  1.9208  0.7540
   32MOL   H60632288   6.776   0.649   1.613  1.1074 -0.5779  1.5159
   32MOL   H60732289   6.731   0.870   1.608  0.6625 -1.7793  1.6584
   32MOL   H60832290   6.937   1.219   1.700  0.7739  1.0619 -1.7325
   32MOL   H60932291   6.745   1.299   1.855 -0.0813 -0.0164 -0.9016
   32MOL   H61032292   6.359   1.464   1.948 -0.1943 -0.9384 -0.3246
   32MOL   H61132293   6.297   1.454   2.191  0.9451  1.2711  0.1933
   32MOL   H61232294   6.417   1.319   2.642 -0.6747 -0.1010 -1.1223
   32MOL   H61332295   6.427   1.126   2.807  1.4570 -1.5842 -0.0369
   32MOL   N61432296   7.087   0.491   1.658  0.1293  0.1801  0.2192
   32MOL   C61532297   7.133   0.369   1.690  0.0353 -0.0841  0.4078
   32MOL   C61632298   7.076   0.246   1.650  0.5189  0.6340  0.6791
   32MOL   C61732299   7.138   0.120   1.671  0.0697 -0.2361 -0.1615
   32MOL   C61832300   7.262   0.115   1.731  0.2389 -0.6995 -0.1397
   32MOL   N61932301   7.321   7.970   1.728 -0.2811  0.1798  0.2206
   32MOL   C62032302   7.353   7.894   1.843  0.5907 -0.0005  0.1388
   32MOL   C62132303   7.362   7.952   1.974  0.0785  0.4455 -0.2929
   32MOL   C62232304   7.384   7.876   2.091 -0.3772 -0.2151  0.5482
   32MOL   C62332305   7.422   7.736   2.076  0.3278 -0.2840 -0.5140
   32MOL   N62432306   7.444   7.655   2.189 -0.3043 -0.3696  0.0442
   32MOL   C62532307   7.507   7.533   2.206 -0.1640  0.7299 -0.3538
   32MOL   C62632308   7.450   7.449   2.305  0.5917 -0.2816  0.2490
   32MOL   C62732309   7.506   7.322   2.322 -0.3996 -0.0740 -0.0718
   32MOL   C62832310   7.621   7.273   2.248  0.7147 -0.1004  0.3391
   32MOL   N62932311   7.687   7.156   2.276 -0.1605  0.3438 -0.7388
   32MOL   C63032312   7.824   7.143   2.276  0.3065  0.8819  0.3050
   32MOL   C63132313   7.911   7.249   2.309 -0.2930 -0.4617 -0.6645
   32MOL   C63232314   0.070   7.231   2.332  0.0069 -0.0618 -0.1684
   32MOL   C63332315   0.123   7.107   2.308  0.2956  0.2834 -0.0377
   32MOL   C63432316   0.276   7.087   2.312 -0.9698 -0.3376 -0.6865
   32MOL   C63532317   0.036   6.996   2.283 -1.0563 -0.5732  0.4290
   32MOL   C63632318   7.878   7.009   2.268  0.2763 -0.0277 -1.0000
   32MOL   C63732319   7.671   7.357   2.146  0.3002 -0.8339  0.0662
   32MOL   C63832320   7.611   7.488   2.122 -0.2301  0.6266 -0.1191
   32MOL   C63932321   7.417   7.682   1.949  0.3167 -0.2011 -0.6282
   32MOL   C64032322   7.380   7.755   1.835 -0.5127  0.1715  0.0497
   32MOL   C64132323   7.321   0.234   1.779  0.3375  0.1101  0.4867
   32MOL   C64232324   7.258   0.358   1.757  0.4292 -0.6997  0.0003
   32MOL   H64332325   7.131   0.570   1.702 -1.3194 -0.5015  3.0661
   32MOL   H64432326   6.987   0.250   1.588  1.5264 -0.7523 -0.8846
   32MOL   H64532327   7.089   0.029   1.637  0.2003 -1.3526  2.4785
   32MOL   H64632328   7.321   7.920   1.640 -1.6611 -0.8980  0.8095
   32MOL   H64732329   7.349   0.076   1.989  1.1001  0.6507 -0.7801
   32MOL   H64832330   7.381   7.923   2.188 -0.6503 -0.8703  0.8582
   32MOL   H64932331   7.410   7.700   2.273  0.3980 -0.9933  0.6735
   32MOL   H65032332   7.364   7.481   2.362  1.7866  2.1796  0.7598
   32MOL   H65132333   7.460   7.262   2.398 -1.0534 -1.8731 -1.8624
   32MOL   H65232334   7.647   7.088   2.340 -0.1599  0.6517 -0.4148
   32MOL   H65332335   7.873   7.349   2.322  2.1132  0.1391  2.6705
   32MOL   H65432336   0.123   7.323   2.351  1.8938 -0.9539 -1.0278
   32MOL   H65532337   0.305   7.138   2.221 -2.0588  0.0393 -0.8305
   32MOL   H65632338   0.306   6.982   2.312 -0.5430 -0.2674  2.1771
   32MOL   H65732339   0.081   6.899   2.268 -0.8257 -0.4360  0.2557
   32MOL   H65832340   7.811   6.927   2.246 -1.0718  0.6721  0.3407
   32MOL   H65932341   7.751   7.322   2.082  0.4977  1.1490 -0.7986
   32MOL   H66032342   7.648   7.547   2.039 -1.8640  1.7832 -0.0480
   32MOL   H66132343   7.451   7.582   1.926 -0.4470 -0.2274 -1.6555
   32MOL   H66232344   7.386   7.705   1.740  0.4978 -0.9261  0.6869
   32MOL   H66332345   7.420   0.224   1.822  0.3258  2.2023  1.0075
   32MOL   H66432346   7.312   0.443   1.794  1.3020 -0.6009 -1.4649
   32MOL   N66532347   0.349   7.143   2.426 -0.6556  0.2067 -0.2287
   32MOL   C66632348   0.493   7.145   2.438  1.0406  0.4702 -0.9575
   32MOL   C66732349   0.575   7.087   2.337  0.7219  0.5910  0.4309
   32MOL   C66832350   0.717   7.077   2.353  0.4076  0.9771  0.4458
   32MOL   C66932351   0.771   7.124   2.476 -0.1241  0.1680  0.0534
   32MOL   N67032352   0.915   7.120   2.494 -0.9446  0.1139  0.1259
   32MOL   C67132353   0.991   7.117   2.616  0.0377 -0.0597 -0.5920
   32MOL   C67232354   0.950   7.037   2.725 -0.2711  0.3822  0.0153
   32MOL   C67332355   1.029   7.028   2.839 -0.4738 -0.4790  0.6630
   32MOL   C67432356   1.150   7.096   2.851 -0.2783  0.2707  0.0165
   32MOL   N67532357   1.213   7.107   2.976 -0.5005  0.1821 -0.0481
   32MOL   C67632358   1.349   7.093   2.997 -0.0575 -0.1044  0.3135
   32MOL   C67732359   1.399   7.158   3.109 -0.0902  0.5887  0.0121
   32MOL   C67832360   1.526   7.128   3.152  0.1297 -0.6572  0.1492
   32MOL   C67932361   1.608   7.037   3.078  0.1227 -1.0976  0.6043
   32MOL   N68032362   1.737   7.003   3.119 -0.2161  0.5717 -0.0542
   32MOL   C68132363   1.790   7.015   3.249 -0.9534 -0.8831 -0.1392
   32MOL   C68232364   1.709   6.967   3.353 -0.3997  0.5946  0.8956
   32MOL   C68332365   1.744   6.979   3.486  0.4705  0.4890  0.6626
   32MOL   C68432366   1.857   7.058   3.518  0.1313  0.1408 -0.0179
   32MOL   C68532367   1.894   7.089   3.662  0.2558 -0.2316 -0.1830
   32MOL   C68632368   1.935   7.111   3.412  0.0574 -0.3006 -0.2263
   32MOL   C68732369   1.903   7.083   3.278  0.2838  0.1074 -0.4231
   32MOL   C68832370   1.566   6.996   2.952 -1.0777  0.2561  0.0277
   32MOL   C68932371   1.432   7.022   2.914 -0.2596 -0.2081  0.5147
   32MOL   C69032372   1.199   7.169   2.741 -0.2275 -0.0088  0.2156
   32MOL   C69132373   1.119   7.176   2.623 -0.3374 -0.2941  0.5382
   32MOL   C69232374   0.687   7.177   2.575 -0.6462 -0.0261  0.4979
   32MOL   C69332375   0.547   7.193   2.553  0.3000  0.1736  0.1468
   32MOL   H69432376   0.294   7.200   2.490 -1.3525 -1.2424  0.4788
   32MOL   H69532377   0.534   7.049   2.244 -0.2837  1.2144  0.6106
   32MOL   H69632378   0.789   7.044   2.279  0.5558  0.0301  1.0018
   32MOL   H69732379   0.961   7.168   2.418 -1.2275 -2.3762 -1.6421
   32MOL   H69832380   0.858   6.982   2.720  0.7654 -1.4069  0.2328
   32MOL   H69932381   1.000   6.965   2.921  1.2848 -0.4683  1.3177
   32MOL   H70032382   1.146   7.100   3.050 -0.0286 -0.7239  0.3030
   32MOL   H70132383   1.345   7.228   3.172 -0.3204  0.2646  0.1744
   32MOL   H70232384   1.556   7.167   3.248  2.2225  0.0665 -0.7589
   32MOL   H70332385   1.802   6.998   3.042 -0.6148 -2.1973 -0.2559
   32MOL   H70432386   1.619   6.910   3.336 -0.0700  0.5271 -0.6825
   32MOL   H70532387   1.682   6.940   3.565  1.7182 -1.0176  0.9362
   32MOL   H70632388   1.831   7.039   3.736 -0.7117 -0.2863 -1.0250
   32MOL   H70732389   1.892   7.196   3.679  0.6455 -0.2172 -0.2262
   32MOL   H70832390   2.024   7.171   3.428 -0.1491  0.1289 -0.6662
   32MOL   H70932391   1.963   7.109   3.192 -1.1691  1.4895 -1.0535
   32MOL   H71032392   1.629   6.941   2.885  0.7775  2.3125  0.0399
   32MOL   H71132393   1.393   6.977   2.823  1.2534  0.3813 -0.4606
   32MOL   H71232394   1.299   7.209   2.731 -2.0821  5.0160  0.7708
   32MOL   H71332395   1.160   7.238   2.545 -0.1428  0.5760  1.3244
   32MOL   H71432396   0.731   7.226   2.660 -1.8235  0.0081  1.0921
   32MOL   H71532397   0.478   7.240   2.623 -0.6242  0.4641 -0.9373
   32MOL   N71632398   2.031   7.048   3.686 -0.0950 -0.1924  0.1889
   32MOL   C71732399   2.067   7.018   3.822 -0.1510 -0.4857 -0.0146
   32MOL   C71832400   2.033   7.105   3.931  0.1342  0.3034  0.2822
   32MOL   C71932401   2.046   7.058   4.060  0.5975 -0.0356  0.3151
   32MOL   C72032402   2.099   6.932   4.084 -0.2745 -0.2432  0.4805
   32MOL   N72132403   2.120   6.879   4.221  0.1148 -0.1773  0.3539
   32MOL   C72232404   2.095   6.950   4.335  0.1724 -0.3071 -0.0666
   32MOL   C72332405   1.984   6.924   4.418  0.7503  0.2349  0.1548
   32MOL   C72432406   1.956   7.009   4.528  0.2015  0.1332 -0.0686
   32MOL   C72532407   2.037   7.126   4.538  0.2725 -0.7314  0.4009
   32MOL   N72632408   2.006   7.219   4.635  0.5832  0.0960  0.5565
   32MOL   C72732409   1.929   7.337   4.612 -1.2175 -0.4184  0.3517
   32MOL   C72832410   1.932   7.455   4.694 -0.3542 -0.0164  0.3686
   32MOL   C72932411   1.859   7.569   4.656  0.2332  0.8791 -1.0795
   32MOL   C73032412   1.774   7.565   4.545  0.3613 -0.1368  0.6747
   32MOL   N73132413   1.685   7.678   4.532  0.0111  0.1583 -0.3483
   32MOL   C73232414   1.647   7.737   4.410 -0.3653 -0.4543  0.0493
   32MOL   C73332415   1.536   7.827   4.417 -0.0665 -0.4550 -0.9827
   32MOL   C73432416   1.490   7.899   4.306  0.2319  0.5741 -0.1681
   32MOL   C73532417   1.554   7.880   4.186 -0.2325  0.0747  0.3458
   32MOL   C73632418   1.510   7.968   4.073 -0.1546  0.4843  0.2061
   32MOL   C73732419   1.652   7.774   4.169  0.3278 -0.2274  0.0530
   32MOL   C73832420   1.708   7.715   4.282  0.1790  0.0226 -0.1263
   32MOL   C73932421   1.759   7.452   4.467 -0.3470  0.3369  0.6032
   32MOL   C74032422   1.834   7.339   4.501 -0.3917 -0.4606  0.5545
   32MOL   C74132423   2.144   7.148   4.453 -0.1374 -0.6358  0.3346
   32MOL   C74232424   2.176   7.059   4.353 -0.3026  1.2054  0.1502
   32MOL   C74332425   2.150   6.856   3.976  0.1101  0.5301 -0.5922
   32MOL   C74432426   2.134   6.899   3.844  0.0462  0.1446 -0.5372
   32MOL   H74532427   2.057   6.989   3.608 -2.0775  1.4412 -1.7875
   32MOL   H74632428   1.976   7.194   3.909 -1.7498 -1.2692 -1.3095
   32MOL   H74732429   2.008   7.117   4.141 -4.5106 -0.5013 -1.5595
   32MOL   H74832430   2.119   6.781   4.244  0.2497  0.3145  2.5175
   32MOL   H74932431   1.922   6.839   4.397 -1.3148  1.8828 -0.5956
   32MOL   H75032432   1.869   6.993   4.590  1.4711  0.4486  1.8008
   32MOL   H75132433   2.081   7.244   4.698 -0.9836  0.0513  2.5046
   32MOL   H75232434   1.992   7.461   4.783 -0.3585 -0.0890  0.3759
   32MOL   H75332435   1.869   7.656   4.720 -0.6437 -1.0136  1.7461
   32MOL   H75432436   1.627   7.693   4.614 -0.1444  0.7887 -0.5705
   32MOL   H75532437   1.494   7.837   4.516  1.1277 -2.1669 -0.2726
   32MOL   H75632438   1.404   7.963   4.314  0.5698  1.1148 -0.8146
   32MOL   H75732439   1.577   7.949   3.989  0.1236 -2.9070  1.1409
   32MOL   H75832440   1.531   0.088   4.106  1.3928  0.8757 -1.8538
   32MOL   H75932441   1.709   7.765   4.078  1.2035  0.1428  0.5567
   32MOL   H76032442   1.783   7.638   4.271 -0.5059 -0.7464  0.6104
   32MOL   H76132443   1.690   7.457   4.384  0.3076  0.3723  0.0564
   32MOL   H76232444   1.814   7.253   4.438  0.0299 -0.0941 -0.0803
   32MOL   H76332445   2.196   7.242   4.463 -1.8673  0.5596 -1.6369
   32MOL   H76432446   2.256   7.068   4.282 -0.8881 -2.6967 -1.1597
   32MOL   H76532447   2.193   6.759   3.997 -1.3154  0.3063  1.3936
   32MOL   H76632448   2.164   6.835   3.762 -1.1228  0.2611 -1.0588
   32MOL   N76732449   1.373   7.954   4.038  0.7731  0.0641  0.4037
   32MOL   C76832450   1.327   7.840   3.969  0.1836 -0.2518  0.6639
   32MOL   C76932451   1.189   7.823   3.944 -0.8157  0.1296 -0.4333
   32MOL   C77032452   1.146   7.717   3.860  0.1878  0.2557 -0.3998
   32MOL   C77132453   1.239   7.624   3.807 -0.1255 -0.3596  0.8060
   32MOL   N77232454   1.199   7.524   3.711  0.1068  0.3732  0.0937
   32MOL   C77332455   1.068   7.478   3.697 -1.1593 -0.4475 -0.4014
   32MOL   C77432456   0.990   7.441   3.808 -0.1542 -0.3444 -0.3374
   32MOL   C77532457   0.858   7.386   3.796 -0.2513 -0.6810 -0.0301
   32MOL   C77632458   0.801   7.381   3.664  0.5495 -0.5276 -0.4444
   32MOL   N77732459   0.663   7.349   3.647  0.3248  0.7134  0.0618
   32MOL   C77832460   0.593   7.272   3.556  0.6503  0.3091 -0.3259
   32MOL   C77932461   0.453   7.263   3.566 -0.1635 -0.0683  0.0000
   32MOL   C78032462   0.376   7.179   3.484 -0.0483 -0.3318 -0.7226
   32MOL   C78132463   0.440   7.109   3.374 -0.0518  0.8362 -0.1050
   32MOL   N78232464   0.362   7.056   3.271 -0.5320 -0.7691 -0.0691
   32MOL   C78332465   0.249   7.125   3.219 -0.5343  0.1698  0.2254
   32MOL   C78432466   0.148   7.044   3.157  0.3305 -0.9583 -0.7651
   32MOL   C78532467   0.029   7.107   3.103 -0.0174 -0.2822  0.1286
   32MOL   C78632468   0.030   7.250   3.099 -0.0576  0.4041 -0.1674
   32MOL   C78732469   7.901   7.316   3.024 -0.0211 -0.2258 -0.8052
   32MOL   C78832470   0.132   7.328   3.146 -0.6970  0.3942 -0.2284
   32MOL   C78932471   0.242   7.264   3.206 -0.5468  0.3902 -0.6970
   32MOL   C79032472   0.576   7.111   3.365 -0.7857 -0.2151  0.3059
   32MOL   C79132473   0.653   7.190   3.457 -0.6010  0.2543 -0.6933
   32MOL   C79232474   0.881   7.415   3.548  0.0498  0.4088 -0.8174
   32MOL   C79332475   1.013   7.466   3.568  0.2316  0.1820 -0.0703
   32MOL   C79432476   1.379   7.640   3.833  0.5406  0.5715  0.4832
   32MOL   C79532477   1.417   7.749   3.911 -0.3632  0.5239 -0.3046
   32MOL   H79632478   1.301   0.029   4.080 -0.2332 -0.8400 -0.0950
   32MOL   H79732479   1.120   7.892   3.990  0.4112  0.5204  0.8508
   32MOL   H79832480   1.043   7.698   3.836  0.2870 -0.2520 -0.4463
   32MOL   H79932481   1.256   7.513   3.629 -1.6586  2.1762 -1.4264
   32MOL   H80032482   1.040   7.455   3.902  0.4180 -0.8938 -0.5498
   32MOL   H80132483   0.798   7.351   3.878 -0.1809 -1.6068 -0.3668
   32MOL   H80232484   0.628   7.319   3.737  0.3261  1.9771  0.4899
   32MOL   H80332485   0.408   7.313   3.651 -0.8965 -0.7414  0.0102
   32MOL   H80432486   0.270   7.175   3.505  0.1903 -2.1260  0.2263
   32MOL   H80532487   0.415   7.010   3.199 -0.0017  0.8553 -0.7339
   32MOL   H80632488   0.157   6.936   3.161 -1.1645 -1.0434  0.7665
   32MOL   H80732489   7.923   7.058   3.064  0.9120 -0.7389 -1.4471
   32MOL   H80832490   7.813   7.252   3.028  1.7091 -2.6266 -0.4047
   32MOL   H80932491   7.924   7.315   2.918  0.4921 -0.3742 -0.6960
   32MOL   H81032492   0.149   7.431   3.122  1.8758 -0.1510 -0.8086
   32MOL   H81132493   0.319   7.329   3.244  0.8451 -0.5561 -1.8746
   32MOL   H81232494   0.630   7.060   3.286 -1.0984  1.4917 -1.0424
   32MOL   H81332495   0.761   7.190   3.455 -0.5972 -0.2750 -0.6226
   32MOL   H81432496   0.838   7.404   3.450 -1.1364  1.4322 -0.4234
   32MOL   H81532497   1.067   7.500   3.482  1.6908 -0.3013  0.6498
   32MOL   H81632498   1.454   7.573   3.793 -0.3563  0.5069 -1.1075
   32MOL   H81732499   1.525   7.757   3.907 -0.2901 -0.0304  0.4664
   32MOL   N81832500   7.867   7.448   3.087 -0.0673  0.6159 -0.3695
   32MOL   C81932501   7.854   7.568   3.010 -0.5459  0.4385  0.3786
   32MOL   C82032502   7.831   7.560   2.869 -0.2539 -1.0133 -0.3827
   32MOL   C82132503   7.809   7.675   2.790 -0.5127  0.3652 -0.5637
   32MOL   C82232504   7.819   7.800   2.849 -0.2683  0.8322 -0.0809
   32MOL   N82332505   7.798   7.909   2.771  0.1212 -0.0145  0.6600
   32MOL   C82432506   7.867   0.047   2.787  0.0937 -0.0065 -0.3205
   32MOL   C82532507   0.011   0.051   2.860 -0.0242 -0.3289  0.5351
   32MOL   C82632508   0.072   0.179   2.875 -0.2454 -0.0628 -0.5356
   32MOL   C82732509   0.001   0.296   2.844  0.5024  0.4215  0.1782
   32MOL   N82832510   0.051   0.424   2.878  0.3378 -0.0084  0.1030
   32MOL   C82932511   0.043   0.548   2.809  0.2438 -0.0959  0.3556
   32MOL   C83032512   0.002   0.567   2.675 -0.4929  0.1260  0.4579
   32MOL   C83132513   7.976   0.697   2.627  0.7903 -0.8401  0.2840
   32MOL   C83232514   0.017   0.812   2.704 -0.0560 -0.4760 -0.1310
   32MOL   N83332515   0.011   0.943   2.657  0.5093 -0.2575 -0.1410
   32MOL   C83432516   0.108   1.046   2.654  0.2602  0.3605  0.0013
   32MOL   C83532517   0.066   1.183   2.647 -0.4156 -0.5570 -0.5770
   32MOL   C83632518   0.156   1.291   2.637 -1.0205  0.0215 -0.2551
   32MOL   C83732519   0.292   1.257   2.643 -0.2292  0.4299 -0.1726
   32MOL   C83832520   0.399   1.365   2.629 -0.1497 -0.6772  1.1173
   32MOL   C83932521   0.336   1.133   2.667  0.4312 -0.0331  0.6111
   32MOL   C84032522   0.245   1.021   2.671  0.5795 -0.5762 -0.1511
   32MOL   C84132523   0.062   0.795   2.839 -0.0258 -0.0783 -0.0512
   32MOL   C84232524   0.068   0.662   2.888  0.0323 -0.3038 -0.6285
   32MOL   C84332525   7.867   0.283   2.766 -0.1922 -0.2165  0.5050
   32MOL   C84432526   7.809   0.165   2.734  0.0721  0.2311 -0.2348
   32MOL   C84532527   7.838   7.812   2.988 -0.0191 -0.0892 -0.2017
   32MOL   C84632528   7.853   7.696   3.068 -0.4341  0.1777 -0.3172
   32MOL   H84732529   7.836   7.451   3.183  1.3677  0.6842  0.0922
   32MOL   H84832530   7.814   7.464   2.823 -0.5617 -0.7952 -0.7126
   32MOL   H84932531   7.793   7.657   2.685 -0.3820 -0.5871 -0.4214
   32MOL   H85032532   7.773   7.882   2.677 -0.7690  0.1083  0.8582
   32MOL   H85132533   0.061   7.942   2.888 -2.6428 -1.8590  0.4225
   32MOL   H85232534   0.169   0.185   2.921 -0.6980  0.0609  0.4081
   32MOL   H85332535   0.103   0.429   2.964  0.7145 -0.7144 -0.0747
   32MOL   H85432536   7.959   0.489   2.605  2.4437 -3.1915  2.8915
   32MOL   H85532537   7.940   0.716   2.527 -3.7991 -2.9111  1.4191
   32MOL   H85632538   7.903   0.971   2.622  1.1081  0.8297 -0.8543
   32MOL   H85732539   7.942   1.205   2.641 -0.3544  0.1117  0.6064
   32MOL   H85832540   0.130   1.395   2.625 -0.8566  0.2038  0.9367
   32MOL   H85932541   0.497   1.321   2.647 -0.1318 -1.0993  0.0202
   32MOL   H86032542   0.378   1.444   2.701 -0.9280 -0.0351  0.2058
   32MOL   H86132543   0.443   1.115   2.672  0.7566  1.8188  0.6867
   32MOL   H86232544   0.280   0.920   2.684  0.3103 -0.9769 -2.3159
   32MOL   H86332545   0.095   0.883   2.893  1.5196 -0.7810  0.1968
   32MOL   H86432546   0.097   0.642   2.991 -0.0154  0.2151 -0.5158
   32MOL   H86532547   7.822   0.378   2.741  0.0978  0.5707  2.8317
   32MOL   H86632548   7.719   0.177   2.675  1.6562  1.9163 -2.4017
   32MOL   H86732549   7.847   7.911   3.031  3.1575 -0.8121  0.9092
   32MOL   H86832550   7.849   7.706   3.175  0.2957 -0.5807 -0.2175
   32MOL   N86932551   0.396   1.429   2.500 -0.8635  0.0351 -0.0600
   32MOL   C87032552   0.413   1.566   2.497  0.9767 -0.3075 -0.2187
   32MOL   C87132553   0.541   1.616   2.518 -0.5084 -0.5663 -1.1494
   32MOL   C87232554   0.560   1.755   2.514  0.2953 -0.8152 -0.2416
   32MOL   C87332555   0.456   1.849   2.492  0.2412 -0.4716  0.1004
   32MOL   N87432556   0.473   1.990   2.490  0.1188 -0.5755  0.1062
   32MOL   C87532557   0.585   2.068   2.519  0.0496  0.0444 -0.1030
   32MOL   C87632558   0.653   2.126   2.419 -0.0168 -0.3163 -0.3023
   32MOL   C87732559   0.774   2.197   2.449  1.3848 -0.4798  0.3850
   32MOL   C87832560   0.837   2.185   2.571  0.2295 -0.2082  0.4424
   32MOL   N87932561   0.958   2.249   2.594 -0.5293  0.1540  0.1594
   32MOL   C88032562   1.047   2.231   2.694 -0.0783  0.1745 -0.5334
   32MOL   C88132563   1.097   2.101   2.738  0.1385 -0.1357 -0.1933
   32MOL   C88232564   1.194   2.087   2.836 -0.5299 -0.3788  0.1810
   32MOL   C88332565   1.245   2.206   2.902 -0.5494  0.0609  0.3359
   32MOL   N88432566   1.341   2.180   2.999  0.6833  0.0102 -0.3132
   32MOL   C88532567   1.432   2.269   3.058 -0.1559 -0.6346 -0.1532
   32MOL   C88632568   1.505   2.361   2.983 -0.5743 -0.6455 -0.2493
   32MOL   C88732569   1.586   2.462   3.046  0.1721 -0.2899  0.0016
   32MOL   C88832570   1.607   2.461   3.184 -0.3968  0.1809 -0.3681
   32MOL   C88932571   1.718   2.560   3.242  1.0187 -0.4270 -0.5445
   32MOL   C89032572   1.536   2.364   3.268 -0.2325  0.5099 -0.2542
   32MOL   C89132573   1.445   2.276   3.199  0.0018  0.6260  0.1368
   32MOL   C89232574   1.196   2.330   2.862 -0.3987  0.2707 -0.5868
   32MOL   C89332575   1.101   2.342   2.759  0.0594  0.3667 -0.0153
   32MOL   C89432576   0.765   2.111   2.669  0.5052 -0.1426 -0.2413
   32MOL   C89532577   0.640   2.057   2.645  0.8261  0.2102 -0.0498
   32MOL   C89632578   0.328   1.791   2.482  1.0274 -0.9341  0.0412
   32MOL   C89732579   0.304   1.654   2.483  0.7352 -0.3799  0.2985
   32MOL   H89832580   0.465   1.381   2.443 -0.3356 -2.2946  2.4185
   32MOL   H89932581   0.632   1.560   2.522 -0.1234  0.0293 -1.4723
   32MOL   H90032582   0.660   1.796   2.518 -0.1841  0.2665  1.2781
   32MOL   H90132583   0.407   2.037   2.429  1.9275 -0.5115 -1.8566
   32MOL   H90232584   0.607   2.136   2.322 -0.4698  2.8412  0.1795
   32MOL   H90332585   0.822   2.256   2.373  1.9149 -1.1820  0.1717
   32MOL   H90432586   0.977   2.325   2.529  0.6907  0.4098  0.7979
   32MOL   H90532587   1.066   2.006   2.698 -0.0604  0.2674 -1.0013
   32MOL   H90632588   1.230   1.987   2.857  0.0238  0.0090  1.1096
   32MOL   H90732589   1.339   2.092   3.049  0.4952 -0.7637 -1.6463
   32MOL   H90832590   1.494   2.368   2.876  2.1143 -0.0254 -0.5079
   32MOL   H90932591   1.639   2.536   2.987 -2.6396  1.2294 -0.6940
   32MOL   H91032592   1.663   2.644   3.284 -0.3297 -1.8331  0.5572
   32MOL   H91132593   1.775   2.606   3.161 -0.0474 -1.4557 -1.9229
   32MOL   H91232594   1.529   2.375   3.375 -3.3112 -1.8969 -0.1416
   32MOL   H91332595   1.404   2.208   3.273 -2.3544  1.7273 -0.1250
   32MOL   H91432596   1.216   2.422   2.914 -0.8435  0.0656 -0.0420
   32MOL   H91532597   1.056   2.438   2.740  0.4042  0.3435 -0.9968
   32MOL   H91632598   0.800   2.101   2.771 -0.3435  0.2743  0.0889
   32MOL   H91732599   0.580   2.000   2.714  0.7832  1.7521  1.2241
   32MOL   H91832600   0.248   1.861   2.462  1.7364 -0.5122 -1.3945
   32MOL   H91932601   0.204   1.614   2.470  0.3571  0.1104  1.5828
   32MOL   N92032602   1.817   2.499   3.327  0.5603  0.2500  0.2441
   32MOL   C92132603   1.895   2.584   3.413  0.1707 -0.0780  0.4077
   32MOL   C92232604   2.005   2.523   3.475  0.1640 -0.7946 -0.3066
   32MOL   C92332605   2.098   2.596   3.552  0.3577 -0.6292 -0.3058
   32MOL   C92432606   2.080   2.734   3.557 -0.1442  0.2825  0.0601
   32MOL   N92532607   2.172   2.823   3.618 -0.1068 -0.7226  0.0508
   32MOL   C92632608   2.314   2.827   3.604 -0.1157  0.0074 -0.4285
   32MOL   C92732609   2.392   2.726   3.531 -0.2889  0.1736  0.0843
   32MOL   C92832610   2.534   2.740   3.530  0.3439 -0.0563 -0.6619
   32MOL   C92932611   2.602   2.853   3.589  0.3743 -0.1404  0.6778
   32MOL   N93032612   2.736   2.871   3.577  0.1560  0.8786 -0.2260
   32MOL   C93132613   2.815   2.970   3.631 -0.3011 -0.4216 -0.5003
   32MOL   C93232614   2.920   3.018   3.560  0.0342 -0.6848  0.3769
   32MOL   C93332615   2.992   3.132   3.597  0.3335 -0.5377 -0.4283
   32MOL   C93432616   2.957   3.196   3.717  0.2840  0.4162  0.2593
   32MOL   N93532617   3.020   3.318   3.748 -0.1372  0.0132  0.3694
   32MOL   C93632618   3.020   3.394   3.867  0.8875  0.1951 -0.4614
   32MOL   C93732619   2.986   3.532   3.867  0.0260 -0.2002  0.6573
   32MOL   C93832620   3.021   3.606   3.981  0.6332  0.5041  0.2241
   32MOL   C93932621   3.068   3.538   4.093 -0.0102  0.2946 -0.6148
   32MOL   C94032622   3.091   3.617   4.218  0.0531  0.5390 -0.6753
   32MOL   C94132623   3.089   3.406   4.102 -0.3501 -0.2473 -0.1718
   32MOL   C94232624   3.064   3.336   3.984  0.3956 -0.1224  0.5095
   32MOL   C94332625   2.862   3.135   3.805 -0.1143 -0.2061  0.2872
   32MOL   C94432626   2.798   3.022   3.767 -0.0053  0.3205 -0.0894
   32MOL   C94532627   2.523   2.960   3.638 -0.8401  0.4854  0.1716
   32MOL   C94632628   2.383   2.937   3.652  0.8932  0.2247 -0.1184
   32MOL   C94732629   1.972   2.798   3.494 -0.3133 -0.3087 -0.3723
   32MOL   C94832630   1.876   2.724   3.424 -0.4786  0.2790 -0.1596
   32MOL   H94932631   1.787   2.405   3.351 -0.0116  0.3478 -0.0556
   32MOL   H95032632   2.013   2.416   3.466  0.5920 -0.8760  0.9612
   32MOL   H95132633   2.186   2.545   3.589 -0.1801 -1.0083  0.4518
   32MOL   H95232634   2.139   2.910   3.655 -2.8647 -0.4537 -2.8715
   32MOL   H95332635   2.339   2.645   3.484 -0.2052  0.3171 -0.2564
   32MOL   H95432636   2.581   2.668   3.465  0.8448  0.3662 -0.7691
   32MOL   H95532637   2.780   2.805   3.514 -0.3749  0.2328  0.0744
   32MOL   H95632638   2.938   2.975   3.463  0.9126  0.0435  0.2131
   32MOL   H95732639   3.073   3.177   3.542  0.9341 -0.0326  0.8538
   32MOL   H95832640   3.079   3.359   3.677  0.7045 -0.3736  0.8484
   32MOL   H95932641   2.969   3.578   3.770  2.2053 -1.3440 -0.3145
   32MOL   H96032642   2.993   3.709   3.990  0.4862  0.5558 -0.7695
   32MOL   H96132643   2.995   3.626   4.269  0.9711 -2.9864  1.8180
   32MOL   H96232644   3.114   3.722   4.199 -3.6416  1.5228 -0.0852
   32MOL   H96332645   3.120   3.355   4.192  0.9926  0.9909  0.0890
   32MOL   H96432646   3.074   3.228   3.984  0.1240 -0.1599  2.1155
   32MOL   H96532647   2.833   3.182   3.898 -0.6789  1.6171 -0.7878
   32MOL   H96632648   2.729   2.977   3.837 -0.3416  0.5408 -0.2748
   32MOL   H96732649   2.559   3.056   3.673  1.0022  0.3807 -1.3522
   32MOL   H96832650   2.322   3.013   3.700 -1.0987 -0.5549 -1.3321
   32MOL   H96932651   1.958   2.904   3.504  0.3239 -0.0837 -1.7901
   32MOL   H97032652   1.794   2.775   3.376  0.6228  0.8528 -1.4822
   32MOL   N97132653   3.185   3.576   4.314  0.3933  0.4638 -0.7122
   32MOL   C97232654   3.201   3.636   4.438 -0.4825  0.0104 -0.3529
   32MOL   C97332655   3.149   3.762   4.463  0.5298 -0.5762 -0.1705
   32MOL   C97432656   3.181   3.830   4.581  0.1415 -0.6705 -0.1393
   32MOL   C97532657   3.252   3.771   4.685  0.6001  0.0649  0.3749
   32MOL   N97632658   3.290   3.844   4.802  0.2133  0.1887  0.7340
   32MOL   C97732659   3.209   3.935   4.864  0.5335  0.7508 -0.1237
   32MOL   C97832660   3.259   4.051   4.927 -0.2613 -0.0833  0.4818
   32MOL   C97932661   3.182   4.129   5.013  0.2938 -0.3420  0.6191
   32MOL   C98032662   3.039   4.119   5.009  0.2492 -0.4385 -0.4538
   32MOL   N98132663   2.960   4.195   5.101  0.5691 -0.0602  0.4531
   32MOL   C98232664   2.840   4.264   5.079  0.3453  0.6834 -0.7307
   32MOL   C98332665   2.745   4.262   5.185 -0.6967  0.1482  0.1116
   32MOL   C98432666   2.632   4.346   5.171 -0.4535  0.0605 -0.4931
   32MOL   C98532667   2.609   4.417   5.050 -0.0107  0.6791 -0.1141
   32MOL   N98632668   2.508   4.514   5.028 -0.2041  0.4269  0.4375
   32MOL   C98732669   2.383   4.531   5.087 -0.6776  0.1271  0.6662
   32MOL   C98832670   2.326   4.665   5.090 -1.0490  0.3975  1.0065
   32MOL   C98932671   2.204   4.691   5.153 -0.6103 -0.1533  0.1048
   32MOL   C99032672   2.139   4.596   5.226 -0.3703  0.3745 -0.0731
   32MOL   C99132673   2.006   4.621   5.288 -0.2326 -0.6581 -0.6610
   32MOL   C99232674   2.195   4.461   5.226  1.0539 -0.8014  0.3882
   32MOL   C99332675   2.312   4.426   5.154  0.1796  0.3579 -1.1305
   32MOL   C99432676   2.700   4.418   4.949  0.0212  0.7692 -0.4408
   32MOL   C99532677   2.816   4.338   4.962  0.0220 -0.0873 -0.3768
   32MOL   C99632678   2.982   4.010   4.931 -0.3301 -0.1464  0.1153
   32MOL   C99732679   3.068   3.911   4.874 -0.1018 -0.8108  0.2595
   32MOL   C99832680   3.303   3.637   4.664  0.5698  0.4206 -0.6278
   32MOL   C99932681   3.288   3.577   4.537 -1.2023 -0.1458 -0.0899
   32MOL     H132682   3.217   3.480   4.305 -0.8907 -0.0429  0.0691
   32MOL     H232683   3.092   3.823   4.394 -0.1207  2.4952  2.9766
   32MOL     H332684   3.137   3.929   4.590  1.3477  0.1365 -2.5009
   32MOL     H432685   3.373   3.814   4.852  0.1258  1.3181  1.5766
   32MOL     H532686   3.366   4.069   4.927 -0.3774  0.6518 -0.5789
   32MOL     H632687   3.231   4.202   5.075  1.6371 -0.5967 -0.1339
   32MOL     H732688   2.987   4.181   5.197  0.2772  0.7007  0.6490
   32MOL     H832689   2.762   4.199   5.271  2.6560  1.2379  0.3184
   32MOL     H932690   2.558   4.352   5.250 -1.2978  0.2778 -1.2831
   32MOL    H1032691   2.534   4.588   4.964 -0.8538  0.2089 -0.0835
   32MOL    H1132692   2.372   4.744   5.033 -1.1727  0.3136  0.7888
   32MOL    H1232693   2.157   4.788   5.147 -0.4952 -0.0701  0.5956
   32MOL    H1332694   1.936   4.675   5.223 -2.1291 -0.3591  1.5280
   32MOL    H1432695   2.020   4.688   5.373 -0.2716 -0.9982 -0.3859
   32MOL    H1532696   2.151   4.375   5.274  1.5870 -1.4466 -0.2455
   32MOL    H1632697   2.331   4.320   5.157 -0.8329  0.1964  0.8719
   32MOL    H1732698   2.692   4.471   4.855 -0.6351  0.4610 -0.5632
   32MOL    H1832699   2.891   4.358   4.888  0.4036  0.0820  0.0570
   32MOL    H1932700   2.880   3.976   4.937  0.5104 -2.8076  0.0349
   32MOL    H2032701   3.025   3.822   4.829 -0.4265  0.7557 -2.6306
   32MOL    H2132702   3.366   3.583   4.734  1.0903  2.4230  0.5073
   32MOL    H2232703   3.342   3.486   4.513  1.3243  1.3125 -0.1279
   32MOL    H2332704   1.965   4.526   5.323  1.0594 -0.4012  1.6175
   33MOL     N132705   1.863   4.998   1.338  0.1912 -0.4736  0.4141
   33MOL     C232706   1.894   5.060   1.457 -0.8240 -1.2052 -0.5941
   33MOL     C332707   1.792   5.142   1.512  0.4032  0.0973  1.1005
   33MOL     C432708   1.813   5.189   1.645  0.2956 -0.4809 -0.5063
   33MOL     C532709   1.940   5.175   1.704  0.9281  0.4627 -0.2815
   33MOL     N632710   1.967   5.227   1.828  0.4518 -0.8647  0.2066
   33MOL     C732711   1.912   5.338   1.889 -1.1930  0.2147  0.1372
   33MOL     C832712   1.880   5.451   1.812 -0.4484  0.1734 -0.1742
   33MOL     C932713   1.820   5.559   1.872  0.0374  0.3050 -0.1947
   33MOL    C1032714   1.820   5.570   2.014  0.9220 -0.6205 -0.1664
   33MOL    N1132715   1.778   5.687   2.079  0.5959 -0.1739 -0.0594
   33MOL    C1232716   1.692   5.783   2.028 -0.4660  0.3345  0.0852
   33MOL    C1332717   1.731   5.920   2.051 -0.6708  0.0499  0.0757
   33MOL    C1432718   1.660   6.023   1.986  0.5861 -0.3477 -0.3323
   33MOL    C1532719   1.546   5.993   1.906  0.2220  0.4308  0.3504
   33MOL    N1632720   1.477   6.111   1.856  0.5955  0.2930  0.2151
   33MOL    C1732721   1.340   6.134   1.858  0.4200 -0.2065 -0.6607
   33MOL    C1832722   1.255   6.038   1.809  0.9178 -0.0646  0.7023
   33MOL    C1932723   1.115   6.057   1.811 -0.1852  0.1154  0.0291
   33MOL    C2032724   1.056   6.177   1.859  1.2883 -0.8766  0.8472
   33MOL    C2132725   0.907   6.203   1.870 -0.0764 -0.4318 -0.4662
   33MOL    C2232726   1.145   6.276   1.913  0.3778  0.2404  0.0516
   33MOL    C2332727   1.277   6.252   1.910 -0.5521 -0.1647 -0.6626
   33MOL    C2432728   1.513   5.854   1.883  0.8849 -0.4679  0.4892
   33MOL    C2532729   1.585   5.749   1.945 -0.4660  0.1198  0.0400
   33MOL    C2632730   1.856   5.460   2.092  0.7833 -0.2129 -0.1060
   33MOL    C2732731   1.908   5.350   2.026 -0.1136  0.1681  1.5650
   33MOL    C2832732   2.042   5.101   1.641 -0.7368  0.4225  0.5321
   33MOL    C2932733   2.018   5.035   1.518 -0.4755  0.0292  0.4289
   33MOL    H3032734   1.815   5.057   1.272  0.7844  0.0465  0.4420
   33MOL    H3132735   1.695   5.157   1.468  0.7129 -1.9474 -0.3967
   33MOL    H3232736   1.734   5.244   1.693  1.5830  2.2150 -1.4022
   33MOL    H3332737   2.029   5.165   1.878 -1.0624 -2.9675 -0.4807
   33MOL    H3432738   1.879   5.450   1.704 -3.4757  2.6894 -0.2457
   33MOL    H3532739   1.784   5.639   1.808  0.4435  0.2900 -0.4419
   33MOL    H3632740   1.831   5.713   2.161  0.7987 -1.7278  0.3283
   33MOL    H3732741   1.822   5.947   2.102 -0.8220  2.1142 -0.7019
   33MOL    H3832742   1.693   6.125   1.994  0.2567 -0.2196 -0.5742
   33MOL    H3932743   1.527   6.195   1.879  0.6619  0.0596  0.9216
   33MOL    H4032744   1.279   5.940   1.772 -1.5515 -0.1935 -0.6719
   33MOL    H4132745   1.050   5.980   1.772 -1.1414 -0.4661  2.6283
   33MOL    H4232746   0.883   6.290   1.930 -1.7462 -1.6952  0.7526
   33MOL    H4332747   0.854   6.116   1.909  0.8565 -0.5849  0.4970
   33MOL    H4432748   1.109   6.371   1.951 -1.2441 -0.8229  1.2806
   33MOL    H4532749   1.348   6.327   1.943  1.4926 -1.0846 -2.8319
   33MOL    H4632750   1.423   5.825   1.831 -0.9807 -0.7069  3.7783
   33MOL    H4732751   1.549   5.647   1.937 -0.4692 -0.1716  3.3638
   33MOL    H4832752   1.836   5.448   2.197  2.2966 -0.2677  0.1872
   33MOL    H4932753   1.936   5.266   2.088 -0.2187 -1.1884 -0.2129
   33MOL    H5032754   2.137   5.085   1.690 -0.2670  0.7890 -0.2605
   33MOL    H5132755   2.088   4.964   1.477 -0.1933 -0.0949  1.1202
   33MOL    H5232756   1.922   4.938   1.283 -1.7642 -1.3532 -0.7619
   33MOL    N5332757   0.850   6.219   1.744 -0.0102 -0.0960  0.0633
   33MOL    C5432758   0.715   6.242   1.726  0.0291 -0.6509  0.4406
   33MOL    C5532759   0.657   6.184   1.610 -0.1038  0.1898 -0.3539
   33MOL    C5632760   0.516   6.193   1.606 -0.0981  0.9361  0.0737
   33MOL    C5732761   0.439   6.268   1.688 -0.6357  0.3623  0.2349
   33MOL    N5832762   0.308   6.301   1.647 -0.2951  0.0857 -0.6193
   33MOL    C5932763   0.209   6.375   1.716 -0.0817 -0.0058 -0.3129
   33MOL    C6032764   0.119   6.445   1.635  0.2371  0.2787  0.4251
   33MOL    C6132765   0.043   6.548   1.694  0.0188  0.1582 -0.2269
   33MOL    C6232766   0.038   6.567   1.838 -0.0371 -0.1648  0.3341
   33MOL    N6332767   7.946   6.670   1.896 -0.0047  0.1476 -0.0145
   33MOL    C6432768   7.981   6.802   1.918 -0.0477 -0.4037 -0.6249
   33MOL    C6532769   0.134   6.838   1.945  0.0496  0.0643 -0.0925
   33MOL    C6632770   0.173   6.974   1.959 -0.2807  0.6643 -1.0106
   33MOL    C6732771   0.074   7.066   1.951  0.2123 -0.4518 -1.2643
   33MOL    N6832772   0.115   7.199   1.978  0.1590 -0.0495 -0.3419
   33MOL    C6932773   0.050   7.316   1.937  0.1387 -0.1186 -0.4808
   33MOL    C7032774   0.018   7.421   2.024  0.0657 -0.5350  0.3801
   33MOL    C7132775   7.917   7.529   1.990  0.6298  0.3049 -0.5091
   33MOL    C7232776   7.867   7.534   1.854 -0.2081 -1.0658  0.2307
   33MOL    C7332777   7.790   7.652   1.807 -0.1162  0.4183 -0.6420
   33MOL    C7432778   7.910   7.436   1.763 -0.8128  0.3276  0.0130
   33MOL    C7532779   0.011   7.330   1.802  0.2526 -0.4718 -0.5809
   33MOL    C7632780   7.922   7.033   1.931 -0.0236 -0.1855  0.2847
   33MOL    C7732781   7.881   6.901   1.922  0.3693  1.0848  0.9571
   33MOL    C7832782   0.119   6.492   1.914  0.2369 -0.3244 -0.0362
   33MOL    C7932783   0.198   6.385   1.861 -0.0962  0.1323  0.5592
   33MOL    C8032784   0.505   6.335   1.791 -0.1340 -0.2734 -1.0242
   33MOL    C8132785   0.639   6.311   1.823 -0.4669 -0.1138 -0.1205
   33MOL    H8232786   0.908   6.190   1.666  0.0454 -0.4965  0.2555
   33MOL    H8332787   0.705   6.126   1.533  0.1373 -1.2033  0.8141
   33MOL    H8432788   0.469   6.135   1.527  1.4735  1.2817 -1.1355
   33MOL    H8532789   0.294   6.299   1.547 -0.6225  0.6508 -0.5880
   33MOL    H8632790   0.136   6.441   1.529 -0.1664  0.4532  0.3554
   33MOL    H8732791   7.965   6.613   1.631 -1.8067 -1.9796 -0.7580
   33MOL    H8832792   7.848   6.675   1.873  0.6371  3.7731 -2.3241
   33MOL    H8932793   0.202   6.754   1.945 -0.9470 -0.7521  0.7479
   33MOL    H9032794   0.274   6.995   1.988 -0.6523 -0.0230  0.8472
   33MOL    H9132795   0.139   7.199   2.077 -1.3975 -1.0738  0.0524
   33MOL    H9232796   0.053   7.416   2.126  0.0553 -0.9973  0.3596
   33MOL    H9332797   7.902   7.598   2.072  1.5574 -1.4227  1.1388
   33MOL    H9432798   7.703   7.617   1.752  0.4680 -0.3640 -1.0884
   33MOL    H9532799   7.839   7.713   1.731  1.4218  0.4883  0.3718
   33MOL    H9632800   7.884   7.446   1.659  1.8514  0.8030 -0.6621
   33MOL    H9732801   0.053   7.250   1.742  1.0815  1.3616 -2.5248
   33MOL    H9832802   7.851   7.114   1.929 -1.6114 -1.3742  4.0079
   33MOL    H9932803   7.780   6.869   1.904  1.7184 -2.3830 -0.8051
   33MOL   H10032804   0.133   6.501   2.021 -0.5544 -1.8789  0.2091
   33MOL   H10132805   0.263   6.337   1.931  0.4758  0.9872  0.6230
   33MOL   H10232806   0.463   6.415   1.849  1.3555  0.8853 -1.5040
   33MOL   H10332807   0.675   6.351   1.917 -0.6572 -0.2614  0.0175
   33MOL   N10432808   7.741   7.748   1.904 -0.4557  0.8305 -0.3467
   33MOL   C10532809   7.817   7.863   1.917 -0.2002  0.0122  0.0490
   33MOL   C10632810   7.955   7.869   1.951 -0.0847  0.6383  0.2861
   33MOL   C10732811   0.046   0.007   1.945  0.5016 -0.9382 -0.1015
   33MOL   C10832812   7.960   0.126   1.917  0.1942 -0.2590  0.3022
   33MOL   N10932813   0.047   0.251   1.902  0.5439 -0.2069  0.2059
   33MOL   C11032814   0.184   0.271   1.883 -0.4685  0.3071  0.8997
   33MOL   C11132815   0.260   0.187   1.804 -0.1537 -0.1738  0.7225
   33MOL   C11232816   0.401   0.199   1.802  0.1195 -0.3620  0.5285
   33MOL   C11332817   0.465   0.281   1.896  0.1493 -0.5874  0.2544
   33MOL   N11432818   0.605   0.283   1.910  0.0960  0.0694 -0.1025
   33MOL   C11532819   0.706   0.195   1.857  0.3862  0.2920  0.3555
   33MOL   C11632820   0.826   0.251   1.816 -0.7585  0.1717  0.0871
   33MOL   C11732821   0.932   0.164   1.762 -0.0684  0.5410  0.4317
   33MOL   C11832822   0.913   0.029   1.756 -0.5386  0.3101 -0.2927
   33MOL   N11932823   1.006   7.931   1.691  0.7919  0.6529  0.2788
   33MOL   C12032824   1.143   7.956   1.676  0.4501 -0.1565 -0.2748
   33MOL   C12132825   1.218   0.021   1.786  0.3874  0.8587 -0.7080
   33MOL   C12232826   1.347   0.058   1.757  0.3298  0.4206 -0.1546
   33MOL   C12332827   1.404   0.031   1.631 -0.8621  0.3255  0.4333
   33MOL   C12432828   1.556   0.051   1.600 -0.1600  0.5867  0.0599
   33MOL   C12532829   1.331   7.965   1.524  0.6503  0.0424 -0.3197
   33MOL   C12632830   1.196   7.937   1.547  0.0820 -0.3899  0.4002
   33MOL   C12732831   0.784   7.955   1.776 -0.1187 -0.5176  0.4305
   33MOL   C12832832   0.677   0.057   1.826 -0.3230  0.5158 -0.2929
   33MOL   C12932833   0.391   0.381   1.957  0.1594 -0.2092 -0.0214
   33MOL   C13032834   0.250   0.374   1.953 -0.0873  0.1059  0.3235
   33MOL   C13132835   7.822   0.121   1.895 -0.3266 -0.2335  0.5024
   33MOL   C13232836   7.752   7.982   1.889  0.4345 -0.0805  0.0438
   33MOL   H13332837   7.645   7.754   1.935 -0.3299  3.4864 -0.4216
   33MOL   H13432838   0.030   7.778   1.961 -1.0047 -0.0117 -0.3536
   33MOL   H13532839   0.153   0.005   1.961  0.6148 -3.0541 -0.9213
   33MOL   H13632840   0.005   0.332   1.859  0.2442 -0.3756  0.1807
   33MOL   H13732841   0.205   0.115   1.745  2.5789 -0.5179 -1.5356
   33MOL   H13832842   0.458   0.145   1.727 -0.5540  1.3827 -1.2851
   33MOL   H13932843   0.629   0.369   1.957  0.3520 -1.0177  1.8135
   33MOL   H14032844   0.846   0.356   1.827 -0.2059  0.1341 -0.5335
   33MOL   H14132845   1.025   0.215   1.741  0.9075 -0.4605  2.2040
   33MOL   H14232846   0.972   7.839   1.667  0.6099  0.4996  1.1227
   33MOL   H14332847   1.169   0.035   1.881 -1.4369 -0.2440 -1.4599
   33MOL   H14432848   1.412   0.064   1.843  0.4898 -1.0558 -0.1589
   33MOL   H14532849   1.598   0.076   1.698  0.5805 -0.7561  0.1094
   33MOL   H14632850   1.573   0.143   1.545 -0.8264  0.8166  0.2301
   33MOL   H14732851   1.379   7.961   1.427  0.4383 -0.6809 -0.3936
   33MOL   H14832852   1.120   7.925   1.472 -0.5508 -0.6008  1.0764
   33MOL   H14932853   0.769   7.851   1.752 -0.9027  0.0714 -1.7313
   33MOL   H15032854   0.585   0.016   1.865  0.5427 -0.5582  0.6380
   33MOL   H15132855   0.444   0.462   2.004  0.3992  0.8449 -2.0535
   33MOL   H15232856   0.199   0.456   2.001 -0.4570 -0.2903  0.6118
   33MOL   H15332857   7.777   0.215   1.866  2.2954  0.6773 -0.8075
   33MOL   H15432858   7.647   7.982   1.864  0.2889  0.6522  0.6587
   33MOL   N15532859   1.617   7.918   1.537 -0.2060  0.1765  0.1530
   33MOL   C15632860   1.757   7.896   1.537 -0.2878  0.5734 -0.1948
   33MOL   C15732861   1.842   7.936   1.642 -0.1057  0.3762  0.6364
   33MOL   C15832862   1.982   7.910   1.642 -0.6926 -0.3190  0.2005
   33MOL   C15932863   2.036   7.835   1.536  0.6982  0.3529  0.2089
   33MOL   N16032864   2.171   7.805   1.526 -0.1806 -0.2947 -0.6064
   33MOL   C16132865   2.271   7.892   1.577 -0.6148  0.2707  0.0523
   33MOL   C16232866   2.346   7.865   1.696  0.5188  0.1383 -0.4438
   33MOL   C16332867   2.460   7.945   1.718  0.4950  0.1452 -1.2646
   33MOL   C16432868   2.500   0.066   1.632 -0.4165 -0.0077  0.3287
   33MOL   N16532869   2.613   0.153   1.648  0.6486 -0.2015  0.6463
   33MOL   C16632870   2.689   0.170   1.762  1.0104  0.2461 -0.4419
   33MOL   C16732871   2.747   0.054   1.825  0.4723 -1.0098 -0.0795
   33MOL   C16832872   2.810   0.067   1.949  0.3542  0.3759 -0.4237
   33MOL   C16932873   2.824   0.194   2.014 -0.3599  0.5655  0.4921
   33MOL   N17032874   2.872   0.196   2.148 -0.4373 -0.2180  0.5031
   33MOL   C17132875   2.844   0.094   2.244 -0.6946  0.4267  0.1603
   33MOL   C17232876   2.734   0.108   2.328  1.2032  0.0067  0.4380
   33MOL   C17332877   2.698   0.005   2.415 -0.0218  0.4138  0.1451
   33MOL   C17432878   2.779   7.876   2.425 -0.8979  0.2965  0.0376
   33MOL   C17532879   2.737   7.776   2.536  0.6263  0.3030  0.0918
   33MOL   C17632880   2.885   7.861   2.339 -0.0135  0.2001  0.1666
   33MOL   C17732881   2.923   7.958   2.246  0.2041  0.3694 -0.2294
   33MOL   C17832882   2.766   0.303   1.954  0.0068 -0.2582  0.0975
   33MOL   C17932883   2.691   0.292   1.836  0.6856  0.2708  0.0005
   33MOL   C18032884   2.409   0.105   1.529  0.4129 -0.4125 -0.7741
   33MOL   C18132885   2.301   0.022   1.497 -0.3391  0.3979 -0.6809
   33MOL   C18232886   1.952   7.791   1.429 -0.2515 -0.2783  0.2346
   33MOL   C18332887   1.811   7.820   1.430  0.1919  0.3305  0.3705
   33MOL   H18432888   1.558   7.848   1.495 -0.2455  0.7479 -0.7584
   33MOL   H18532889   1.809   7.970   1.739  0.4023 -0.3079  1.0511
   33MOL   H18632890   2.042   7.938   1.728  0.4300 -1.2033 -0.2762
   33MOL   H18732891   2.197   7.752   1.443  1.1510 -2.4958  1.1497
   33MOL   H18832892   2.318   7.787   1.765  1.4920  0.3578  0.2194
   33MOL   H18932893   2.513   7.919   1.809  0.2844  3.0051 -0.2604
   33MOL   H19032894   2.587   0.239   1.602  0.0900  0.0185  1.3718
   33MOL   H19132895   2.750   7.939   1.778  2.4592 -1.0243  0.0257
   33MOL   H19232896   2.867   7.963   1.982 -0.0908  0.5814  0.9204
   33MOL   H19332897   2.887   0.291   2.179  0.2070  0.9291 -3.0987
   33MOL   H19432898   2.673   0.197   2.322  1.8866  0.4057 -0.5532
   33MOL   H19532899   2.614   0.022   2.480  0.8576 -0.8156  1.6312
   33MOL   H19632900   2.646   7.726   2.503 -1.3576  2.7372  1.6750
   33MOL   H19732901   2.724   7.833   2.628  0.1351 -2.5327  1.8168
   33MOL   H19832902   2.936   7.766   2.329  2.7699  1.6465  0.1291
   33MOL   H19932903   3.004   7.938   2.178  1.5735 -1.5439  1.8744
   33MOL   H20032904   2.768   0.399   2.003 -0.4658 -0.2503  0.1007
   33MOL   H20132905   2.654   0.382   1.789  0.8967 -0.0078 -0.7161
   33MOL   H20232906   2.430   0.194   1.472 -0.6687  0.3269 -0.0312
   33MOL   H20332907   2.266   0.038   1.396 -0.3173 -1.1793 -0.9558
   33MOL   H20432908   1.993   7.744   1.340 -2.2615 -2.1682  0.2608
   33MOL   H20532909   1.754   7.785   1.345  1.9251  0.1116 -0.7350
   33MOL   N20632910   2.826   7.664   2.571  0.3106 -0.2870  0.0263
   33MOL   C20732911   2.852   7.558   2.480  0.1295 -0.1957 -0.1280
   33MOL   C20832912   2.979   7.512   2.493  0.0221 -0.1122  0.9294
   33MOL   C20932913   3.017   7.396   2.422 -0.0201  0.7049 -0.0830
   33MOL   C21032914   2.928   7.332   2.332 -0.5799 -0.3232  0.5032
   33MOL   N21132915   2.961   7.210   2.276 -0.0927  0.8809 -0.1368
   33MOL   C21232916   2.880   7.101   2.234  0.3461  0.7446  0.1158
   33MOL   C21332917   2.752   7.083   2.281 -0.0586  0.1102 -0.2880
   33MOL   C21432918   2.664   6.987   2.230 -1.1050  0.6366  0.1130
   33MOL   C21532919   2.714   6.906   2.122 -0.4163 -0.5524 -0.6693
   33MOL   N21632920   2.635   6.809   2.063  0.2327 -0.4225  0.1103
   33MOL   C21732921   2.505   6.840   2.033 -0.6864  0.1755  0.8132
   33MOL   C21832922   2.471   6.921   1.923  0.0698 -0.2906  0.3608
   33MOL   C21932923   2.341   6.972   1.901  0.9119  0.8814  0.3250
   33MOL   C22032924   2.237   6.929   1.991  0.4426 -0.4086  0.5294
   33MOL   N22132925   2.116   6.993   1.997 -0.4042 -0.5880  0.5808
   33MOL   C22232926   2.061   7.083   1.905  0.3091 -0.0631 -0.7559
   33MOL   C22332927   1.983   7.184   1.957  0.7818 -0.5217  0.1907
   33MOL   C22432928   1.917   7.281   1.879  0.0629  0.3343  0.1883
   33MOL   C22532929   1.934   7.280   1.742 -0.1072  0.3655  0.4191
   33MOL   C22632930   1.864   7.377   1.653 -0.2288  0.6534 -0.0478
   33MOL   C22732931   2.013   7.177   1.688  0.2031  0.7683 -0.4703
   33MOL   C22832932   2.073   7.075   1.766 -0.1771 -0.6236  0.7171
   33MOL   C22932933   2.272   6.841   2.098  0.6053  0.5495  0.3861
   33MOL   C23032934   2.404   6.799   2.120  0.2483 -0.8189 -0.1219
   33MOL   C23132935   2.845   6.918   2.085  0.0791 -0.1371 -0.3121
   33MOL   C23232936   2.920   7.023   2.129 -0.7855 -0.3334 -0.2598
   33MOL   C23332937   2.817   7.404   2.298  0.1236 -0.1247  0.0758
   33MOL   C23432938   2.769   7.512   2.375 -0.1116  0.5855  0.3139
   33MOL   H23532939   2.913   7.700   2.608  0.0470  0.6246 -0.2101
   33MOL   H23632940   3.046   7.562   2.560  2.3016 -2.4690  0.4905
   33MOL   H23732941   3.116   7.365   2.451 -0.5166  0.1058  1.0312
   33MOL   H23832942   3.061   7.203   2.266  0.0009  3.2338 -1.1823
   33MOL   H23932943   2.711   7.149   2.356 -0.5911 -2.4023  1.6890
   33MOL   H24032944   2.558   6.986   2.255 -1.2615 -0.8534 -0.5728
   33MOL   H24132945   2.685   6.757   1.993 -1.6950  0.9558 -2.3718
   33MOL   H24232946   2.548   6.954   1.855  0.0908  2.0687  1.4837
   33MOL   H24332947   2.324   7.042   1.821 -0.5042  1.0948  0.7810
   33MOL   H24432948   2.073   6.989   2.089  0.9480  1.4690  1.3536
   33MOL   H24532949   1.969   7.192   2.064  0.1396 -0.7351  0.1241
   33MOL   H24632950   1.859   7.364   1.915 -0.7035 -0.4953  0.8989
   33MOL   H24732951   1.857   7.339   1.551  0.4380  4.5140 -1.5891
   33MOL   H24832952   1.920   7.470   1.643 -0.6740  0.8280 -0.9279
   33MOL   H24932953   2.042   7.180   1.584  0.5053 -0.9254 -0.4608
   33MOL   H25032954   2.128   7.002   1.709  1.1551  0.5628  0.4564
   33MOL   H25132955   2.204   6.813   2.178  1.4464  1.0828  1.2950
   33MOL   H25232956   2.434   6.744   2.208  1.1606  0.7145  0.5420
   33MOL   H25332957   2.882   6.841   2.019  0.4365 -0.7859  0.6261
   33MOL   H25432958   3.024   7.026   2.099 -1.1774  0.7059 -1.5714
   33MOL   H25532959   2.752   7.363   2.222  2.2886  1.3545 -2.6606
   33MOL   H25632960   2.675   7.556   2.345 -0.0305 -1.1672 -2.7793
   33MOL   N25732961   1.736   7.421   1.705 -0.1942  0.1711  0.6199
   33MOL   C25832962   1.630   7.429   1.619 -0.0445  0.1159  1.2515
   33MOL   C25932963   1.505   7.397   1.658  0.3223  0.0873  0.1388
   33MOL   C26032964   1.401   7.402   1.564  0.2391 -0.6305 -0.1983
   33MOL   C26132965   1.422   7.438   1.429 -0.1378 -0.3624 -0.4180
   33MOL   N26232966   1.311   7.443   1.345  0.0482 -0.0974  0.3377
   33MOL   C26332967   1.293   7.525   1.231  0.2160  0.9540 -0.5327
   33MOL   C26432968   1.212   7.487   1.127 -0.1459 -0.1363  0.1577
   33MOL   C26532969   1.202   7.565   1.013 -0.3336 -0.6315  0.5838
   33MOL   C26632970   1.264   7.690   1.005 -0.2916  0.6008  0.6930
   33MOL   N26732971   1.236   7.768   0.897 -0.3331 -0.5594  0.5982
   33MOL   C26832972   1.300   7.879   0.846  0.1775  0.1281  0.0702
   33MOL   C26932973   1.217   7.975   0.780  0.6232  0.1888  0.2216
   33MOL   C27032974   1.280   0.099   0.714  0.3132  0.6298  0.0826
   33MOL   C27132975   1.412   0.134   0.736 -0.5378 -0.1562  0.2329
   33MOL   N27232976   1.463   0.258   0.697 -0.1974  0.0922 -0.0824
   33MOL   C27332977   1.539   0.342   0.767  0.9160  0.3222 -0.3907
   33MOL   C27432978   1.638   0.421   0.703 -0.2677  0.1966  0.0194
   33MOL   C27532979   1.731   0.498   0.779  0.6313  0.2816  0.6020
   33MOL   C27632980   1.721   0.498   0.922 -0.1600 -0.3392  0.0045
   33MOL   C27732981   1.832   0.569   0.999 -0.3251 -0.1202 -1.0088
   33MOL   C27832982   1.617   0.423   0.987  1.0564 -0.1311 -0.3962
   33MOL   C27932983   1.523   0.345   0.911 -0.5357  0.2859 -0.9019
   33MOL   C28032984   1.491   0.047   0.807 -0.3701 -0.4825 -0.3157
   33MOL   C28132985   1.439   7.904   0.860  1.0045 -0.1258 -0.0772
   33MOL   C28232986   1.344   7.739   1.113 -0.4050  0.3538  0.1090
   33MOL   C28332987   1.359   7.649   1.218  0.0068 -0.3067 -0.1361
   33MOL   C28432988   1.547   7.479   1.387  0.0669 -0.1959 -0.0337
   33MOL   C28532989   1.643   7.479   1.489 -0.4402  0.0024  0.4513
   33MOL   H28632990   1.715   7.420   1.804  1.9184 -1.9281  1.0785
   33MOL   H28732991   1.480   7.356   1.754 -1.5905  0.5725 -0.1339
   33MOL   H28832992   1.302   7.369   1.590 -0.7774  1.8877 -0.7242
   33MOL   H28932993   1.228   7.392   1.374  0.1354 -1.1721 -1.2257
   33MOL   H29032994   1.164   7.391   1.122 -1.7740  0.6357  0.5947
   33MOL   H29132995   1.132   7.533   0.938  1.4901 -1.5466 -0.7467
   33MOL   H29232996   1.143   7.768   0.858 -0.4740 -2.4285  0.9061
   33MOL   H29332997   1.110   7.961   0.778  0.3956  1.9018 -0.0865
   33MOL   H29432998   1.220   0.176   0.667 -1.4957 -1.4035 -0.9754
   33MOL   H29532999   1.418   0.300   0.617 -0.1328 -1.3423 -0.9012
   33MOL   H29633000   1.653   0.419   0.596 -0.3460 -4.1705  0.0119
   33MOL   H29733001   1.812   0.550   0.730  0.7621  0.0065  0.5268
   33MOL   H29833002   1.853   0.665   0.951  0.1146  1.7582  2.8269
   33MOL   H29933003   1.922   0.508   0.993  2.1420  3.0185  1.7835
   33MOL   H30033004   1.629   0.410   1.094  0.1057 -0.3940 -0.3242
   33MOL   H30133005   1.456   0.278   0.963 -1.2161  1.3891 -0.3352
   33MOL   H30233006   1.597   0.071   0.811 -0.0471 -1.6111 -1.9426
   33MOL   H30333007   1.504   7.834   0.909 -0.7065 -0.8191  1.2743
   33MOL   H30433008   1.392   7.835   1.102  3.2317 -1.5679 -1.3680
   33MOL   H30533009   1.410   7.693   1.303  0.7717  0.5245 -1.0214
   33MOL   H30633010   1.576   7.508   1.287  3.5431 -0.2123  0.9176
   33MOL   H30733011   1.738   7.524   1.463 -0.3251 -0.3336  0.2926
   33MOL   N30833012   1.798   0.598   1.138 -0.3962  0.2288 -0.3466
   33MOL   C30933013   1.870   0.687   1.214 -0.0651 -0.4187  0.4318
   33MOL   C31033014   1.981   0.760   1.167 -0.2722  0.4357  0.5790
   33MOL   C31133015   2.038   0.852   1.257 -0.1727  0.3487 -0.0958
   33MOL   C31233016   1.991   0.872   1.392 -0.2582 -0.2460 -1.0885
   33MOL   N31333017   2.050   0.963   1.482  0.5297 -0.1006 -0.6915
   33MOL   C31433018   2.182   1.018   1.473  0.3674 -0.0747 -0.2408
   33MOL   C31533019   2.299   0.941   1.440  0.2571 -0.2776  0.2388
   33MOL   C31633020   2.426   0.997   1.449 -0.3794  0.4944  0.0391
   33MOL   C31733021   2.443   1.131   1.488 -0.0419  0.0920 -0.7489
   33MOL   N31833022   2.567   1.189   1.482  0.3008  1.0578 -0.2331
   33MOL   C31933023   2.645   1.215   1.597  0.0303 -0.0065  0.3962
   33MOL   C32033024   2.782   1.191   1.586 -0.6010 -0.3528  0.1711
   33MOL   C32133025   2.870   1.226   1.695  0.6320  0.2326 -0.7458
   33MOL   C32233026   2.818   1.269   1.815  0.4767  0.8329 -0.1471
   33MOL   N32333027   2.896   1.286   1.931 -0.6552  0.1627  0.5319
   33MOL   C32433028   2.921   1.188   2.025 -0.5582  0.4835 -0.2572
   33MOL   C32533029   2.829   1.086   2.061  0.0683  0.3760 -0.4133
   33MOL   C32633030   2.863   0.987   2.162  0.0613 -0.5541  0.3968
   33MOL   C32733031   2.988   0.999   2.220  0.0405 -0.2201 -0.7018
   33MOL   C32833032   3.036   0.890   2.313  0.6347 -0.0867  0.4864
   33MOL   C32933033   3.078   1.096   2.180  0.6196 -0.3495 -0.3510
   33MOL   C33033034   3.045   1.193   2.085 -0.4851 -0.1256  0.2886
   33MOL   C33133035   2.678   1.295   1.835 -0.4516  0.4367 -0.0823
   33MOL   C33233036   2.598   1.275   1.715  0.1453 -0.1689  0.0031
   33MOL   C33333037   2.325   1.214   1.510  0.1194  0.2194 -0.5312
   33MOL   C33433038   2.197   1.159   1.499 -0.2647 -0.4170  0.6736
   33MOL   C33533039   1.879   0.799   1.434 -0.9295  0.8199 -0.4126
   33MOL   C33633040   1.823   0.704   1.350 -0.6919 -0.8800  0.3979
   33MOL   H33733041   1.743   0.534   1.194  0.7937 -0.5384 -0.0378
   33MOL   H33833042   2.020   0.759   1.066  0.5929  1.1434  0.9017
   33MOL   H33933043   2.119   0.916   1.224 -0.2496  1.1742  1.2594
   33MOL   H34033044   2.028   0.933   1.576 -1.7145  1.6246 -0.6146
   33MOL   H34133045   2.292   0.837   1.413 -0.2493 -0.2601  0.2991
   33MOL   H34233046   2.506   0.934   1.414 -0.9530  0.2159 -0.7996
   33MOL   H34333047   2.603   1.180   1.388  0.3369 -1.6721  0.0131
   33MOL   H34433048   2.816   1.140   1.498 -0.2201  0.7096 -0.2999
   33MOL   H34533049   2.976   1.211   1.684  0.1396 -1.7943 -3.1648
   33MOL   H34633050   2.981   1.340   1.923 -0.3533 -0.4799 -0.7930
   33MOL   H34733051   2.733   1.083   2.012  0.3806  1.1446 -1.0881
   33MOL   H34833052   2.801   0.903   2.192 -0.5254 -0.5597 -0.8074
   33MOL   H34933053   3.133   0.855   2.275 -0.3848 -1.7620 -0.6559
   33MOL   H35033054   2.970   0.804   2.320  0.9783 -0.2867  1.2524
   33MOL   H35133055   3.180   1.089   2.215 -0.2721  2.1010  2.9508
   33MOL   H35233056   3.126   1.261   2.062  1.6667 -2.4037  0.9675
   33MOL   H35333057   2.632   1.320   1.929  0.8140  1.5060  0.2617
   33MOL   H35433058   2.495   1.308   1.725  0.5606  1.0457  0.4439
   33MOL   H35533059   2.342   1.321   1.520  0.3671  0.0696  0.7245
   33MOL   H35633060   2.111   1.224   1.503  0.6566  0.7914  1.6284
   33MOL   H35733061   1.850   0.802   1.538  3.8101 -1.7081  1.1754
   33MOL   H35833062   1.749   0.640   1.395 -1.2014 -1.2896 -0.9905
   33MOL   N35933063   3.063   0.933   2.446  1.0093 -0.9448  0.4951
   33MOL   C36033064   3.134   0.843   2.523 -0.8241  0.0309 -0.0727
   33MOL   C36133065   3.176   0.901   2.642 -0.4034 -0.1205  0.3299
   33MOL   C36233066   3.264   0.837   2.730 -0.0422 -0.2913  0.7797
   33MOL   C36333067   3.286   0.697   2.712  0.2430 -0.4873  0.3791
   33MOL   N36433068   3.340   0.621   2.813 -0.0604  0.0355 -0.5509
   33MOL   C36533069   3.289   0.576   2.936  0.0191 -0.4932  0.5832
   33MOL   C36633070   3.374   0.495   3.017 -0.1184 -0.5030 -0.3419
   33MOL   C36733071   3.333   0.457   3.143 -0.5795  0.6549 -0.0140
   33MOL   C36833072   3.205   0.489   3.186 -0.8189 -0.1395 -0.0297
   33MOL   N36933073   3.162   0.429   3.308 -0.4419 -0.5682 -0.7276
   33MOL   C37033074   3.049   0.468   3.376  0.0417  0.2761  0.2471
   33MOL   C37133075   3.034   0.599   3.421 -0.5296  0.0653 -0.0679
   33MOL   C37233076   2.908   0.635   3.469 -0.1158  0.2174 -0.3501
   33MOL   C37333077   2.801   0.547   3.477 -0.3875  0.3168  0.2795
   33MOL   N37433078   2.677   0.607   3.511 -0.0450 -0.2259  0.2752
   33MOL   C37533079   2.555   0.554   3.543 -0.0026 -0.0578 -0.6944
   33MOL   C37633080   2.446   0.636   3.511 -0.1159 -0.0989 -0.0736
   33MOL   C37733081   2.314   0.606   3.556 -0.0817 -0.0611 -0.1242
   33MOL   C37833082   2.306   0.503   3.648  0.3394 -0.6435 -0.3729
   33MOL   C37933083   2.173   0.468   3.707  0.8509 -0.1748 -0.6182
   33MOL   C38033084   2.418   0.423   3.691 -1.0287 -1.1512 -0.5679
   33MOL   C38133085   2.544   0.446   3.636  0.2901  0.3765  0.3546
   33MOL   C38233086   2.817   0.413   3.441 -0.5157  0.4579 -0.2295
   33MOL   C38333087   2.943   0.378   3.391  0.3665 -0.1067  0.3234
   33MOL   C38433088   3.117   0.558   3.100  0.3040 -0.2552  0.7124
   33MOL   C38533089   3.162   0.606   2.977 -0.0290 -0.2582  0.1656
   33MOL   C38633090   3.235   0.631   2.593  0.4454  0.5943  0.2744
   33MOL   C38733091   3.170   0.708   2.493  0.4917  0.5096 -0.3790
   33MOL   H38833092   3.045   1.029   2.470 -1.0753 -1.3780  0.7307
   33MOL   H38933093   3.137   0.996   2.676 -1.6286 -0.3108 -0.4930
   33MOL   H39033094   3.287   0.887   2.823 -1.4276  1.5908  0.1462
   33MOL   H39133095   3.393   0.546   2.773 -0.8421 -1.2439  0.7667
   33MOL   H39233096   3.476   0.467   2.996 -0.1672  0.0188 -1.2980
   33MOL   H39333097   3.389   0.391   3.209  0.7236  2.1939  0.4597
   33MOL   H39433098   3.242   0.399   3.363  1.0500 -0.0169 -2.5663
   33MOL   H39533099   3.115   0.667   3.403  0.3415 -0.9641 -0.0718
   33MOL   H39633100   2.893   0.739   3.493 -0.1022  0.1215  0.0826
   33MOL   H39733101   2.671   0.707   3.495  3.0312 -0.0326  0.0665
   33MOL   H39833102   2.448   0.718   3.441 -0.1153 -1.9985 -2.3601
   33MOL   H39933103   2.235   0.675   3.531 -1.9594 -1.9444  0.4469
   33MOL   H40033104   2.187   0.501   3.810 -1.4554  1.9072 -0.9411
   33MOL   H40133105   2.153   0.361   3.719  0.5886 -0.0381  0.1390
   33MOL   H40233106   2.396   0.349   3.767 -3.2477  2.0088  1.9849
   33MOL   H40333107   2.632   0.389   3.659 -0.4709 -0.4965  1.1387
   33MOL   H40433108   2.732   0.348   3.448 -0.1223 -0.0906 -0.5226
   33MOL   H40533109   2.956   0.276   3.359  1.9856  0.7391 -1.8805
   33MOL   H40633110   3.011   0.571   3.111  0.0772 -0.4125 -1.1406
   33MOL   H40733111   3.097   0.661   2.910  1.6185 -0.7527 -1.8888
   33MOL   H40833112   3.240   0.526   2.569 -0.4871  0.5233  0.3976
   33MOL   H40933113   3.132   0.654   2.408 -0.2642  0.5765 -0.0826
   33MOL   N41033114   2.059   0.534   3.642  0.3131  0.2309 -0.0904
   33MOL   C41133115   1.982   0.463   3.557  0.2047  0.4881  0.1405
   33MOL   C41233116   1.844   0.483   3.575 -1.0158  0.6356 -0.3352
   33MOL   C41333117   1.753   0.395   3.516 -0.4733  0.8485 -0.3158
   33MOL   C41433118   1.807   0.291   3.435  0.1373 -0.1831  0.0089
   33MOL   N41533119   1.715   0.217   3.360 -0.4940  0.3006 -0.6743
   33MOL   C41633120   1.608   0.146   3.415  0.4919 -0.0279 -0.6945
   33MOL   C41733121   1.498   0.097   3.342  0.1329  0.4105 -0.5402
   33MOL   C41833122   1.392   0.025   3.397 -0.1560  0.4398  0.6761
   33MOL   C41933123   1.394   7.974   3.531 -0.0558 -0.0748 -0.3845
   33MOL   N42033124   1.291   7.904   3.593 -0.2251 -0.4409 -0.3190
   33MOL   C42133125   1.153   7.939   3.578  0.6750  0.2539 -0.3463
   33MOL   C42233126   1.073   7.829   3.539  0.3541 -0.1285 -0.5669
   33MOL   C42333127   0.932   7.848   3.525 -0.0692 -0.4163  0.7724
   33MOL   C42433128   0.877   7.980   3.553 -0.1270  0.0852 -0.2514
   33MOL   N42533129   0.741   0.018   3.562 -0.2641 -0.0530 -0.8815
   33MOL   C42633130   0.644   7.908   3.511 -0.3367  0.1508  0.8874
   33MOL   C42733131   0.616   7.799   3.588 -0.4595  0.1099 -0.4236
   33MOL   C42833132   0.530   7.701   3.537  0.3281  0.0311  0.6676
   33MOL   C42933133   0.466   7.715   3.410 -0.3382 -0.7780  0.4062
   33MOL   C43033134   0.377   7.604   3.353 -0.1078  0.2346  0.0581
   33MOL   C43133135   0.493   7.831   3.333  0.2451  0.0080 -0.0168
   33MOL   C43233136   0.580   7.928   3.384 -0.0177  0.8197 -0.4436
   33MOL   C43333137   0.962   0.104   3.581  0.4483 -0.5202  0.6366
   33MOL   C43433138   1.102   0.087   3.590 -0.1075  1.0614  0.3366
   33MOL   C43533139   1.502   0.041   3.612  0.2311  0.0589  0.3229
   33MOL   C43633140   1.605   0.119   3.553  0.0989  0.8016 -0.8321
   33MOL   C43733141   1.943   0.265   3.418 -0.4593 -0.2673  0.7334
   33MOL   C43833142   2.035   0.354   3.478 -0.5105 -0.8665 -0.4424
   33MOL   H43933143   2.030   0.626   3.670  2.7487  0.7706  0.7579
   33MOL   H44033144   1.818   0.556   3.650 -0.4510 -1.0167  1.5149
   33MOL   H44133145   1.648   0.407   3.537 -0.4835  1.7471 -0.8537
   33MOL   H44233146   1.748   0.188   3.269 -1.2658  2.3091 -1.6396
   33MOL   H44333147   1.496   0.119   3.236  2.2961  1.6121 -0.3543
   33MOL   H44433148   1.307   7.975   3.339  0.6379 -0.4987  0.0152
   33MOL   H44533149   1.315   7.881   3.688  0.0094  1.2400  0.0552
   33MOL   H44633150   1.112   7.729   3.534  0.5726  0.0380 -3.0460
   33MOL   H44733151   0.869   7.768   3.489 -1.3642  1.9370 -2.4555
   33MOL   H44833152   0.717   0.114   3.540  1.2702  0.7045  0.6581
   33MOL   H44933153   0.661   7.785   3.685 -1.1752  2.2615  0.2518
   33MOL   H45033154   0.522   7.612   3.598 -0.7344 -0.2472  0.1486
   33MOL   H45133155   0.320   7.558   3.434 -0.8666 -0.8547 -1.0757
   33MOL   H45233156   0.454   7.534   3.322  0.7481  1.0658  0.2982
   33MOL   H45333157   0.447   7.856   3.238  2.0639  1.9089 -0.4305
   33MOL   H45433158   0.609   0.025   3.317  1.7903  1.2379  0.7706
   33MOL   H45533159   0.914   0.198   3.603  0.8088  0.3148 -2.0347
   33MOL   H45633160   1.173   0.162   3.621  0.8646  0.6032 -0.7275
   33MOL   H45733161   1.495   0.033   3.719  1.2490  1.0715  0.4777
   33MOL   H45833162   1.683   0.157   3.618  0.4882 -1.2952 -0.0302
   33MOL   H45933163   1.976   0.185   3.353 -1.0905  0.4822 -0.5264
   33MOL   H46033164   2.142   0.339   3.475 -0.2508  0.2839  1.8546
   33MOL   N46133165   0.285   7.648   3.241 -0.0760 -0.1880  0.1576
   33MOL   C46233166   0.160   7.694   3.296 -0.3654 -0.8208 -0.3917
   33MOL   C46333167   0.071   7.598   3.355  0.2938  0.0546 -0.2553
   33MOL   C46433168   7.941   7.646   3.431 -0.2374 -0.1679  0.0716
   33MOL   C46533169   7.911   7.783   3.449 -0.2901  0.1327 -0.8176
   33MOL   N46633170   7.818   7.818   3.547 -0.0257 -0.0312 -0.1888
   33MOL   C46733171   7.834   7.921   3.641  0.0163 -0.3999  0.3487
   33MOL   C46833172   7.951   7.941   3.718 -0.0583  0.3284 -0.4015
   33MOL   C46933173   7.946   0.057   3.822 -0.6205  0.2521  0.5178
   33MOL   C47033174   7.836   0.142   3.838 -0.2576  0.4021  0.5602
   33MOL   N47133175   7.834   0.239   3.935  0.2393 -0.0430  0.1296
   33MOL   C47233176   7.838   0.375   3.912  0.6663  1.0807  0.3313
   33MOL   C47333177   7.793   0.438   3.794 -0.6616  0.4104 -0.3726
   33MOL   C47433178   7.810   0.576   3.785 -0.1632 -0.1211 -0.2635
   33MOL   C47533179   7.869   0.647   3.891 -0.1988 -0.6601  0.5940
   33MOL   N47633180   7.868   0.786   3.886 -1.0240  0.4124  0.1080
   33MOL   C47733181   7.881   0.863   4.005 -0.1842  0.1998  0.2565
   33MOL   C47833182   7.773   0.885   4.090 -0.1305  0.1945 -0.0007
   33MOL   C47933183   7.784   0.959   4.210  0.6357 -0.3314  0.0243
   33MOL   C48033184   7.907   1.009   4.248  0.0512  1.5998  0.5559
   33MOL   C48133185   7.919   1.088   4.377 -0.3991 -0.3684 -0.2726
   33MOL   C48233186   0.034   0.996   4.170  0.0865  0.5173  0.0870
   33MOL   C48333187   0.029   0.911   4.055  0.0460  0.3553  0.0448
   33MOL   C48433188   7.924   0.582   4.004 -0.1291 -0.4070 -0.0395
   33MOL   C48533189   7.902   0.443   4.016 -0.7606 -0.4582  0.2083
   33MOL   C48633190   7.723   0.121   3.758  0.0761 -0.0039  0.2890
   33MOL   C48733191   7.719   0.025   3.658  0.0306 -0.0441  0.4699
   33MOL   C48833192   0.018   7.877   3.389  1.0667 -0.5660 -0.1717
   33MOL   C48933193   0.132   7.829   3.310  0.2833 -0.2606  0.2767
   33MOL   H49033194   0.345   7.712   3.192  0.5394 -1.1642 -0.3798
   33MOL   H49133195   0.108   7.496   3.355  0.4022  0.0217  2.7507
   33MOL   H49233196   7.877   7.578   3.485 -1.0637  1.6814  1.4720
   33MOL   H49333197   7.735   7.761   3.550  0.5357 -0.7774  1.5393
   33MOL   H49433198   0.056   7.877   3.705 -1.2224 -1.1756 -0.9877
   33MOL   H49533199   0.056   0.066   3.878 -0.4129 -0.0001  0.2172
   33MOL   H49633200   7.869   0.202   4.022  1.5770 -0.9520 -0.7704
   33MOL   H49733201   7.754   0.380   3.712  2.2942 -0.2822 -1.3639
   33MOL   H49833202   7.768   0.623   3.698  0.1927 -1.2057 -1.0402
   33MOL   H49933203   7.840   0.836   3.803  0.6574 -0.7074 -1.1675
   33MOL   H50033204   7.675   0.845   4.065  0.8422 -2.7596  0.7358
   33MOL   H50133205   7.690   0.971   4.261 -0.5294 -1.5039 -1.7628
   33MOL   H50233206   7.906   1.192   4.350 -0.9962 -0.7590 -1.4994
   33MOL   H50333207   0.037   1.071   4.417  0.3043  0.0272 -1.8629
   33MOL   H50433208   0.128   1.042   4.196 -0.3444  1.5044 -0.0836
   33MOL   H50533209   0.121   0.902   3.999  1.0037  1.5546  1.3914
   33MOL   H50633210   0.006   0.644   4.065  0.5841 -1.0862 -0.0960
   33MOL   H50733211   7.944   0.387   4.098 -1.0369 -1.8778 -0.5998
   33MOL   H50833212   7.632   0.176   3.776 -0.1088 -0.2483  0.1038
   33MOL   H50933213   7.626   0.004   3.608  0.3687  0.9316 -0.5739
   33MOL   H51033214   0.002   7.981   3.411  0.1215 -0.7690  0.1287
   33MOL   H51133215   0.199   7.902   3.267 -0.4728  1.9886  2.7419
   33MOL   N51233216   7.823   1.053   4.483  0.0695  0.0604 -0.1585
   33MOL   C51333217   7.843   1.090   4.617  0.1778 -0.9834 -0.0576
   33MOL   C51433218   7.778   1.019   4.714 -0.4238  0.2728 -0.0390
   33MOL   C51533219   7.792   1.054   4.849 -0.4073  0.3439  0.0372
   33MOL   C51633220   7.867   1.166   4.883 -0.8254 -0.3058  0.1452
   33MOL   N51733221   7.881   1.203   5.017 -0.3303 -0.2733  0.2424
   33MOL   C51833222   7.891   1.118   5.127  0.4490 -0.2755 -0.1795
   33MOL   C51933223   7.953   0.992   5.115 -0.3935  0.0830  0.4040
   33MOL   C52033224   0.006   0.916   5.225  0.6140  0.2674  0.0568
   33MOL   C52133225   7.964   0.970   5.354 -0.4995  0.2056  0.4559
   33MOL   N52233226   7.980   0.894   5.470  0.0381  0.0440 -0.0438
   33MOL   C52333227   0.032   0.934   5.599 -0.0058 -1.0887 -0.1074
   33MOL   C52433228   7.958   0.864   5.704 -0.2277 -0.6104  0.1721
   33MOL   C52533229   7.972   0.911   5.840 -0.0459  0.3174 -0.3347
   33MOL   C52633230   0.073   1.022   5.867  0.0682  0.8580  0.0859
   33MOL   N52733231   0.098   1.068   5.998  0.1205 -0.1781  0.1465
   33MOL   C52833232   0.224   1.100   6.055 -0.0495 -0.2696  0.8114
   33MOL   C52933233   0.228   1.171   6.179 -0.0455  0.1817  0.6259
   33MOL   C53033234   0.348   1.212   6.234  0.0878  0.8267 -0.2141
   33MOL   C53133235   0.470   1.177   6.169 -0.6290  0.0560 -0.6243
   33MOL   C53233236   0.604   1.224   6.213  0.2522 -0.0420  0.3438
   33MOL   C53333237   0.466   1.104   6.046  0.6856 -0.0578 -0.4399
   33MOL   C53433238   0.343   1.062   5.994  0.3616  0.5110 -0.6852
   33MOL   C53533239   0.137   1.084   5.759 -0.4771 -0.1133 -0.1628
   33MOL   C53633240   0.105   1.051   5.627  0.1624 -0.4269  0.1169
   33MOL   C53733241   7.905   1.098   5.368 -0.5269 -0.6614  0.6319
   33MOL   C53833242   7.863   1.167   5.256 -0.0426 -0.0712  0.2339
   33MOL   C53933243   7.933   1.238   4.785  0.4263 -0.4043  0.3993
   33MOL   C54033244   7.927   1.201   4.652 -0.6612  0.2458 -0.3290
   33MOL   H54133245   7.773   0.967   4.467  1.0519 -0.0406 -2.9128
   33MOL   H54233246   7.714   0.938   4.682 -1.4004  0.7708  0.6364
   33MOL   H54333247   7.745   0.999   4.928 -1.5037 -1.5402 -1.8859
   33MOL   H54433248   7.893   1.302   5.030  0.6602 -0.1951 -1.1541
   33MOL   H54533249   0.005   0.961   5.017 -0.2213 -0.4836  0.6429
   33MOL   H54633250   0.057   0.821   5.217 -0.2158 -0.3079  1.3737
   33MOL   H54733251   7.944   0.800   5.468  1.2437 -0.4134 -1.0039
   33MOL   H54833252   7.902   0.772   5.690 -0.5486 -0.2078 -1.2450
   33MOL   H54933253   7.914   0.863   5.917 -1.0118 -0.7270 -1.6863
   33MOL   H55033254   0.034   1.035   6.069 -0.7171 -0.4328 -0.7194
   33MOL   H55133255   0.134   1.214   6.209 -0.3252  0.1441 -0.1814
   33MOL   H55233256   0.364   1.267   6.326 -1.8276  1.1385 -0.0438
   33MOL   H55333257   0.672   1.149   6.174  0.9627  0.9755 -0.4074
   33MOL   H55433258   0.595   1.229   6.321 -2.2695 -0.2807  0.1929
   33MOL   H55533259   0.560   1.100   5.992  1.6150 -0.1900  1.1485
   33MOL   H55633260   0.340   1.023   5.894 -2.0515 -0.0508 -0.4403
   33MOL   H55733261   0.203   1.170   5.768  0.0650 -0.4313 -1.0405
   33MOL   H55833262   0.165   1.093   5.547  3.1374 -1.1051  1.9305
   33MOL   H55933263   7.882   1.136   5.467  2.0498  3.1801 -0.1433
   33MOL   H56033264   7.818   1.265   5.269 -1.2975 -0.2883 -2.0798
   33MOL   H56133265   0.015   1.318   4.819  0.5369  0.2265 -1.2127
   33MOL   H56233266   7.972   1.271   4.583  1.9570 -0.8577  0.2355
   33MOL   N56333267   0.629   1.356   6.153 -0.7104  0.0536 -0.5706
   33MOL   C56433268   0.756   1.402   6.177  0.4171  0.0729  0.2534
   33MOL   C56533269   0.762   1.540   6.197 -0.8936 -0.6657 -0.1637
   33MOL   C56633270   0.887   1.601   6.202 -0.5271  0.0642 -0.3833
   33MOL   C56733271   1.004   1.521   6.210 -0.1475 -0.3790  0.2626
   33MOL   N56833272   1.124   1.584   6.239 -0.1722  0.0005  0.0670
   33MOL   C56933273   1.254   1.535   6.229 -0.3733  0.0324 -0.7579
   33MOL   C57033274   1.330   1.561   6.111  0.1516 -0.6128 -0.4557
   33MOL   C57133275   1.463   1.513   6.100  0.8143  0.0941  0.6361
   33MOL   C57233276   1.527   1.456   6.208  0.5896  0.0483  0.6995
   33MOL   N57333277   1.654   1.394   6.202  0.0900 -0.2984  0.5916
   33MOL   C57433278   1.692   1.298   6.107  0.7383  0.1213 -0.2828
   33MOL   C57533279   1.606   1.207   6.040  0.3308  0.2189  0.3314
   33MOL   C57633280   1.651   1.113   5.943  0.4287 -0.3175 -0.1499
   33MOL   C57733281   1.792   1.111   5.933 -0.2388  0.4699 -0.5290
   33MOL   N57833282   1.855   1.026   5.837  0.9610 -0.3752 -0.7062
   33MOL   C57933283   1.864   0.887   5.833  0.1523  0.8968 -0.2490
   33MOL   C58033284   1.917   0.826   5.713 -0.0031  0.6602  0.7533
   33MOL   C58133285   1.928   0.688   5.701 -0.5321  0.0077 -0.4675
   33MOL   C58233286   1.883   0.601   5.809  0.5250  0.0911 -0.4586
   33MOL   C58333287   1.892   0.458   5.798  0.3897  0.4492  0.8413
   33MOL   C58433288   1.840   0.660   5.931 -0.0403  0.0315  0.2489
   33MOL   C58533289   1.833   0.803   5.940  0.4562  0.4827  0.6664
   33MOL   C58633290   1.883   1.201   6.001 -0.0597  0.6301  0.3110
   33MOL   C58733291   1.826   1.299   6.088 -0.4369  0.8220  0.1024
   33MOL   C58833292   1.453   1.428   6.323  0.5355  0.2336  0.0155
   33MOL   C58933293   1.323   1.471   6.332  0.4604 -0.0766 -0.1027
   33MOL   C59033294   0.993   1.380   6.191  0.4768 -0.3914  0.1625
   33MOL   C59133295   0.870   1.320   6.175 -0.2555  0.4445  0.5207
   33MOL   H59233296   0.557   1.418   6.119 -2.3858 -1.4387  0.1677
   33MOL   H59333297   0.678   1.608   6.198  1.4199  2.2745  0.4286
   33MOL   H59433298   0.886   1.709   6.208  0.8241 -0.0359  2.8474
   33MOL   H59533299   1.120   1.685   6.243  0.3056  0.0185  0.1296
   33MOL   H59633300   1.291   1.607   6.021 -1.0269 -1.2062 -0.2533
   33MOL   H59733301   1.519   1.517   6.008  0.5851 -1.0839  0.4494
   33MOL   H59833302   1.732   1.459   6.206 -0.1603  0.1080 -0.6368
   33MOL   H59933303   1.503   1.214   6.071  0.3898 -0.3631  0.6628
   33MOL   H60033304   1.601   1.033   5.892  1.3026 -0.6824 -0.4413
   33MOL   H60133305   1.932   1.075   5.794  2.2358  0.4196  2.3533
   33MOL   H60233306   1.946   0.892   5.633 -1.5477  2.1663  1.4050
   33MOL   H60333307   1.959   0.649   5.605  1.1283 -0.0562  0.0864
   33MOL   H60433308   1.851   0.403   5.882 -1.5781 -0.7468 -0.8377
   33MOL   H60533309   1.999   0.436   5.795 -0.0299 -1.5319 -1.9195
   33MOL   H60633310   1.816   0.604   6.020 -3.0838 -0.1045 -0.5849
   33MOL   H60733311   1.803   0.837   6.038  0.1704  0.5410  0.5588
   33MOL   H60833312   1.990   1.196   5.987 -0.0982 -0.4402  0.3516
   33MOL   H60933313   1.899   1.361   6.137  3.1621 -3.1229  0.1188
   33MOL   H61033314   1.497   1.378   6.408  0.2489  0.4048  0.2623
   33MOL   H61133315   1.259   1.443   6.414  1.0026 -1.4430 -0.1288
   33MOL   H61233316   1.086   1.325   6.194 -0.4781 -2.0075  1.2135
   33MOL   H61333317   0.863   1.212   6.164  0.4533  0.2467  1.9509
   33MOL   N61433318   1.838   0.397   5.675  0.2485  0.0659  0.5042
   33MOL   C61533319   1.700   0.420   5.635  0.2080  0.6059  0.0585
   33MOL   C61633320   1.663   0.424   5.500  0.3469  0.5084 -0.6346
   33MOL   C61733321   1.525   0.437   5.466  0.3845 -0.3150  0.1784
   33MOL   C61833322   1.432   0.443   5.573 -0.1622  0.3072  1.2342
   33MOL   N61933323   1.294   0.430   5.536  0.1265  0.4614 -0.2576
   33MOL   C62033324   1.192   0.508   5.581 -0.0293  0.4823  0.1585
   33MOL   C62133325   1.058   0.458   5.571 -0.2554  0.4363 -0.0215
   33MOL   C62233326   0.958   0.528   5.644 -0.3067  0.4335 -0.2153
   33MOL   C62333327   0.985   0.649   5.712 -0.6505 -0.1620 -1.5698
   33MOL   N62433328   0.887   0.721   5.781  0.3878 -0.4867 -0.0751
   33MOL   C62533329   0.817   0.681   5.896 -0.6132  0.3920 -0.0576
   33MOL   C62633330   0.731   0.770   5.953  0.7002 -0.2133  0.3685
   33MOL   C62733331   0.670   0.740   6.074  0.4158 -0.9811 -0.4489
   33MOL   C62833332   0.698   0.620   6.139  1.0657  0.8472 -0.0541
   33MOL   N62933333   0.639   0.582   6.257 -0.1225  0.6607 -0.4146
   33MOL   C63033334   0.642   0.454   6.311 -0.2120  0.3906 -0.1411
   33MOL   C63133335   0.761   0.413   6.373  0.4779  0.0699  0.4105
   33MOL   C63233336   0.776   0.285   6.433 -0.1148  0.9217 -0.5327
   33MOL   C63333337   0.657   0.199   6.429  0.4635 -0.2320  0.6425
   33MOL   C63433338   0.675   0.062   6.484 -0.2621  0.2763 -0.8171
   33MOL   C63533339   0.542   0.237   6.360  0.2092  0.0895 -0.5107
   33MOL   C63633340   0.528   0.369   6.306 -0.1333 -0.0415  0.8134
   33MOL   C63733341   0.774   0.523   6.070  0.0989 -0.1196 -0.0199
   33MOL   C63833342   0.833   0.554   5.948  0.0523  0.2793 -0.0188
   33MOL   C63933343   1.115   0.710   5.697 -0.1531 -0.1512  0.7125
   33MOL   C64033344   1.221   0.637   5.633  0.0961  0.3565 -0.3391
   33MOL   C64133345   1.467   0.448   5.708 -0.2777  0.3238 -0.8733
   33MOL   C64233346   1.602   0.425   5.738 -0.2807  0.4207  0.2326
   33MOL   H64333347   1.908   0.377   5.605  0.2430 -1.1602  0.8338
   33MOL   H64433348   1.731   0.419   5.416 -1.1143  1.4426 -1.9092
   33MOL   H64533349   1.488   0.438   5.364 -0.3004  0.3420  0.4306
   33MOL   H64633350   1.268   0.370   5.459 -1.8796 -1.0016  1.4852
   33MOL   H64733351   1.026   0.360   5.538 -0.9824  0.1908  1.3593
   33MOL   H64833352   0.855   0.494   5.648 -0.2284  0.0080 -1.5858
   33MOL   H64933353   0.878   0.820   5.762 -0.1625 -0.6429 -0.6468
   33MOL   H65033354   0.697   0.866   5.917  1.4669  0.0885  0.4385
   33MOL   H65133355   0.619   0.820   6.127  2.4710 -0.0506  0.1884
   33MOL   H65233356   0.555   0.635   6.278 -0.1132  0.4387  0.1976
   33MOL   H65333357   0.845   0.481   6.385  0.3027  0.2685  0.5058
   33MOL   H65433358   0.869   0.257   6.478 -0.4861  0.9425  0.2599
   33MOL   H65533359   0.769   0.028   6.441 -0.5264 -0.6175 -0.6904
   33MOL   H65633360   0.595   7.973   6.465 -0.1043 -0.1387  0.0296
   33MOL   H65733361   0.457   0.172   6.348 -0.6645  0.8326  1.3689
   33MOL   H65833362   0.431   0.391   6.263  0.8589  1.9749 -0.4696
   33MOL   H65933363   0.785   0.424   6.114  0.8220  0.1818  0.4851
   33MOL   H66033364   0.884   0.476   5.894  0.0116  0.3214 -0.1182
   33MOL   H66133365   1.127   0.810   5.736 -1.0842 -0.4664  1.8407
   33MOL   H66233366   1.318   0.685   5.633  0.0951  0.3580 -0.3762
   33MOL   H66333367   1.386   0.446   5.780  2.0357 -0.8745  1.8049
   33MOL   H66433368   1.633   0.422   5.841 -1.7330 -0.7884  0.6589
   33MOL   N66533369   0.678   0.061   6.628  0.4084  0.2584  0.2941
   33MOL   C66633370   0.568   0.115   6.693  0.5046 -0.1080 -0.1278
   33MOL   C66733371   0.587   0.193   6.803 -0.0778  1.2718 -0.3025
   33MOL   C66833372   0.481   0.230   6.886  0.1061  0.5802 -0.0524
   33MOL   C66933373   0.350   0.195   6.848 -0.1451  0.1790 -0.1673
   33MOL   N67033374   0.248   0.227   6.934 -0.3434  0.7257  0.1038
   33MOL   C67133375   0.108   0.229   6.919  0.1717 -0.4082  0.4244
   33MOL   C67233376   0.043   0.331   6.982  0.7304  0.4979 -0.6310
   33MOL   C67333377   7.887   0.359   6.954  0.1994 -0.3594  0.0839
   33MOL   C67433378   7.815   0.269   6.874  0.6108  0.5620 -0.2556
   33MOL   N67533379   7.684   0.284   6.844 -0.4279 -0.1548  0.0227
   33MOL   C67633380   7.600   0.381   6.895 -0.2830 -1.1594 -0.2308
   33MOL   C67733381   7.627   0.512   6.843 -0.2849 -0.6728 -0.6000
   33MOL   C67833382   7.554   0.619   6.897 -0.2068 -0.3600 -0.0005
   33MOL   C67933383   7.443   0.596   6.980  0.6800  1.1779  0.7062
   33MOL   N68033384   7.374   0.704   7.034  0.2497 -0.5065 -0.5294
   33MOL   C68133385   7.360   0.729   7.173  0.3669 -0.3991 -0.2547
   33MOL   C68233386   7.277   0.830   7.216  0.0977 -0.7225 -0.1714
   33MOL   C68333387   7.247   0.856   7.346 -0.7039 -0.4803 -0.4843
   33MOL   C68433388   7.323   0.790   7.445 -0.4374  0.2009  0.3600
   33MOL   C68533389   7.309   0.816   7.596 -0.4349 -0.2156  0.2044
   33MOL   C68633390   7.408   0.686   7.412 -0.1928 -0.2166 -0.0081
   33MOL   C68733391   7.432   0.656   7.273  0.6266 -0.1901 -0.5850
   33MOL   C68833392   7.421   0.465   7.031 -0.5133 -0.2578 -0.2197
   33MOL   C68933393   7.499   0.357   6.987 -0.1969 -0.1073  0.4485
   33MOL   C69033394   7.875   0.160   6.811  0.2124  0.2306  0.0916
   33MOL   C69133395   0.028   0.138   6.840 -0.8552 -0.4813  0.5059
   33MOL   C69233396   0.326   0.119   6.731  0.1052 -0.2168 -0.0844
   33MOL   C69333397   0.439   0.068   6.661 -0.1556  1.3105  0.1188
   33MOL   H69433398   0.762   0.097   6.671  1.3022 -1.6218  0.1845
   33MOL   H69533399   0.683   0.231   6.833  0.9148  0.0465 -1.8833
   33MOL   H69633400   0.495   0.294   6.971  1.7559  1.0362 -0.6582
   33MOL   H69733401   0.271   0.284   7.014  0.5878  0.0517  0.3211
   33MOL   H69833402   0.090   0.400   7.050  1.7463 -0.2270 -0.5836
   33MOL   H69933403   7.840   0.445   7.000  1.1079 -0.0955  0.5286
   33MOL   H70033404   7.633   0.214   6.792 -1.6453 -1.0316  2.3343
   33MOL   H70133405   7.707   0.543   6.778 -1.0111  1.2452 -0.6314
   33MOL   H70233406   7.576   0.720   6.867 -1.9989  0.4201  1.1759
   33MOL   H70333407   7.343   0.781   6.977  1.9570  0.5349 -0.0893
   33MOL   H70433408   7.223   0.889   7.144  2.4173  2.8421  0.9101
   33MOL   H70533409   7.184   0.936   7.379 -0.7636 -0.9795  0.6489
   33MOL   H70633410   7.405   0.796   7.643  0.4819 -0.6622 -1.8086
   33MOL   H70733411   7.246   0.728   7.612  0.3174 -0.7234  0.4268
   33MOL   H70833412   7.467   0.632   7.485  0.8077 -2.0791 -2.1180
   33MOL   H70933413   7.501   0.579   7.243 -0.8449 -1.9786  0.4925
   33MOL   H71033414   7.346   0.440   7.104  1.6684 -1.6897  1.5967
   33MOL   H71133415   7.476   0.264   7.037  0.1388 -0.0242  0.7664
   33MOL   H71233416   7.810   0.111   6.740  0.7202 -1.6874  0.8933
   33MOL   H71333417   0.070   0.057   6.781  0.6184 -0.6146  1.7221
   33MOL   H71433418   0.236   0.092   6.678 -1.0596 -3.4839  3.3676
   33MOL   H71533419   0.413   0.000   6.581  1.2378 -2.3530  2.6113
   33MOL   N71633420   7.251   0.942   7.635 -0.2603  0.5922  0.1123
   33MOL   C71733421   7.268   0.995   7.758  0.1949 -0.2753 -0.3984
   33MOL   C71833422   7.350   0.936   7.863 -0.0028 -0.1566 -0.2282
   33MOL   C71933423   7.351   1.001   0.002 -0.1245 -0.3204 -0.0646
   33MOL   C72033424   7.285   1.120   0.031  0.2804 -0.1136  0.1000
   33MOL   N72133425   7.294   1.186   0.150  0.2479 -0.4840  0.0120
   33MOL   C72233426   7.188   1.252   0.202  0.2021  0.6822 -0.2404
   33MOL   C72333427   7.107   1.192   0.302  0.2834  0.3402  0.6431
   33MOL   C72433428   6.992   1.254   0.349  0.3346  0.1678  0.1943
   33MOL   C72533429   6.978   1.390   0.331 -0.9934  0.2041 -0.2255
   33MOL   N72633430   6.878   1.463   0.393  0.1221  0.3266 -0.6853
   33MOL   C72733431   6.860   1.598   0.392 -1.1208 -1.0676 -0.2440
   33MOL   C72833432   6.740   1.656   0.337  0.4205 -0.4147 -0.4227
   33MOL   C72933433   6.711   1.797   0.335 -0.3714 -0.3505  0.5278
   33MOL   C73033434   6.802   1.879   0.397 -0.0838 -0.3516  0.1355
   33MOL   N73133435   6.773   2.019   0.402  0.1477  0.0951  0.6889
   33MOL   C73233436   6.840   2.118   0.476  0.0630 -0.0547 -0.7145
   33MOL   C73333437   6.861   2.249   0.415 -0.1208  0.0732  0.3147
   33MOL   C73433438   6.932   2.350   0.484 -0.4789  1.0304  0.4192
   33MOL   C73533439   6.975   2.330   0.613  0.0774  0.3377 -0.0177
   33MOL   C73633440   7.059   2.429   0.686  0.0669  0.1086  0.2720
   33MOL   C73733441   6.953   2.208   0.675  0.1308  0.0768 -0.1938
   33MOL   C73833442   6.886   2.104   0.607  0.1157  0.0022  0.0411
   33MOL   C73933443   6.928   1.828   0.448 -0.0208 -0.5205  0.7658
   33MOL   C74033444   6.955   1.689   0.450  0.3198 -0.4916 -0.5219
   33MOL   C74133445   7.072   1.462   0.249 -0.3170 -0.4387 -0.0467
   33MOL   C74233446   7.177   1.390   0.184  0.4612 -0.5405  0.1425
   33MOL   C74333447   7.210   1.176   7.908 -0.5112  0.7157 -1.2345
   33MOL   C74433448   7.196   1.112   7.784 -0.3216  0.8683  0.7735
   33MOL   H74533449   7.173   0.979   7.582  0.8828  1.9182 -0.6684
   33MOL   H74633450   7.413   0.850   7.847  0.1585 -0.1450  0.3371
   33MOL   H74733451   7.411   0.966   0.085 -3.2569 -1.6766  1.7528
   33MOL   H74833452   7.352   1.135   0.216  0.0099  0.2291  0.7795
   33MOL   H74933453   7.121   1.086   0.316  0.4574  0.2153 -0.4014
   33MOL   H75033454   6.924   1.204   0.416  0.1635 -0.2620 -0.2970
   33MOL   H75133455   6.821   1.403   0.451  1.2085 -1.1037 -1.0723
   33MOL   H75233456   6.678   1.587   0.281  0.1880 -0.7136  0.2035
   33MOL   H75333457   6.625   1.843   0.289 -0.1269  0.3540  0.7582
   33MOL   H75433458   6.713   2.045   0.325 -1.0957 -0.7945  1.3407
   33MOL   H75533459   6.827   2.265   0.314  0.4007 -0.6451  0.0243
   33MOL   H75633460   6.954   2.445   0.438  0.0729 -0.4703 -2.5986
   33MOL   H75733461   7.053   2.397   0.790 -2.2056 -1.8629 -0.4283
   33MOL   H75833462   7.012   2.527   0.702 -0.9934 -0.7475  2.5819
   33MOL   H75933463   6.985   2.186   0.776  0.9424  0.6939 -0.3169
   33MOL   H76033464   6.856   2.013   0.656  3.9109 -0.4659  1.6419
   33MOL   H76133465   7.006   1.891   0.489  1.2058 -0.2027 -1.9340
   33MOL   H76233466   7.046   1.653   0.494  1.7956  0.2320 -2.8515
   33MOL   H76333467   7.066   1.570   0.245  0.5741 -0.3883 -0.2620
   33MOL   H76433468   7.246   1.450   0.126 -0.9978  1.8545  0.8083
   33MOL   H76533469   7.164   1.272   7.923 -0.9652  0.3043  0.0558
   33MOL   H76633470   7.126   1.154   7.713  0.8963 -0.5269 -1.3068
   33MOL   N76733471   7.191   2.438   0.636 -0.2342  0.1282 -0.5371
   33MOL   C76833472   7.205   2.515   0.521  0.7324  0.0150  0.2684
   33MOL   C76933473   7.185   2.653   0.528 -0.0286  0.4862  0.3030
   33MOL   C77033474   7.198   2.730   0.410  0.5842 -0.1084  0.3265
   33MOL   C77133475   7.229   2.670   0.282  0.1786 -0.8025 -0.3008
   33MOL   N77233476   7.257   2.745   0.165 -0.4239  0.6302 -0.3958
   33MOL   C77333477   7.164   2.760   0.062  0.0494 -0.5658 -0.2491
   33MOL   C77433478   7.046   2.683   0.050  0.0829 -0.3570 -0.9021
   33MOL   C77533479   6.967   2.696   7.914 -0.4697  0.4534 -0.6963
   33MOL   C77633480   7.004   2.795   7.818 -0.0395 -0.1414  0.2844
   33MOL   N77733481   6.921   2.821   7.705 -0.9880  0.3964 -0.4653
   33MOL   C77833482   6.784   2.801   7.675  0.4141 -0.2990  0.3384
   33MOL   C77933483   6.685   2.790   7.772  0.9069  0.2800 -0.6783
   33MOL   C78033484   6.547   2.770   7.741  0.5404 -0.4218  0.0407
   33MOL   C78133485   6.510   2.751   7.606 -0.3205 -0.5341 -0.7287
   33MOL   N78233486   6.383   2.708   7.570  0.2722 -0.8313  0.6024
   33MOL   C78333487   6.266   2.737   7.639 -0.1674  0.6228  0.6373
   33MOL   C78433488   6.185   2.633   7.685  0.5613 -0.7125  0.1954
   33MOL   C78533489   6.082   2.651   7.778  0.1155  0.2954  0.1010
   33MOL   C78633490   6.062   2.777   7.827 -0.1608 -0.0195 -0.6344
   33MOL   C78733491   5.959   2.810   7.931  0.2401 -0.7731  0.0659
   33MOL   C78833492   6.141   2.888   7.785 -0.9782  1.0316  0.3714
   33MOL   C78933493   6.237   2.864   7.681 -0.2230 -0.9133  0.2712
   33MOL   C79033494   6.607   2.767   7.506  0.4226 -0.1223 -0.4569
   33MOL   C79133495   6.744   2.789   7.538 -0.3109  0.5126  0.6329
   33MOL   C79233496   7.125   2.868   7.831 -0.6929  0.7665  0.1040
   33MOL   C79333497   7.202   2.854   7.943  0.1521 -0.8773  0.3085
   33MOL   C79433498   7.247   2.530   0.289 -0.3215  0.3099 -0.0577
   33MOL   C79533499   7.247   2.457   0.406  0.4619  0.2104  1.3058
   33MOL   H79633500   7.239   2.350   0.649 -1.6376 -0.7382 -1.1360
   33MOL   H79733501   7.170   2.703   0.623 -1.4568  0.0278  0.3291
   33MOL   H79833502   7.180   2.837   0.409  1.6862  0.0812  0.6718
   33MOL   H79933503   7.321   2.822   0.177 -0.8945  0.7237  1.6158
   33MOL   H80033504   7.023   2.615   0.130 -0.0342  3.1538  2.2082
   33MOL   H80133505   6.878   2.636   7.916 -0.2174  0.0782 -0.7290
   33MOL   H80233506   6.982   2.865   7.637 -0.2294  0.1275  0.0363
   33MOL   H80333507   6.722   2.807   7.872  1.0542  0.3684 -0.7474
   33MOL   H80433508   6.476   2.773   7.821 -0.9434  0.9092 -1.3020
   33MOL   H80533509   6.365   2.682   7.474  1.8691 -1.7149  0.5345
   33MOL   H80633510   6.202   2.531   7.653  1.9480 -0.3154 -0.3721
   33MOL   H80733511   6.028   2.562   7.806  0.8945  0.1305  1.1134
   33MOL   H80833512   6.024   2.832   0.034  1.2538 -1.1270 -0.6013
   33MOL   H80933513   5.892   2.726   7.949 -1.3754  0.8602  1.9935
   33MOL   H81033514   6.136   2.993   7.810 -0.0674  0.9365  0.9589
   33MOL   H81133515   6.295   2.950   7.652 -0.9040 -0.4212  0.3360
   33MOL   H81233516   6.602   2.752   7.399 -1.1550  1.6056 -0.6508
   33MOL   H81333517   6.814   2.788   7.455  1.1714  1.5621  1.8384
   33MOL   H81433518   7.160   2.941   7.759  1.0713 -1.6461 -1.5798
   33MOL   H81533519   7.288   2.918   7.954 -1.0048  1.3045 -2.8258
   33MOL   H81633520   7.282   2.475   0.203  1.0831  1.1087 -0.0042
   33MOL   H81733521   7.269   2.351   0.403  0.4458  0.2605 -0.8569
   33MOL   N81833522   5.887   2.928   7.890 -0.0858  0.3360  0.0866
   33MOL   C81933523   5.823   3.007   0.002  0.3184  0.5150 -0.5823
   33MOL   C82033524   5.805   2.978   0.140  0.6323 -0.3502  0.1553
   33MOL   C82133525   5.743   3.063   0.233 -0.2429  0.9397 -0.4712
   33MOL   C82233526   5.688   3.187   0.184  0.1762  0.3790 -0.1299
   33MOL   N82333527   5.635   3.273   0.279  0.1070 -0.3869  0.2847
   33MOL   C82433528   5.592   3.406   0.258 -0.0372 -0.8823  0.0161
   33MOL   C82533529   5.673   3.519   0.272  0.3219 -0.3810 -0.1694
   33MOL   C82633530   5.616   3.647   0.253 -0.2892 -0.3742  0.3432
   33MOL   C82733531   5.486   3.664   0.197 -0.4635 -0.0478  0.0336
   33MOL   N82833532   5.441   3.791   0.155 -0.5991 -0.0176 -0.0875
   33MOL   C82933533   5.519   3.886   0.086 -0.2145  0.3569  0.0517
   33MOL   C83033534   5.465   4.021   0.073 -0.4715  0.5372  0.7476
   33MOL   C83133535   5.528   4.105   7.965 -0.5581 -0.0009  0.0227
   33MOL   C83233536   5.655   4.071   7.901  0.1725 -0.2473 -0.2342
   33MOL   N83333537   5.729   4.150   7.814  0.3231 -0.9320  0.5216
   33MOL   C83433538   5.749   4.285   7.818  0.2484 -0.3110 -0.3055
   33MOL   C83533539   5.687   4.387   7.897  0.2459 -0.8884  0.2384
   33MOL   C83633540   5.732   4.522   7.891 -0.0536 -0.9811 -1.3880
   33MOL   C83733541   5.846   4.553   7.816  0.1798  0.5691  0.6225
   33MOL   C83833542   5.899   4.691   7.796  0.6243  0.3963 -0.1102
   33MOL   C83933543   5.913   4.456   7.739 -0.1650  0.5985  0.4921
   33MOL   C84033544   5.862   4.324   7.738  0.2574 -1.0465 -0.2729
   33MOL   C84133545   5.704   3.941   7.917  0.4595  0.9432  0.1929
   33MOL   C84233546   5.637   3.851   0.018  0.5904 -0.0168 -0.5081
   33MOL   C84333547   5.401   3.557   0.187 -0.5092 -0.0364 -0.0539
   33MOL   C84433548   5.455   3.425   0.215  0.3633  0.8411  0.5864
   33MOL   C84533549   5.713   3.226   0.050 -0.3900 -0.0382  0.6452
   33MOL   C84633550   5.772   3.130   7.945 -0.3167 -0.0980  0.7704
   33MOL   H84733551   5.891   2.957   7.793 -3.3353 -2.0046 -0.8324
   33MOL   H84833552   5.842   2.885   0.181 -0.4186 -1.5146 -1.4499
   33MOL   H84933553   5.742   3.037   0.338  0.2738  2.0512 -0.1897
   33MOL   H85033554   5.667   3.242   0.370  1.4990 -0.4438 -0.2069
   33MOL   H85133555   5.778   3.522   0.298  0.1056  1.4545  0.5260
   33MOL   H85233556   5.682   3.733   0.254  1.1967 -1.4802 -0.3264
   33MOL   H85333557   5.345   3.801   0.127 -0.2821  0.7424 -0.9206
   33MOL   H85433558   5.371   4.049   0.116 -0.5466  0.7512  0.4452
   33MOL   H85533559   5.482   4.202   7.950 -0.4979  0.2643  1.4311
   33MOL   H85633560   5.812   4.107   7.775 -0.8990 -0.3132 -2.9431
   33MOL   H85733561   5.605   4.366   7.965  1.7650 -2.4445  1.6149
   33MOL   H85833562   5.687   4.602   7.949  0.6921 -0.4431 -1.5427
   33MOL   H85933563   5.841   4.738   7.716  1.3848  0.0221 -0.8922
   33MOL   H86033564   6.004   4.691   7.767  0.4929  0.8641 -0.5941
   33MOL   H86133565   5.992   4.489   7.673 -0.7578 -0.6602 -0.8884
   33MOL   H86233566   5.901   4.254   7.666 -0.8189 -1.2384 -0.6881
   33MOL   H86333567   5.793   3.901   7.871  0.0723 -1.6129  1.5505
   33MOL   H86433568   5.678   3.751   0.022  1.9870  0.6093  1.2460
   33MOL   H86533569   5.301   3.566   0.147 -1.2686  1.6468  2.1116
   33MOL   H86633570   5.400   3.333   0.203  0.4563  0.8776 -0.1185
   33MOL   H86733571   5.680   3.319   0.006 -0.0561  0.0675  0.6214
   33MOL   H86833572   5.790   3.158   7.842  0.7249  2.5601  1.6188
   33MOL   N86933573   5.892   4.760   7.920 -0.2806 -0.1807 -0.4430
   33MOL   C87033574   5.910   4.894   7.935  0.0433 -0.2175  0.2782
   33MOL   C87133575   5.931   4.939   0.082  0.1653 -0.8258 -0.3092
   33MOL   C87233576   5.962   5.076   0.107 -0.0523 -0.3917 -0.9888
   33MOL   C87333577   5.956   5.169   0.003 -0.3513  0.4549 -0.4100
   33MOL   N87433578   5.980   5.303   0.035 -0.4787 -0.4424  0.0341
   33MOL   C87533579   5.935   5.418   7.950  0.3800  0.4170 -0.0621
   33MOL   C87633580   5.802   5.422   7.887  0.1865 -0.2137  0.7082
   33MOL   C87733581   5.751   5.548   7.833 -0.7968 -0.2378  0.6833
   33MOL   C87833582   5.833   5.661   7.844  0.5089  0.0180 -0.3153
   33MOL   N87933583   5.787   5.785   7.812  0.1252 -0.0966  0.1179
   33MOL   C88033584   5.656   5.838   7.833  0.2507  0.1761  0.7794
   33MOL   C88133585   5.566   5.774   7.920  0.0180 -0.3467  0.0273
   33MOL   C88233586   5.442   5.828   7.947  0.0519 -0.3305  0.2811
   33MOL   C88333587   5.405   5.946   7.874 -0.3746  0.1935  0.2950
   33MOL   N88433588   5.273   6.001   7.898  0.0959  0.7355  0.3164
   33MOL   C88533589   5.189   6.057   7.805  0.3862  0.5119  0.5726
   33MOL   C88633590   5.208   6.032   7.664 -0.3927 -0.2071  0.8116
   33MOL   C88733591   5.120   6.085   7.566  0.2584  0.4236 -0.2830
   33MOL   C88833592   5.000   6.143   7.608  0.6012 -0.2136  0.2636
   33MOL   C88933593   4.894   6.177   7.505  0.0139  0.0989  0.0823
   33MOL   C89033594   4.979   6.174   7.746 -0.2706  0.3985 -0.4780
   33MOL   C89133595   5.069   6.123   7.845  0.2475 -0.6033 -0.2385
   33MOL   C89233596   5.498   6.011   7.783 -0.7030 -0.4150  0.0195
   33MOL   C89333597   5.624   5.960   7.771  0.0401 -0.3416 -0.1033
   33MOL   C89433598   5.961   5.650   7.906  0.0806  0.4091  0.0462
   33MOL   C89533599   6.008   5.532   7.968 -0.0650 -0.4011 -0.1160
   33MOL   C89633600   5.921   5.124   7.855 -0.3610  0.3296 -0.3654
   33MOL   C89733601   5.905   4.987   7.827  0.5570  0.9120 -0.4687
   33MOL   H89833602   5.920   4.701   0.015 -0.4541  1.7488  1.1397
   33MOL   H89933603   5.944   4.872   0.167  2.7097 -1.9793 -1.5623
   33MOL   H90033604   5.978   5.113   0.207 -1.2502 -2.6244  0.0657
   33MOL   H90133605   6.048   5.315   0.109 -0.9414  0.2530  0.3581
   33MOL   H90233606   5.748   5.329   7.877 -0.4045  0.3956 -2.3723
   33MOL   H90333607   5.660   5.559   7.776 -0.4393 -3.2453 -0.5870
   33MOL   H90433608   5.860   5.855   7.809  1.0958 -1.1452 -1.6092
   33MOL   H90533609   5.600   5.691   7.980 -1.1683  0.3061  1.6301
   33MOL   H90633610   5.389   5.784   0.048  0.2183  0.0542  0.5939
   33MOL   H90733611   5.228   5.968   0.000  2.5061  1.2365  1.8343
   33MOL   H90833612   5.302   5.989   7.633  2.1885  2.3540  4.5515
   33MOL   H90933613   5.150   6.064   7.465  1.0312 -0.9466  0.2096
   33MOL   H91033614   4.849   6.272   7.534  0.9572 -0.0728  2.1862
   33MOL   H91133615   4.817   6.101   7.502  0.5271 -0.4109 -0.2358
   33MOL   H91233616   4.887   6.225   7.773 -1.5314 -2.2188  0.3466
   33MOL   H91333617   5.045   6.134   7.950 -0.5090 -1.0416 -0.3562
   33MOL   H91433618   5.476   6.105   7.735  0.6821 -0.2911 -0.3665
   33MOL   H91533619   5.691   6.012   7.705 -0.6222 -0.3543 -0.7872
   33MOL   H91633620   6.025   5.735   7.920  1.8421 -0.8306 -0.4062
   33MOL   H91733621   6.097   5.540   0.046  0.1519 -0.1751 -0.4588
   33MOL   H91833622   5.918   5.195   7.774  1.5108  0.9627  0.0911
   33MOL   H91933623   5.879   4.966   7.724  1.4700  0.6717 -0.6529
   33MOL   N92033624   4.945   6.174   7.372  0.2312  0.1225 -0.4228
   33MOL   C92133625   4.873   6.212   7.261  0.6685  0.2862 -0.2960
   33MOL   C92233626   4.759   6.290   7.282 -0.0890 -0.2590 -0.3634
   33MOL   C92333627   4.690   6.337   7.168 -0.1610 -0.0858  0.4015
   33MOL   C92433628   4.726   6.296   7.039  0.5995 -0.4825  0.1284
   33MOL   N92533629   4.651   6.332   6.927  1.0761 -0.1242  0.3658
   33MOL   C92633630   4.577   6.451   6.904 -1.0197  0.2274 -0.1168
   33MOL   C92733631   4.456   6.448   6.833 -0.4002  0.7034  0.6018
   33MOL   C92833632   4.373   6.563   6.825 -0.1442  0.4928 -0.5821
   33MOL   C92933633   4.419   6.688   6.863 -0.2278 -0.3879 -0.2117
   33MOL   N93033634   4.340   6.804   6.856 -0.4386  0.3552 -0.2170
   33MOL   C93133635   4.389   6.932   6.829  0.8478  0.2666  0.1583
   33MOL   C93233636   4.512   6.959   6.763  0.6676  0.0108  0.5285
   33MOL   C93333637   4.557   7.094   6.741 -0.0251 -0.1463  0.0563
   33MOL   C93433638   4.469   7.196   6.787 -0.3142  0.0133 -0.5985
   33MOL   N93533639   4.513   7.327   6.759 -0.0420 -0.4369 -0.2580
   33MOL   C93633640   4.447   7.417   6.679 -0.0593 -0.1105  0.5282
   33MOL   C93733641   4.325   7.393   6.612  0.0162  1.4171 -0.0416
   33MOL   C93833642   4.269   7.494   6.533 -0.3272 -0.4659 -0.6396
   33MOL   C93933643   4.332   7.622   6.518 -0.2812 -0.3419 -0.4568
   33MOL   C94033644   4.280   7.732   6.424  1.0345  0.1954  0.5521
   33MOL   C94133645   4.453   7.644   6.588 -0.6413  0.2364 -0.2577
   33MOL   C94233646   4.509   7.540   6.668  0.0324  0.0709 -0.0910
   33MOL   C94333647   4.346   7.169   6.857  0.0210  0.1320 -0.1678
   33MOL   C94433648   4.304   7.038   6.875  0.2750 -0.5218 -0.5887
   33MOL   C94533649   4.544   6.695   6.925  0.2853  0.3967 -0.2110
   33MOL   C94633650   4.621   6.579   6.951 -0.3072 -0.9210 -0.6020
   33MOL   C94733651   4.843   6.223   7.017 -0.1541 -0.3602  0.3384
   33MOL   C94833652   4.914   6.176   7.131 -0.1338 -0.8906  0.5350
   33MOL   H94933653   5.045   6.183   7.372  0.2195  0.3630 -1.9807
   33MOL   H95033654   4.729   6.327   7.379  2.3709 -0.7366  0.6239
   33MOL   H95133655   4.616   6.412   7.188  1.9545  2.0908  0.2341
   33MOL   H95233656   4.627   6.261   6.858 -0.0262  0.9412 -0.3565
   33MOL   H95333657   4.401   6.357   6.813 -0.4693  1.0515 -0.8314
   33MOL   H95433658   4.271   6.552   6.791 -0.8850  0.3526  1.6683
   33MOL   H95533659   4.241   6.781   6.854 -0.5185  0.7244 -0.8428
   33MOL   H95633660   4.579   6.884   6.724  0.4728  0.2032 -0.1805
   33MOL   H95733661   4.653   7.126   6.704 -0.8642  1.5741 -0.7028
   33MOL   H95833662   4.610   7.350   6.772  0.3593 -1.6395 -0.9993
   33MOL   H95933663   4.281   7.296   6.630 -0.4225  1.5160 -0.6001
   33MOL   H96033664   4.185   7.468   6.471 -1.4354  0.8083  0.3015
   33MOL   H96133665   4.217   7.795   6.487  1.4873 -0.0365  1.2358
   33MOL   H96233666   4.214   7.693   6.346  2.8563 -1.1251 -0.3492
   33MOL   H96333667   4.508   7.736   6.586  0.4446 -0.3848  0.3839
   33MOL   H96433668   4.600   7.553   6.725  0.5121  0.8863 -1.0447
   33MOL   H96533669   4.277   7.245   6.892  1.5360  1.1052  0.7639
   33MOL   H96633670   4.218   7.016   6.937  1.1306  0.9305  1.1509
   33MOL   H96733671   4.585   6.791   6.954 -1.5953  0.3836  2.7052
   33MOL   H96833672   4.722   6.593   6.986 -0.4522 -1.4775  0.0459
   33MOL   H96933673   4.865   6.196   6.915  0.1164 -1.3235  0.6478
   33MOL   H97033674   5.006   6.120   7.117  0.2158 -0.7432  2.2456
   33MOL   N97133675   4.394   7.804   6.360 -0.0612 -0.3385  0.2286
   33MOL   C97233676   4.366   7.849   6.232 -1.4206 -0.7125 -0.0965
   33MOL   C97333677   4.459   7.811   6.131 -0.0291  0.1807 -0.5071
   33MOL   C97433678   4.427   7.848   6.004 -0.2775  0.6761 -0.1065
   33MOL   C97533679   4.313   7.927   5.970  0.5244  0.3308 -0.1394
   33MOL   N97633680   4.300   7.960   5.837  0.2966  0.6538 -0.5459
   33MOL   C97733681   4.178   0.005   5.774 -0.0787  0.1407 -0.8445
   33MOL   C97833682   4.186   0.105   5.672  0.0841  0.2553 -0.2620
   33MOL   C97933683   4.067   0.143   5.601 -0.2498  0.6962  0.4478
   33MOL   C98033684   3.945   0.089   5.644 -0.5792 -0.4979  0.4932
   33MOL   N98133685   3.826   0.129   5.586 -0.1570 -0.0195  0.2554
   33MOL   C98233686   3.726   0.045   5.531 -0.1965  0.4861 -0.2661
   33MOL   C98333687   3.763   7.894   5.504  0.6437 -0.1972  0.4398
   33MOL   C98433688   3.664   7.808   5.451  0.3273  0.0418  0.1787
   33MOL   C98533689   3.529   7.847   5.429  0.5598  0.0497 -1.0080
   33MOL   N98633690   3.443   7.757   5.365  0.0650 -0.1942  0.5880
   33MOL   C98733691   3.391   7.776   5.236 -0.4309  0.2737 -0.4651
   33MOL   C98833692   3.293   7.688   5.189 -0.0683 -0.1314 -0.2138
   33MOL   C98933693   3.228   7.713   5.064 -0.4347  0.0866 -0.1702
   33MOL   C99033694   3.278   7.817   4.987 -0.4347  0.4023  0.0408
   33MOL   C99133695   3.220   7.847   4.854  0.5002  0.2535  0.5429
   33MOL   C99233696   3.386   7.897   5.031 -0.3442 -0.2786 -0.0143
   33MOL   C99333697   3.450   7.873   5.153  0.5472  0.0434 -0.0752
   33MOL   C99433698   3.496   7.982   5.455 -0.1126 -0.1563 -0.5385
   33MOL   C99533699   3.595   0.089   5.502  0.1686 -0.3455  0.4903
   33MOL   C99633700   3.940   7.969   5.746 -0.5841  0.0354  0.7423
   33MOL   C99733701   4.061   7.927   5.809 -0.0985 -0.2155  0.5532
   33MOL   C99833702   4.232   7.980   6.076 -0.7302  0.8529  0.4042
   33MOL   C99933703   4.252   7.928   6.206  0.0790  0.3994 -0.1432
   33MOL     H133704   4.465   7.733   6.372 -0.5963 -0.4757  2.9335
   33MOL     H233705   4.539   7.740   6.146  0.2888 -0.3540 -4.1795
   33MOL     H333706   4.496   7.808   5.931  2.2370  1.3439  1.8216
   33MOL     H433707   4.364   7.933   5.764  0.1225 -1.2921  0.0016
   33MOL     H533708   4.278   0.158   5.650 -0.6315  1.6497  0.0641
   33MOL     H633709   4.064   0.200   5.509  2.2097  1.3597  0.7369
   33MOL     H733710   3.817   0.228   5.565  0.3408  0.7092  3.3154
   33MOL     H833711   3.864   7.863   5.524  0.6019  0.3553  1.5370
   33MOL     H933712   3.690   7.705   5.430  2.0886  0.5417 -0.2505
   33MOL    H1033713   3.392   7.695   5.426 -2.7654  1.5509  0.1230
   33MOL    H1133714   3.252   7.602   5.240  1.6849 -0.9379 -0.1188
   33MOL    H1233715   3.149   7.643   5.042 -0.0956 -0.6002  0.7604
   33MOL    H1333716   3.285   7.916   4.799  1.0202  0.9696  2.0456
   33MOL    H1433717   3.118   7.884   4.866  0.1326 -0.9154  1.0530
   33MOL    H1533718   3.423   7.979   4.971 -0.9673  1.0813  1.4260
   33MOL    H1633719   3.532   7.937   5.182 -0.2935  2.0964 -2.0465
   33MOL    H1733720   3.392   0.026   5.438 -0.3455 -1.5970 -1.4793
   33MOL    H1833721   3.553   0.188   5.509 -0.1324 -0.4064 -0.3840
   33MOL    H1933722   3.845   7.929   5.779 -0.9693  0.7526  0.5194
   33MOL    H2033723   4.052   7.862   5.896 -0.0647  0.5957  1.1691
   33MOL    H2133724   4.151   0.069   6.070 -0.8096  0.9161  2.0045
   33MOL    H2233725   4.196   7.949   6.296 -0.9454  1.1058 -0.9400
   33MOL    H2333726   3.217   7.753   4.799  2.9516  0.7638 -0.5508
   34MOL     N133727   6.560   0.858   6.441 -0.2936  0.1015 -0.3433
   34MOL     C233728   6.656   0.857   6.345 -0.0127 -0.1408 -0.2680
   34MOL     C333729   6.659   0.752   6.250  0.1824 -0.4598  0.1334
   34MOL     C433730   6.753   0.752   6.142  0.4238  0.2296  0.4520
   34MOL     C533731   6.836   0.864   6.116 -0.4139  0.2544  0.2821
   34MOL     N633732   6.913   0.876   5.997  0.4328  0.3492 -0.5319
   34MOL     C733733   6.971   0.771   5.920 -0.5365  0.0979  0.2636
   34MOL     C833734   6.990   0.634   5.964 -0.0171 -1.3354  0.6894
   34MOL     C933735   7.051   0.543   5.875  0.1248  0.1191  0.3881
   34MOL    C1033736   7.098   0.592   5.752  0.2865 -0.2439  0.0965
   34MOL    N1133737   7.178   0.512   5.673 -0.0662 -0.7109 -0.1230
   34MOL    C1233738   7.170   0.480   5.541  0.3600 -0.0846  0.2782
   34MOL    C1333739   7.074   0.531   5.453 -0.2270 -0.0151  0.0571
   34MOL    C1433740   7.076   0.480   5.317  0.3911 -0.3619  0.4215
   34MOL    C1533741   7.180   0.400   5.268  0.1085 -0.9536 -0.5334
   34MOL    N1633742   7.200   0.353   5.141  0.1073 -0.3303  0.2920
   34MOL    C1733743   7.110   0.357   5.034  0.1249  0.5830  0.0086
   34MOL    C1833744   6.976   0.332   5.060  0.4083  0.4147  0.4915
   34MOL    C1933745   6.890   0.307   4.946  0.3352 -0.1396 -0.2481
   34MOL    C2033746   6.944   0.299   4.814 -0.0869  0.7217  1.2979
   34MOL    C2133747   6.843   0.269   4.704 -0.3455  0.1919 -0.3706
   34MOL    C2233748   7.082   0.300   4.794  0.0307 -0.0227 -0.4770
   34MOL    C2333749   7.168   0.341   4.900 -1.6551 -0.7209  0.4059
   34MOL    C2433750   7.286   0.372   5.357  1.0378 -0.5216  0.0039
   34MOL    C2533751   7.277   0.410   5.491  0.9005 -0.0697 -0.2341
   34MOL    C2633752   7.071   0.715   5.707  0.3523  0.3244  1.0293
   34MOL    C2733753   7.011   0.808   5.795 -0.6273 -1.0699  0.4464
   34MOL    C2833754   6.832   0.974   6.206  0.4086 -0.1985  0.2167
   34MOL    C2933755   6.745   0.970   6.318 -0.4382 -0.6797 -0.6392
   34MOL    H3033756   6.487   0.790   6.427 -2.3525  2.1323  0.2360
   34MOL    H3133757   6.587   0.672   6.257  0.3734 -0.6584 -0.1423
   34MOL    H3233758   6.751   0.664   6.080 -0.4961  1.3336 -1.1049
   34MOL    H3333759   6.910   0.969   5.959 -0.6042  0.5879  0.1347
   34MOL    H3433760   6.966   0.608   6.066  1.0322 -0.4233  1.1814
   34MOL    H3533761   7.072   0.443   5.911  0.9332 -0.1193 -0.7149
   34MOL    H3633762   7.225   0.441   5.727  0.7478 -0.4595 -0.4931
   34MOL    H3733763   6.991   0.590   5.490 -2.2101 -1.8202 -1.3599
   34MOL    H3833764   6.990   0.509   5.259  0.9906 -1.0201 -0.8080
   34MOL    H3933765   7.294   0.325   5.117  1.5766  4.0636  0.4864
   34MOL    H4033766   6.940   0.321   5.161  0.1369  0.2833  0.3809
   34MOL    H4133767   6.786   0.292   4.970  0.7227  0.6978  2.0914
   34MOL    H4233768   6.792   0.362   4.680  0.1157  0.4501 -0.3465
   34MOL    H4333769   6.768   0.205   4.750 -1.3173  0.8386 -1.0313
   34MOL    H4433770   7.129   0.290   4.698 -0.7502  3.1972 -1.2673
   34MOL    H4533771   7.275   0.343   4.889 -1.4629  0.4364  2.1864
   34MOL    H4633772   7.376   0.322   5.322 -0.2607 -1.1495 -2.5797
   34MOL    H4733773   7.367   0.392   5.548 -1.4190 -2.3055  2.8776
   34MOL    H4833774   7.104   0.751   5.610  3.3103  0.7563  2.1488
   34MOL    H4933775   6.996   0.908   5.756  1.7206 -0.5950  0.6299
   34MOL    H5033776   6.895   1.056   6.176 -1.0119  0.3460 -1.3615
   34MOL    H5133777   6.732   1.055   6.384  0.7740 -1.0019  0.0245
   34MOL    H5233778   6.542   0.953   6.469  0.3620  0.8199 -2.2933
   34MOL    N5333779   6.892   0.199   4.584 -0.1677 -0.2495  0.5368
   34MOL    C5433780   6.939   0.269   4.472 -0.0347  0.0242  1.0478
   34MOL    C5533781   6.935   0.196   4.352  0.3097  0.0885 -0.5868
   34MOL    C5633782   6.967   0.248   4.227 -0.3241 -0.0398  0.4905
   34MOL    C5733783   7.002   0.382   4.220  0.7698 -0.3473 -0.1260
   34MOL    N5833784   7.037   0.427   4.090 -0.2856 -0.0677 -0.6404
   34MOL    C5933785   7.009   0.554   4.041  0.6124  0.1516 -0.2097
   34MOL    C6033786   7.082   0.598   3.928 -0.8516 -0.0604 -0.2349
   34MOL    C6133787   7.058   0.723   3.869  0.3705 -0.4787 -0.3496
   34MOL    C6233788   6.964   0.811   3.928 -0.2842 -0.5372  0.2824
   34MOL    N6333789   6.947   0.943   3.868 -0.1282 -0.1260  0.1634
   34MOL    C6433790   6.827   1.010   3.853  0.1660  0.5384  0.4805
   34MOL    C6533791   6.704   0.950   3.882  0.1092  0.6025 -0.4640
   34MOL    C6633792   6.580   1.020   3.866  0.1107 -0.0973  0.2085
   34MOL    C6733793   6.593   1.152   3.818 -0.5748 -0.1966 -0.8252
   34MOL    N6833794   6.479   1.234   3.803 -0.0167  0.0551 -0.4264
   34MOL    C6933795   6.408   1.274   3.688 -0.5180 -0.3312 -0.3019
   34MOL    C7033796   6.307   1.372   3.688  0.5712  0.0906 -0.0866
   34MOL    C7133797   6.225   1.390   3.577  0.3076  0.0660  0.1895
   34MOL    C7233798   6.256   1.324   3.453 -0.4594  0.0193  0.1269
   34MOL    C7333799   6.176   1.353   3.329 -0.4955  0.2254 -0.1141
   34MOL    C7433800   6.349   1.221   3.455 -0.0281 -0.8382  0.0083
   34MOL    C7533801   6.429   1.201   3.569 -0.0140  0.3935 -0.7838
   34MOL    C7633802   6.718   1.214   3.786 -0.0880 -0.3812 -0.6597
   34MOL    C7733803   6.827   1.137   3.807 -0.8095  0.1651 -0.0234
   34MOL    C7833804   6.888   0.765   4.035 -1.2396 -0.1164  0.3270
   34MOL    C7933805   6.911   0.643   4.092  0.5684 -0.3427 -0.4124
   34MOL    C8033806   7.014   0.461   4.342  0.4391  0.7884 -0.7690
   34MOL    C8133807   6.985   0.400   4.466 -0.3248 -0.0991 -0.7968
   34MOL    H8233808   6.876   0.099   4.584  1.2601 -0.5143 -0.7941
   34MOL    H8333809   6.892   0.097   4.355 -2.7701  1.3603 -1.3561
   34MOL    H8433810   6.961   0.177   4.146 -2.4201 -1.6875  2.0278
   34MOL    H8533811   7.112   0.377   4.044  1.7791  1.6638  0.7702
   34MOL    H8633812   7.154   0.528   3.889 -0.1308  0.4482  0.1681
   34MOL    H8733813   7.106   0.751   3.777  1.4500  1.8414  0.8548
   34MOL    H8833814   7.013   0.959   3.793 -0.0816  2.9607  0.8380
   34MOL    H8933815   6.696   0.846   3.910  2.4318  0.3893 -0.5185
   34MOL    H9033816   6.487   0.970   3.886 -1.4764  2.5304 -0.2928
   34MOL    H9133817   6.413   1.209   3.875  1.4744 -1.8739  0.2945
   34MOL    H9233818   6.277   1.435   3.771 -2.5055 -0.1787 -0.9227
   34MOL    H9333819   6.144   1.462   3.581  0.3399  0.1706 -0.8318
   34MOL    H9433820   6.223   1.443   3.289 -1.3697  0.6465 -0.2046
   34MOL    H9533821   6.070   1.369   3.352 -0.4784 -1.9225  1.5872
   34MOL    H9633822   6.379   1.167   3.367 -1.1128 -2.4801  0.6257
   34MOL    H9733823   6.501   1.120   3.569  0.5331  0.8836 -0.5048
   34MOL    H9833824   6.733   1.311   3.740  0.9386 -0.6952 -1.0237
   34MOL    H9933825   6.924   1.182   3.791 -0.5207 -0.4843 -0.1178
   34MOL   H10033826   6.816   0.831   4.080 -2.0988 -1.4353  0.9155
   34MOL   H10133827   6.855   0.616   4.180  0.9441  0.5232  0.0975
   34MOL   H10233828   7.047   0.563   4.347  2.0413  0.2539 -0.2645
   34MOL   H10333829   6.996   0.445   4.564  4.7657 -1.2861 -0.6904
   34MOL   N10433830   6.182   1.250   3.225 -0.4987  0.0378 -0.2198
   34MOL   C10533831   6.118   1.252   3.099  0.3349  1.0044  0.3537
   34MOL   C10633832   6.031   1.359   3.056 -0.6176  0.2951 -0.7965
   34MOL   C10733833   5.962   1.346   2.940 -0.0052 -0.0328  0.3512
   34MOL   C10833834   5.972   1.231   2.859 -0.3266  0.3341  0.5468
   34MOL   N10933835   5.912   1.226   2.735  0.0385 -0.1365  0.2335
   34MOL   C11033836   5.934   1.126   2.642  0.3017  0.4577  0.1750
   34MOL   C11133837   5.822   1.072   2.571 -0.3916 -0.2972 -0.3170
   34MOL   C11233838   5.830   0.986   2.457 -0.1489 -0.2089 -0.2125
   34MOL   C11333839   5.955   0.974   2.401 -0.5889 -0.6014  0.7755
   34MOL   N11433840   5.964   0.913   2.273 -0.9442 -0.4736 -0.0707
   34MOL   C11533841   6.062   0.932   2.175  0.2510 -0.2155  0.4052
   34MOL   C11633842   6.113   1.062   2.149  0.4810  0.5505  0.0724
   34MOL   C11733843   6.180   1.085   2.030 -0.1113 -0.7119 -0.0768
   34MOL   C11833844   6.218   0.977   1.943  0.9146  0.3870 -0.6429
   34MOL   N11933845   6.311   1.010   1.842  0.0096 -0.1407  0.0371
   34MOL   C12033846   6.325   0.945   1.721  0.1853 -0.0396 -0.5389
   34MOL   C12133847   6.441   0.874   1.688 -0.0302  0.3882 -0.4613
   34MOL   C12233848   6.461   0.800   1.571 -0.0004 -0.5838  0.0266
   34MOL   C12333849   6.348   0.802   1.480 -0.4744  0.5392 -0.1960
   34MOL   C12433850   6.353   0.705   1.368 -0.1163  0.3287  0.1956
   34MOL   C12533851   6.236   0.884   1.511 -0.0859  0.3624 -0.1382
   34MOL   C12633852   6.219   0.955   1.627  0.1617 -0.3811  0.2497
   34MOL   C12733853   6.169   0.844   1.964 -0.6953 -1.0674 -0.5008
   34MOL   C12833854   6.090   0.821   2.085 -0.1428  0.5069  0.4189
   34MOL   C12933855   6.072   1.031   2.460 -0.3121  0.7813 -0.2430
   34MOL   C13033856   6.063   1.098   2.585  0.1918 -0.1457  0.2151
   34MOL   C13133857   6.050   1.119   2.899 -0.0096  0.8598  0.0044
   34MOL   C13233858   6.120   1.133   3.022  0.6489  0.2140 -0.0874
   34MOL   H13333859   6.231   1.167   3.253  0.2627  0.6225  0.2128
   34MOL   H13433860   6.008   1.443   3.120 -0.4316 -1.0187  1.0071
   34MOL   H13533861   5.899   1.428   2.909 -1.2358 -1.1499 -0.1243
   34MOL   H13633862   5.825   1.276   2.722  0.3695  0.0724 -1.1974
   34MOL   H13733863   5.731   1.103   2.620 -0.2109 -1.0983  0.5435
   34MOL   H13833864   5.734   0.957   2.416  0.3644 -0.9039 -0.9208
   34MOL   H13933865   5.894   0.848   2.241  1.1078 -3.7918  1.8014
   34MOL   H14033866   6.094   1.150   2.209  0.5060  0.2641  0.5042
   34MOL   H14133867   6.204   1.187   2.005  1.8270 -0.7706  1.3960
   34MOL   H14233868   6.337   1.107   1.851 -2.1715  0.3701  1.1377
   34MOL   H14333869   6.517   0.861   1.764 -0.8819  3.0697  0.8948
   34MOL   H14433870   6.543   0.732   1.553 -0.2828 -0.8601 -0.2413
   34MOL   H14533871   6.280   0.735   1.293 -1.4496 -1.5204  0.7123
   34MOL   H14633872   6.314   0.617   1.420  0.0403 -0.7743 -1.5199
   34MOL   H14733873   6.151   0.882   1.445  1.3949  0.9532 -2.1188
   34MOL   H14833874   6.125   1.008   1.636  1.0823  1.5988 -1.2718
   34MOL   H14933875   6.175   0.759   1.898 -1.9818 -1.6368  0.0841
   34MOL   H15033876   6.045   0.724   2.099  0.3775 -0.1576 -2.2872
   34MOL   H15133877   6.169   1.029   2.413 -0.5496 -0.3184 -0.6990
   34MOL   H15233878   6.153   1.141   2.627 -0.6023  1.8117 -0.0354
   34MOL   H15333879   6.065   1.026   2.845  2.2099  1.5549 -0.6498
   34MOL   H15433880   6.179   1.048   3.054  2.7533  1.1825 -1.2745
   34MOL   N15533881   6.488   0.660   1.331  0.2764 -0.2972 -0.5009
   34MOL   C15633882   6.540   0.532   1.310 -0.2851  0.5981  0.4357
   34MOL   C15733883   6.682   0.522   1.301  0.5330 -0.0896 -0.1602
   34MOL   C15833884   6.740   0.394   1.294  0.0498 -0.1059  0.2242
   34MOL   C15933885   6.666   0.275   1.293  0.2414 -0.0775 -0.5921
   34MOL   N16033886   6.723   0.148   1.281 -0.3611  0.3607  0.0275
   34MOL   C16133887   6.862   0.110   1.287  0.8337  0.2142  0.8061
   34MOL   C16233888   6.898   0.009   1.371  0.0296 -0.1832 -0.2586
   34MOL   C16333889   7.033   7.967   1.397  0.1874  0.2534  0.2487
   34MOL   C16433890   7.135   0.058   1.334 -0.0030 -0.3261 -0.2127
   34MOL   N16533891   7.270   0.032   1.358  0.0518 -0.8419 -0.0606
   34MOL   C16633892   7.369   0.127   1.376  0.0402 -0.3055 -0.2427
   34MOL   C16733893   7.339   0.258   1.421 -0.1125 -0.0183  0.3978
   34MOL   C16833894   7.438   0.356   1.399  0.4239  0.5895  0.3799
   34MOL   C16933895   7.567   0.322   1.349  0.5591 -0.2477 -0.5791
   34MOL   N17033896   7.657   0.424   1.320  0.0716  0.0095 -0.0753
   34MOL   C17133897   7.636   0.560   1.336  0.0328 -0.4617 -0.8744
   34MOL   C17233898   7.734   0.639   1.406 -0.2329 -0.4849  0.2249
   34MOL   C17333899   7.711   0.777   1.423 -0.1095 -0.0504 -0.1590
   34MOL   C17433900   7.594   0.841   1.371  0.0244  0.2969 -0.2621
   34MOL   C17533901   7.568   0.986   1.401  0.4138 -0.4239 -0.3432
   34MOL   C17633902   7.507   0.761   1.293  0.2384  0.3638  0.6415
   34MOL   C17733903   7.530   0.627   1.275 -0.1297  0.3271 -0.1530
   34MOL   C17833904   7.591   0.189   1.315  0.3807 -0.2881 -0.7489
   34MOL   C17933905   7.500   0.089   1.333  0.5440  0.0365 -0.5288
   34MOL   C18033906   7.099   0.154   1.235 -0.0992 -0.2016  0.7038
   34MOL   C18133907   6.962   0.180   1.208  0.0847  0.0263 -0.7889
   34MOL   C18233908   6.527   0.289   1.292 -0.6747 -0.1565  0.2704
   34MOL   C18333909   6.461   0.412   1.303  0.4671  0.3944  0.4241
   34MOL   H18433910   6.544   0.736   1.295  1.2829 -1.1891 -0.8708
   34MOL   H18533911   6.747   0.608   1.295 -0.3435  0.5920 -0.0014
   34MOL   H18633912   6.847   0.383   1.299  0.0138 -1.4421 -1.4146
   34MOL   H18733913   6.661   0.070   1.292 -0.7543  0.8265  1.1754
   34MOL   H18833914   6.822   7.949   1.435  0.6614 -0.4841  0.2988
   34MOL   H18933915   7.055   7.889   1.468 -0.6713  0.0245  0.2721
   34MOL   H19033916   7.288   7.916   1.374 -0.5958 -0.5643  2.4784
   34MOL   H19133917   7.242   0.291   1.454  0.0251  1.1314 -0.3288
   34MOL   H19233918   7.417   0.457   1.433 -0.1411  0.9752 -1.0588
   34MOL   H19333919   7.752   0.396   1.336 -0.5707 -2.4830 -0.3420
   34MOL   H19433920   7.821   0.600   1.456  0.2206  0.1056 -0.0994
   34MOL   H19533921   7.779   0.834   1.484  0.2074  2.0228 -2.3995
   34MOL   H19633922   7.544   1.031   1.305  1.6051  1.7984  0.3469
   34MOL   H19733923   7.654   1.034   1.448 -1.3229  0.9487  1.5525
   34MOL   H19833924   7.419   0.810   1.254 -0.1769 -0.1553  0.9233
   34MOL   H19933925   7.466   0.575   1.206  0.2167  0.7791 -0.8193
   34MOL   H20033926   7.692   0.166   1.285  0.8244  1.9031 -1.0440
   34MOL   H20133927   7.524   7.968   1.313  1.7052  0.6139 -2.1990
   34MOL   H20233928   7.181   0.201   1.183  1.3451 -2.3541  0.9803
   34MOL   H20333929   6.927   0.259   1.143  0.4279  0.6481 -0.2211
   34MOL   H20433930   6.469   0.199   1.278 -0.9261  0.3194 -1.8772
   34MOL   H20533931   6.354   0.423   1.312  0.4964  2.2491 -1.1907
   34MOL   N20633932   7.451   0.992   1.483 -0.1803  0.1391 -0.8284
   34MOL   C20733933   7.412   1.110   1.543  0.0015  0.0579 -0.4293
   34MOL   C20833934   7.435   1.239   1.486 -0.4745 -0.3306  0.0539
   34MOL   C20933935   7.392   1.353   1.547  0.7473 -0.2749 -0.5677
   34MOL   C21033936   7.310   1.342   1.663  0.4151 -0.4700  0.1168
   34MOL   N21133937   7.266   1.465   1.713 -0.5552 -0.5347 -0.4098
   34MOL   C21233938   7.165   1.473   1.812 -0.4454  0.6918  0.3248
   34MOL   C21333939   7.187   1.416   1.940  0.1586 -0.5829 -0.1589
   34MOL   C21433940   7.089   1.429   2.039  0.4674  0.5500 -0.0173
   34MOL   C21533941   6.963   1.486   2.009 -0.3501  0.9394 -0.4366
   34MOL   N21633942   6.852   1.497   2.095  0.7736  0.1012 -0.1781
   34MOL   C21733943   6.833   1.403   2.199 -0.4164 -0.0045 -0.4303
   34MOL   C21833944   6.771   1.437   2.322  0.1110 -0.5114  0.4023
   34MOL   C21933945   6.766   1.343   2.421 -0.2372 -0.2216 -0.0039
   34MOL   C22033946   6.796   1.208   2.394 -0.8494  0.3978  0.1988
   34MOL   N22133947   6.780   1.104   2.484  0.1179 -0.7166 -0.0561
   34MOL   C22233948   6.879   1.031   2.547 -0.7419  0.5845 -0.4722
   34MOL   C22333949   6.834   0.954   2.659 -0.2910 -0.1085  1.0811
   34MOL   C22433950   6.924   0.882   2.741 -0.5053 -0.4936 -0.0695
   34MOL   C22533951   7.058   0.884   2.710 -0.5171  0.1081 -0.5090
   34MOL   C22633952   7.157   0.798   2.797  0.2909 -0.2270 -0.7425
   34MOL   C22733953   7.105   0.967   2.604  0.9586  0.0911  0.2114
   34MOL   C22833954   7.012   1.045   2.529 -0.1164  0.6683 -0.5387
   34MOL   C22933955   6.849   1.172   2.273  0.1860 -0.0565  0.1086
   34MOL   C23033956   6.866   1.268   2.169  0.6993  0.0992 -0.5799
   34MOL   C23133957   6.941   1.547   1.882  0.1626  0.5435  0.6162
   34MOL   C23233958   7.043   1.536   1.782 -0.9770  0.6339 -0.6222
   34MOL   C23333959   7.281   1.219   1.717  0.1134  0.6039  0.1940
   34MOL   C23433960   7.336   1.103   1.659 -0.2742 -0.1907 -0.6301
   34MOL   H23533961   7.434   0.903   1.528  0.8295  0.1130 -0.4890
   34MOL   H23633962   7.496   1.256   1.399 -1.0268 -1.7511 -0.6268
   34MOL   H23733963   7.417   1.449   1.504 -0.8856  1.2107  1.6698
   34MOL   H23833964   7.287   1.554   1.668  1.4593 -1.3121 -1.0745
   34MOL   H23933965   7.282   1.371   1.964  0.1465 -1.4912 -1.7382
   34MOL   H24033966   7.111   1.386   2.135  0.8287 -0.4953 -0.5531
   34MOL   H24133967   6.787   1.574   2.086 -0.0835 -0.8570 -2.7530
   34MOL   H24233968   6.752   1.539   2.350 -0.4462 -0.2824 -0.7548
   34MOL   H24333969   6.724   1.380   2.513 -0.8188  1.1512 -0.8109
   34MOL   H24433970   6.686   1.085   2.516 -0.1047 -0.5282 -0.5912
   34MOL   H24533971   6.730   0.960   2.687 -1.3390 -1.1189 -2.2906
   34MOL   H24633972   6.895   0.838   2.835 -1.5008  0.2594 -0.0151
   34MOL   H24733973   7.253   0.818   2.750  1.1953  1.4546  1.7473
   34MOL   H24833974   7.124   0.694   2.786  0.7781 -0.4016 -0.5951
   34MOL   H24933975   7.210   0.980   2.581  0.7921 -0.7222 -1.0638
   34MOL   H25033976   7.051   1.111   2.453  0.8816  1.3451  0.5494
   34MOL   H25133977   6.860   1.070   2.240 -0.7958  0.5259 -2.1135
   34MOL   H25233978   6.903   1.247   2.069  0.5242  0.7173 -0.7814
   34MOL   H25333979   6.847   1.599   1.868  0.2442  1.6152  3.7385
   34MOL   H25433980   7.028   1.565   1.679 -0.1387 -2.3519 -1.6538
   34MOL   H25533981   7.221   1.206   1.806 -2.0711  1.2141 -1.1402
   34MOL   H25633982   7.326   1.011   1.713 -2.3553  1.6733  2.3418
   34MOL   N25733983   7.168   0.853   2.931 -0.3289  0.7496 -0.3253
   34MOL   C25833984   7.216   0.770   3.028  0.3610 -0.2450 -0.7049
   34MOL   C25933985   7.164   0.644   3.063 -0.5065  0.4846  0.2888
   34MOL   C26033986   7.210   0.578   3.181 -0.7814  0.1083 -0.0947
   34MOL   C26133987   7.331   0.629   3.246  0.2794 -0.3144 -0.8414
   34MOL   N26233988   7.388   0.570   3.362  0.2128 -0.1441 -0.3464
   34MOL   C26333989   7.320   0.489   3.453  0.0429 -0.4012 -0.6336
   34MOL   C26433990   7.198   0.540   3.512  0.1488  0.1599 -0.1865
   34MOL   C26533991   7.130   0.462   3.606  0.5933 -0.3045 -0.8071
   34MOL   C26633992   7.189   0.342   3.655 -0.1537 -0.1174 -0.1568
   34MOL   N26733993   7.116   0.265   3.750  0.0686 -0.0196 -1.1473
   34MOL   C26833994   7.166   0.205   3.861  0.0434  0.1295  0.3449
   34MOL   C26933995   7.087   0.101   3.913 -0.7678  0.1437 -0.1959
   34MOL   C27033996   7.127   0.033   4.033 -0.0575  0.2998  0.1956
   34MOL   C27133997   7.250   0.067   4.092  0.2472  0.0475 -0.6071
   34MOL   N27233998   7.296   0.020   4.210  0.5175  0.2481 -0.7259
   34MOL   C27333999   7.223   7.942   4.312  0.6945  0.9378 -0.4898
   34MOL   C27434000   7.217   0.023   4.436  0.5797  0.3768  0.1277
   34MOL   C27534001   7.133   7.959   4.535  0.1313  0.1025 -0.0418
   34MOL   C27634002   7.060   7.841   4.517 -0.2968  0.0815 -0.6276
   34MOL   C27734003   6.967   7.787   4.624 -0.3693 -0.0464 -0.1347
   34MOL   C27834004   7.076   7.772   4.402  0.8478 -0.1988  0.5444
   34MOL   C27934005   7.144   7.822   4.296  0.2477  0.3247 -0.6625
   34MOL   C28034006   7.320   0.168   4.028 -0.8210  0.5228 -0.5757
   34MOL   C28134007   7.281   0.246   3.920  0.9572  0.1047 -0.5883
   34MOL   C28234008   7.309   0.294   3.610  1.0873 -0.3717 -0.5298
   34MOL   C28334009   7.373   0.371   3.509  0.8703  0.3303  0.3773
   34MOL   C28434010   7.393   0.753   3.202 -0.6038 -0.6756 -0.1516
   34MOL   C28534011   7.326   0.823   3.104  0.8993  0.3225 -0.3483
   34MOL   H28634012   7.180   0.953   2.930 -2.7773  1.0613 -0.1505
   34MOL   H28734013   7.074   0.613   3.012 -1.3644  1.5378  1.1645
   34MOL   H28834014   7.162   0.491   3.223 -0.4046  0.2775  0.6967
   34MOL   H28934015   7.489   0.569   3.370  0.3626 -2.9638 -1.8170
   34MOL   H29034016   7.150   0.629   3.474 -2.2980 -1.0779 -0.0618
   34MOL   H29134017   7.034   0.493   3.645  0.9264 -0.1948 -0.0530
   34MOL   H29234018   7.017   0.285   3.753  0.1437  0.5346 -2.1316
   34MOL   H29334019   6.997   0.072   3.860 -0.6602  1.1111 -0.9105
   34MOL   H29434020   7.061   7.943   4.080  0.4109  1.4478  2.6781
   34MOL   H29534021   7.377   0.068   4.246 -0.5643  1.1950  0.4814
   34MOL   H29634022   7.268   0.115   4.461 -0.7315  1.1023  0.1472
   34MOL   H29734023   7.117   0.039   4.623 -0.3510 -1.1710  0.7873
   34MOL   H29834024   7.009   7.723   4.701 -2.0115 -0.0074  0.8296
   34MOL   H29934025   6.888   7.729   4.577  1.5420 -3.1006  0.2977
   34MOL   H30034026   7.022   7.680   4.383  0.4867 -0.0013  0.6102
   34MOL   H30134027   7.163   7.767   4.205  1.0912  0.1815 -0.4115
   34MOL   H30234028   7.406   0.199   4.085 -0.0632 -0.6926 -1.0373
   34MOL   H30334029   7.332   0.335   3.886  2.2767  0.0755  1.2917
   34MOL   H30434030   7.351   0.203   3.652 -0.0120 -0.8146 -0.3750
   34MOL   H30534031   7.467   0.342   3.463  0.8925  3.0588 -1.4559
   34MOL   H30634032   7.469   0.803   3.261 -1.6550  3.3795 -2.0409
   34MOL   H30734033   7.353   0.925   3.082 -0.5353  0.8491  0.2058
   34MOL   N30834034   6.902   7.896   4.700  0.5787 -0.1740  0.1543
   34MOL   C30934035   6.777   7.887   4.768  0.9114  0.0690 -0.1414
   34MOL   C31034036   6.668   7.823   4.722 -0.2854 -0.2072  0.9381
   34MOL   C31134037   6.543   7.831   4.792 -0.6398 -0.2086 -0.7106
   34MOL   C31234038   6.533   7.897   4.917 -0.8386  0.2201  0.2830
   34MOL   N31334039   6.411   7.896   4.979  0.1574  0.2022 -0.0887
   34MOL   C31434040   6.304   7.812   4.944 -0.5521  0.0814 -0.0925
   34MOL   C31534041   6.181   7.874   4.924  0.3287 -0.2301 -0.5022
   34MOL   C31634042   6.065   7.795   4.898 -0.2044  0.1239  0.0083
   34MOL   C31734043   6.077   7.660   4.887 -0.4235 -0.2741  0.1288
   34MOL   N31834044   5.964   7.578   4.867  0.3299 -0.1777 -0.7748
   34MOL   C31934045   5.827   7.620   4.864  0.8054  0.0974  0.2140
   34MOL   C32034046   5.726   7.548   4.930 -0.2974 -0.5084  0.0595
   34MOL   C32134047   5.594   7.570   4.900  0.1582  0.2402  0.1757
   34MOL   C32234048   5.554   7.657   4.794  0.1308 -0.2077 -0.3094
   34MOL   N32334049   5.415   7.650   4.766  0.0963  0.1599 -0.8647
   34MOL   C32434050   5.354   7.722   4.665  0.8500 -0.4058  0.8580
   34MOL   C32534051   5.258   7.653   4.586 -0.8693 -0.2361 -0.3421
   34MOL   C32634052   5.183   7.723   4.492 -0.1653 -0.4056  0.7106
   34MOL   C32734053   5.201   7.858   4.465  0.2884  0.0849  0.0706
   34MOL   C32834054   5.118   7.926   4.354  0.7392  0.1049  0.1533
   34MOL   C32934055   5.289   7.931   4.554  0.5991  0.1966 -0.6287
   34MOL   C33034056   5.365   7.863   4.649  0.0830  0.2334 -0.1742
   34MOL   C33134057   5.647   7.738   4.730 -0.1949  0.3872 -0.0913
   34MOL   C33234058   5.782   7.711   4.764  0.3370 -0.2770  0.4449
   34MOL   C33334059   6.205   7.603   4.887  0.2159  0.6439  0.2750
   34MOL   C33434060   6.320   7.674   4.920 -0.7750 -0.4981 -0.4672
   34MOL   C33534061   6.645   7.963   4.971 -0.6332  0.1009 -0.3026
   34MOL   C33634062   6.762   7.960   4.895 -0.0768 -0.0355 -0.0340
   34MOL   H33734063   6.970   7.949   4.754  1.3017 -1.4867  0.5458
   34MOL   H33834064   6.673   7.764   4.631 -1.9144  0.5294  0.3475
   34MOL   H33934065   6.465   7.770   4.750 -0.5203  0.4441 -1.9127
   34MOL   H34034066   6.396   7.967   5.049 -0.4207 -0.8986  0.9273
   34MOL   H34134067   6.160   7.976   4.953 -1.6272  0.1414 -3.0219
   34MOL   H34234068   5.971   7.848   4.890 -0.9948 -1.3816 -0.9991
   34MOL   H34334069   5.975   7.478   4.865  0.1261 -0.1867 -1.8358
   34MOL   H34434070   5.745   7.478   5.010  1.0384  1.0470  1.1448
   34MOL   H34534071   5.521   7.506   4.948  0.9435 -0.2521  0.7222
   34MOL   H34634072   5.370   7.568   4.804 -0.3381  0.3782 -0.8982
   34MOL   H34734073   5.251   7.545   4.580 -0.7547 -0.2126 -0.9495
   34MOL   H34834074   5.121   7.660   4.430  1.2448 -0.8258 -0.3020
   34MOL   H34934075   5.046   7.981   4.414  0.0879  0.0635 -0.5751
   34MOL   H35034076   5.053   7.854   4.304 -0.0523  1.1468 -0.3443
   34MOL   H35134077   5.293   0.056   4.540  0.5218  0.2412 -0.2995
   34MOL   H35234078   5.428   7.920   4.715 -1.0484  2.3028 -0.8259
   34MOL   H35334079   5.613   7.809   4.656 -0.9862  0.0977 -0.0037
   34MOL   H35434080   5.859   7.758   4.705  1.2437 -0.7346  1.2450
   34MOL   H35534081   6.218   7.499   4.860  0.9302  0.2771  1.9534
   34MOL   H35634082   6.420   7.633   4.929  0.0226  1.0480 -2.0573
   34MOL   H35734083   6.655   0.027   5.069  1.3628 -1.4702  0.2642
   34MOL   H35834084   6.849   0.018   4.944  1.1060 -0.0258 -2.0876
   34MOL   N35934085   5.194   0.023   4.265 -0.8956  0.0331  0.2001
   34MOL   C36034086   5.120   0.102   4.178  1.1146 -0.0242  0.1140
   34MOL   C36134087   4.984   0.143   4.200 -0.4604  0.2378  0.0445
   34MOL   C36234088   4.929   0.246   4.120  0.1280  0.3150  0.0603
   34MOL   C36334089   4.988   0.286   4.000  0.2150  0.2198 -0.7924
   34MOL   N36434090   4.931   0.386   3.916 -0.1556 -0.2647 -0.4238
   34MOL   C36534091   4.958   0.410   3.785 -0.1243  0.1612 -0.0080
   34MOL   C36634092   4.924   0.544   3.745 -0.3016  0.1893  0.5960
   34MOL   C36734093   4.957   0.585   3.617  0.0805 -0.2051 -0.6758
   34MOL   C36834094   4.997   0.487   3.523  0.2622 -0.1321 -0.0240
   34MOL   N36934095   5.049   0.524   3.400  1.3318  0.2435 -0.1244
   34MOL   C37034096   5.174   0.487   3.356  0.2407  0.3852  0.1237
   34MOL   C37134097   5.279   0.572   3.388 -0.0032 -0.2730 -0.4581
   34MOL   C37234098   5.408   0.541   3.342 -0.3837  0.4993 -0.3168
   34MOL   C37334099   5.430   0.424   3.268 -0.5983  0.0463  0.7835
   34MOL   N37434100   5.560   0.406   3.214  0.8332 -0.3975 -0.5786
   34MOL   C37534101   5.626   0.278   3.228 -0.0429  0.0515  0.0086
   34MOL   C37634102   5.584   0.182   3.330 -0.1777 -0.3164  0.3411
   34MOL   C37734103   5.660   0.066   3.346 -0.7454 -0.5031 -0.9120
   34MOL   C37834104   5.767   0.041   3.263 -0.0828 -0.5599 -0.4057
   34MOL   C37934105   5.869   7.911   3.296 -0.2601  0.0024 -0.2113
   34MOL   C38034106   5.800   0.131   3.162  0.3376  0.0938  0.3328
   34MOL   C38134107   5.735   0.250   3.143  0.0852  0.0996  0.0707
   34MOL   C38234108   5.325   0.346   3.235  0.2628  0.0089  0.3645
   34MOL   C38334109   5.198   0.367   3.289  0.4009  0.1274 -0.2711
   34MOL   C38434110   5.013   0.352   3.566  0.1267  0.3374 -0.3928
   34MOL   C38534111   5.006   0.319   3.697  0.6743  0.6423 -0.2473
   34MOL   C38634112   5.122   0.237   3.980 -0.0885 -0.3177 -0.1254
   34MOL   C38734113   5.185   0.144   4.066 -0.0025 -1.1711  0.4639
   34MOL   H38834114   5.288   7.982   4.238 -1.0263  0.8123 -0.9730
   34MOL   H38934115   4.923   0.104   4.279  0.4662 -0.0801  0.6120
   34MOL   H39034116   4.829   0.280   4.140 -0.5906 -1.3717 -0.5211
   34MOL   H39134117   4.865   0.446   3.963 -0.3267 -0.9743  0.2492
   34MOL   H39234118   4.904   0.623   3.817 -0.4536  1.2349 -0.5695
   34MOL   H39334119   4.940   0.688   3.591 -1.1482 -0.3479 -0.4679
   34MOL   H39434120   5.027   0.622   3.388 -0.6099 -0.0800  0.6191
   34MOL   H39534121   5.265   0.661   3.448  0.0582 -0.6703  0.1484
   34MOL   H39634122   5.481   0.617   3.368 -2.2278  2.0985  0.3779
   34MOL   H39734123   5.603   0.487   3.171 -0.7788  1.2686  0.8303
   34MOL   H39834124   5.514   0.215   3.405  0.0835 -0.8193  0.8041
   34MOL   H39934125   5.638   7.978   3.426 -1.1822 -0.1270 -0.6981
   34MOL   H40034126   5.888   7.864   3.199 -0.5476 -0.8108  0.1232
   34MOL   H40134127   5.818   7.838   3.358  0.0047  1.4879  1.7856
   34MOL   H40234128   5.891   0.107   3.108 -0.4570  1.7124 -1.8032
   34MOL   H40334129   5.768   0.329   3.077 -0.0347 -0.3669 -0.5530
   34MOL   H40434130   5.343   0.252   3.185  0.3052  0.3222 -0.2204
   34MOL   H40534131   5.121   0.296   3.261 -1.4492  2.0826 -0.2648
   34MOL   H40634132   5.041   0.272   3.499 -0.8466 -0.5395  0.2394
   34MOL   H40734133   5.007   0.215   3.725  1.1299  0.7823  0.2687
   34MOL   H40834134   5.177   0.271   3.894  0.8866 -1.8061 -0.1209
   34MOL   H40934135   5.284   0.105   4.048  0.2890 -0.1613 -0.2172
   34MOL   N41034136   5.994   7.959   3.348 -0.6437  0.1857 -0.0051
   34MOL   C41134137   6.094   7.871   3.393  0.0902 -0.0571 -0.8195
   34MOL   C41234138   6.132   7.757   3.321  0.0444 -0.1269 -0.5906
   34MOL   C41334139   6.220   7.663   3.365 -0.8143  0.5710 -0.2125
   34MOL   C41434140   6.278   7.687   3.497 -0.1944 -0.7730  0.0983
   34MOL   N41534141   6.348   7.583   3.558  0.1403 -0.6229  0.1655
   34MOL   C41634142   6.316   7.448   3.575  0.4576  0.3444  0.3407
   34MOL   C41734143   6.191   7.390   3.546 -0.3328 -0.6999  0.0740
   34MOL   C41834144   6.159   7.254   3.571  0.5534  0.6464  0.3144
   34MOL   C41934145   6.265   7.173   3.624  0.3275 -0.5343  0.4146
   34MOL   N42034146   6.233   7.037   3.658 -0.3178 -0.0105 -0.2354
   34MOL   C42134147   6.314   6.936   3.708 -0.1026 -0.3324 -0.0777
   34MOL   C42234148   6.267   6.852   3.816  0.2766  0.0078  0.0737
   34MOL   C42334149   6.338   6.740   3.857 -0.1360 -0.1263 -0.0048
   34MOL   C42434150   6.457   6.704   3.784  0.0069  0.1815 -0.0891
   34MOL   N42534151   6.514   6.579   3.815  0.5215  0.0231 -0.3346
   34MOL   C42634152   6.439   6.459   3.827  0.0440 -0.1713 -0.1190
   34MOL   C42734153   6.318   6.437   3.758 -0.1376  0.0619 -0.1831
   34MOL   C42834154   6.238   6.320   3.785 -0.1432 -0.1777  0.0094
   34MOL   C42934155   6.298   6.221   3.862  0.5795 -0.8052  0.2892
   34MOL   C43034156   6.223   6.090   3.887 -0.1454 -0.2304 -0.0390
   34MOL   C43134157   6.429   6.239   3.919  0.3894 -0.6374  0.1890
   34MOL   C43234158   6.498   6.360   3.904  0.2779 -0.6552 -0.1743
   34MOL   C43334159   6.503   6.782   3.681  0.3667 -0.5722  0.7111
   34MOL   C43434160   6.434   6.902   3.649 -0.5301 -0.0240  0.3786
   34MOL   C43534161   6.395   7.228   3.643 -0.0556  0.9471  0.6352
   34MOL   C43634162   6.416   7.361   3.613 -0.5316  1.0431 -0.1810
   34MOL   C43734163   6.244   7.803   3.572 -0.8475 -0.2884  0.7905
   34MOL   C43834164   6.139   7.889   3.525 -0.2339  0.0446 -0.4557
   34MOL   H43934165   5.982   0.063   3.400 -1.3937 -0.2845  0.6070
   34MOL   H44034166   6.088   7.731   3.226  1.8257 -0.2970 -1.3757
   34MOL   H44134167   6.248   7.566   3.327 -1.0473  0.2531  0.4149
   34MOL   H44234168   6.421   7.614   3.621 -0.2162 -0.5090  0.5219
   34MOL   H44334169   6.109   7.451   3.512  1.5133  1.0779 -1.3136
   34MOL   H44434170   6.067   7.201   3.552  0.7075  0.5909 -0.3090
   34MOL   H44534171   6.139   7.023   3.693  0.7393 -1.6558  2.0598
   34MOL   H44634172   6.181   6.881   3.873  0.0841 -1.2912  0.4473
   34MOL   H44734173   6.295   6.685   3.940 -0.2027 -1.1469 -0.7018
   34MOL   H44834174   6.592   6.553   3.756 -1.6643  0.6668 -3.6766
   34MOL   H44934175   6.267   6.517   3.706 -1.4775 -0.3884  0.3943
   34MOL   H45034176   6.147   6.302   3.729 -0.6651  0.8012  0.5094
   34MOL   H45134177   6.227   6.063   3.992 -0.0786 -0.7061 -0.1591
   34MOL   H45234178   6.293   6.016   3.845  0.8485  0.9366 -0.4719
   34MOL   H45334179   6.475   6.156   3.971  0.1391 -0.0260  1.4190
   34MOL   H45434180   6.598   6.373   3.941  0.0978  0.4619 -0.0596
   34MOL   H45534181   6.601   6.769   3.637 -0.3242  0.2654 -1.1533
   34MOL   H45634182   6.469   6.968   3.572  0.9693  0.3134  1.3370
   34MOL   H45734183   6.478   7.178   3.691 -2.0327 -3.1975  0.0130
   34MOL   H45834184   6.511   7.411   3.629 -0.2510  0.6771 -0.6831
   34MOL   H45934185   6.291   7.826   3.667 -0.4548  2.2631  0.0009
   34MOL   H46034186   6.108   7.976   3.581  1.5170  0.5403 -0.2068
   34MOL   N46134187   6.099   6.081   3.821  0.0002  0.1408  0.2942
   34MOL   C46234188   6.057   5.971   3.740  0.4407  0.3376  0.0104
   34MOL   C46334189   5.935   5.992   3.678  0.0056 -0.1072 -0.4467
   34MOL   C46434190   5.871   5.889   3.611 -0.0334 -0.0639 -0.3314
   34MOL   C46534191   5.933   5.766   3.603  0.3538 -0.5042  0.6087
   34MOL   N46634192   5.874   5.666   3.533  0.0743 -0.9363 -0.4369
   34MOL   C46734193   5.915   5.542   3.506  0.2192 -0.7123  0.6630
   34MOL   C46834194   5.931   5.511   3.366 -0.5195 -0.4650 -0.7973
   34MOL   C46934195   5.967   5.377   3.329  0.1867 -0.4848 -1.4731
   34MOL   C47034196   6.008   5.288   3.428 -0.1529 -0.0892  0.0824
   34MOL   N47134197   6.043   5.160   3.387  0.3171 -0.4799 -0.1485
   34MOL   C47234198   6.060   5.057   3.476 -0.0291  0.1458 -0.3248
   34MOL   C47334199   5.945   5.005   3.549 -0.9061  0.0631 -0.3441
   34MOL   C47434200   5.966   4.904   3.647  0.8015  0.0096  0.0839
   34MOL   C47534201   6.091   4.843   3.663 -0.4894 -0.1633 -0.2052
   34MOL   N47634202   6.100   4.729   3.745 -0.2936  0.2266  0.2447
   34MOL   C47734203   6.148   4.598   3.700 -0.1571 -0.3057  0.4953
   34MOL   C47834204   6.188   4.504   3.799  0.1014 -0.2276 -0.8217
   34MOL   C47934205   6.239   4.378   3.761 -0.2438  0.0836  0.3446
   34MOL   C48034206   6.246   4.346   3.625 -0.1470  0.2907  0.1217
   34MOL   C48134207   6.306   4.208   3.595 -0.2591  0.3161  0.3414
   34MOL   C48234208   6.200   4.433   3.526 -0.0160  0.2613 -0.7444
   34MOL   C48334209   6.150   4.561   3.567 -0.1138 -0.0756  0.1860
   34MOL   C48434210   6.198   4.895   3.596  0.3419  0.2659 -0.0171
   34MOL   C48534211   6.183   5.002   3.504  0.0835 -0.5391  0.0696
   34MOL   C48634212   5.988   5.316   3.566 -0.1650  0.1750  0.2909
   34MOL   C48734213   5.940   5.442   3.600  0.2618  0.0303 -0.0943
   34MOL   C48834214   6.052   5.741   3.673  0.0204 -0.2642  0.4868
   34MOL   C48934215   6.116   5.843   3.737 -0.4191 -0.7690 -0.7705
   34MOL   H49034216   6.031   6.155   3.833  0.4581  1.1690 -2.9718
   34MOL   H49134217   5.889   6.091   3.681  3.4814  1.5466  1.0871
   34MOL   H49234218   5.779   5.899   3.555 -0.1734 -1.0101 -0.2751
   34MOL   H49334219   5.798   5.689   3.471 -0.7357 -0.8096  0.5951
   34MOL   H49434220   5.904   5.583   3.290 -0.0541 -0.4911 -0.9860
   34MOL   H49534221   5.976   5.358   3.224  2.8265  0.7644 -1.5307
   34MOL   H49634222   6.092   5.153   3.298 -0.3417 -0.4077 -0.5194
   34MOL   H49734223   5.848   5.052   3.541 -0.0766  1.3283 -3.6330
   34MOL   H49834224   5.879   4.864   3.697  0.5686  0.9214  0.4226
   34MOL   H49934225   6.077   4.737   3.844  0.0450 -1.7690  0.5170
   34MOL   H50034226   6.191   4.526   3.905  1.9852 -1.3638 -0.6216
   34MOL   H50134227   6.278   4.308   3.833 -0.1925  0.3713  0.5971
   34MOL   H50234228   6.282   4.123   3.659 -0.5788 -0.3445 -0.6381
   34MOL   H50334229   6.413   4.217   3.609  0.3505 -2.0895 -2.3095
   34MOL   H50434230   6.196   4.413   3.419  0.3707  0.8548 -0.8735
   34MOL   H50534231   6.116   4.633   3.495  1.6298  0.4130 -0.1711
   34MOL   H50634232   6.298   4.861   3.619 -0.1511 -0.3537  1.3045
   34MOL   H50734233   6.258   5.039   3.436 -0.2071  0.9722  0.5474
   34MOL   H50834234   6.002   5.242   3.642 -0.1044  2.2131  2.3066
   34MOL   H50934235   5.934   5.471   3.704  0.4075  0.0520 -0.0911
   34MOL   H51034236   6.084   5.638   3.673  0.3256 -0.1765 -0.8331
   34MOL   H51134237   6.203   5.820   3.796 -1.4958  1.4136  1.7776
   34MOL   N51234238   6.280   4.169   3.459 -0.2090 -0.1462 -0.3600
   34MOL   C51334239   6.392   4.152   3.381 -0.1891  0.0973 -0.0138
   34MOL   C51434240   6.446   4.024   3.365 -0.3084  1.1420 -0.0889
   34MOL   C51534241   6.563   3.999   3.282 -0.2153 -0.4401 -0.2454
   34MOL   C51634242   6.622   4.113   3.224  0.3069 -0.4205 -0.0955
   34MOL   N51734243   6.742   4.104   3.151 -0.0011  0.0833  0.6566
   34MOL   C51834244   6.780   4.023   3.041 -0.3311  0.2624  0.2974
   34MOL   C51934245   6.915   4.032   3.001  0.1666 -0.2942  0.0696
   34MOL   C52034246   6.966   3.961   2.892  0.2425  0.3599  0.6096
   34MOL   C52134247   6.872   3.890   2.812  0.4848  0.2801  0.2876
   34MOL   N52234248   6.910   3.824   2.694 -0.2709  0.2292 -0.1396
   34MOL   C52334249   7.038   3.806   2.644 -0.4237  0.2957 -0.2336
   34MOL   C52434250   7.062   3.816   2.506 -0.1827  0.3672 -0.6411
   34MOL   C52534251   7.189   3.812   2.450 -0.7069 -0.2946 -0.0778
   34MOL   C52634252   7.297   3.780   2.534 -0.0219 -0.0389  0.1884
   34MOL   N52734253   7.426   3.768   2.479  0.1695 -0.7164 -0.0879
   34MOL   C52834254   7.515   3.872   2.474 -0.6763  0.8142  0.6066
   34MOL   C52934255   7.470   4.003   2.487  0.1870  0.0118  0.1318
   34MOL   C53034256   7.553   4.116   2.471 -0.0229  0.0271 -0.1158
   34MOL   C53134257   7.694   4.095   2.454 -0.3476 -0.1054 -0.5014
   34MOL   C53234258   7.790   4.211   2.461 -0.4597 -0.3592  0.4320
   34MOL   C53334259   7.747   3.964   2.449  0.2211 -0.0447  0.0173
   34MOL   C53434260   7.657   3.851   2.459 -0.5053  0.1457  0.5794
   34MOL   C53534261   7.276   3.761   2.671  0.3478 -0.4683 -0.0776
   34MOL   C53634262   7.146   3.772   2.723  0.5770  0.3139 -0.6586
   34MOL   C53734263   6.745   3.866   2.855  0.2228 -0.4342 -0.4282
   34MOL   C53834264   6.695   3.936   2.971 -0.1455  0.1223  0.4312
   34MOL   C53934265   6.563   4.244   3.233 -0.3956  0.8365 -0.5813
   34MOL   C54034266   6.448   4.260   3.317 -0.1030 -0.7339 -0.3936
   34MOL   H54134267   6.218   4.239   3.418 -0.4136  0.6648  1.3011
   34MOL   H54234268   6.399   3.936   3.406 -0.9732  1.6320  0.1876
   34MOL   H54334269   6.609   3.904   3.260 -1.8226 -1.8961  2.4528
   34MOL   H54434270   6.796   4.189   3.147 -0.7713  0.4765 -2.2499
   34MOL   H54534271   6.981   4.099   3.055 -2.5288  1.3147  1.4877
   34MOL   H54634272   7.069   3.981   2.865  0.6991 -1.2219  1.1377
   34MOL   H54734273   6.836   3.791   2.634 -0.1096  0.0243 -0.2274
   34MOL   H54834274   6.976   3.830   2.442 -0.1469 -1.2859 -1.0842
   34MOL   H54934275   7.202   3.821   2.343  0.8864  0.7365  0.1884
   34MOL   H55034276   7.464   3.676   2.462  0.9011 -0.2450 -1.0411
   34MOL   H55134277   7.364   4.016   2.507  0.2534  0.1633  0.3899
   34MOL   H55234278   7.518   4.218   2.479 -0.0829  0.1077 -1.3677
   34MOL   H55334279   7.812   4.239   2.358  1.6902  2.2067  1.5202
   34MOL   H55434280   7.893   4.187   2.484 -0.5423 -0.2319  0.9483
   34MOL   H55534281   7.852   3.964   2.423  0.4426 -0.2728  0.9024
   34MOL   H55634282   7.687   3.751   2.433 -0.0806  0.0676  1.3437
   34MOL   H55734283   7.364   3.737   2.730  1.0758 -0.2290 -1.0472
   34MOL   H55834284   7.128   3.757   2.829 -0.4029 -2.3436 -1.1533
   34MOL   H55934285   6.674   3.815   2.791 -1.3880 -0.0484  1.0062
   34MOL   H56034286   6.592   3.928   3.003  0.0768  0.6146  1.2719
   34MOL   H56134287   6.602   4.329   3.179  0.6955  2.3376  2.4682
   34MOL   H56234288   6.413   4.361   3.329 -0.4306 -1.1835  2.7984
   34MOL   N56334289   7.739   4.305   2.561 -0.5489  0.5397 -0.7056
   34MOL   C56434290   7.747   4.445   2.556  0.4947  0.5889 -0.1873
   34MOL   C56534291   7.727   4.514   2.675  0.4474 -0.3896 -0.2597
   34MOL   C56634292   7.736   4.656   2.673 -0.1090 -0.1482 -0.0212
   34MOL   C56734293   7.765   4.727   2.554 -0.9669  0.4051  0.2217
   34MOL   N56834294   7.784   4.865   2.556 -0.4091 -0.2462 -0.5588
   34MOL   C56934295   7.870   4.943   2.632  0.8939 -0.5792  0.3338
   34MOL   C57034296   7.930   4.901   2.751 -0.1312 -0.3202 -0.0771
   34MOL   C57134297   0.041   4.985   2.814 -0.0932 -0.1572 -0.4247
   34MOL   C57234298   0.080   5.112   2.758  0.2553  0.4200  0.0833
   34MOL   N57334299   0.175   5.190   2.819 -0.8687  0.3910 -0.5109
   34MOL   C57434300   0.160   5.327   2.847  0.0271  0.6648 -0.6996
   34MOL   C57534301   0.267   5.399   2.885  0.7473 -0.3416 -0.5076
   34MOL   C57634302   0.256   5.540   2.904  0.7097  0.2730  0.3757
   34MOL   C57734303   0.131   5.601   2.887 -0.3657 -0.0317  0.4730
   34MOL   N57834304   0.114   5.740   2.891 -0.2884 -0.0648  0.1395
   34MOL   C57934305   0.211   5.837   2.920 -0.0034  0.4693 -0.0242
   34MOL   C58034306   0.189   5.939   3.011 -0.5186  0.2674 -1.2790
   34MOL   C58134307   0.297   6.023   3.045  0.7610  0.3914 -0.1694
   34MOL   C58234308   0.419   6.017   2.979  0.2365 -0.5040 -0.7228
   34MOL   C58334309   0.531   6.115   3.018 -0.0413 -0.0468 -0.4170
   34MOL   C58434310   0.434   5.923   2.880  0.2855 -0.1074  0.1934
   34MOL   C58534311   0.335   5.836   2.845 -0.0675  0.5487  0.7564
   34MOL   C58634312   0.021   5.528   2.849  0.4172 -0.7959 -0.5410
   34MOL   C58734313   0.029   5.394   2.833  0.3143  0.0187 -0.2789
   34MOL   C58834314   0.024   5.155   2.639 -0.1395 -0.0667 -0.3979
   34MOL   C58934315   7.906   5.072   2.585 -0.6494 -0.5956  0.5227
   34MOL   C59034316   7.774   4.650   2.431  0.0867 -0.3738  0.3724
   34MOL   C59134317   7.766   4.510   2.436  0.0318  1.4807 -0.2914
   34MOL   H59234318   7.750   4.264   2.653 -0.9093  1.9058 -0.0448
   34MOL   H59334319   7.714   4.467   2.771 -1.7621  0.1299 -0.2759
   34MOL   H59434320   7.719   4.722   2.757 -0.5519  1.4129 -1.3056
   34MOL   H59534321   7.764   4.904   2.465  0.0138 -1.8130 -1.3335
   34MOL   H59634322   7.916   4.804   2.795 -0.7488 -0.0726  0.2862
   34MOL   H59734323   0.091   4.946   2.901 -1.3984  0.2490  0.5275
   34MOL   H59834324   0.254   5.148   2.866  0.0517  1.4801 -1.0700
   34MOL   H59934325   0.364   5.351   2.894  0.8793  0.2216  1.2991
   34MOL   H60034326   0.345   5.598   2.923  1.7183 -0.0724 -3.0092
   34MOL   H60134327   0.018   5.767   2.902 -0.1825 -1.1043  4.4163
   34MOL   H60234328   0.099   5.959   3.068 -0.2489  2.3477 -1.5222
   34MOL   H60334329   0.273   6.099   3.119  1.3011  1.6215 -1.2319
   34MOL   H60434330   0.501   6.219   3.004 -1.9470 -0.1845  2.3517
   34MOL   H60534331   0.622   6.095   2.961  0.1635 -0.6475  0.1075
   34MOL   H60634332   0.521   5.912   2.817  0.8287  0.7027  0.7896
   34MOL   H60734333   0.362   5.766   2.767 -1.2146 -0.0263  0.8689
   34MOL   H60834334   7.907   5.577   2.837  0.9684  0.6653  0.9115
   34MOL   H60934335   7.919   5.340   2.816  1.1664 -2.0647  1.4956
   34MOL   H61034336   0.046   5.253   2.598  0.7829 -0.1233 -0.0546
   34MOL   H61134337   7.863   5.108   2.493  2.0199  0.9824 -0.1765
   34MOL   H61234338   7.794   4.702   2.338 -1.1559  0.4643  0.5605
   34MOL   H61334339   7.765   4.465   2.338  2.2890  0.1099  0.2634
   34MOL   N61434340   0.557   6.099   3.157 -0.5742 -0.7210 -0.1190
   34MOL   C61534341   0.680   6.138   3.218 -0.3777 -0.4529  0.1783
   34MOL   C61634342   0.767   6.234   3.160 -0.4595 -0.3817  0.1382
   34MOL   C61734343   0.895   6.260   3.213 -0.0569  0.4328  0.4831
   34MOL   C61834344   0.938   6.193   3.333 -0.0619  0.0519  0.4027
   34MOL   N61934345   1.073   6.206   3.363 -0.2838 -0.2100  0.5079
   34MOL   C62034346   1.121   6.228   3.492 -0.1341 -0.0049  0.5202
   34MOL   C62134347   1.261   6.225   3.505 -0.9796 -0.0759  0.3366
   34MOL   C62234348   1.312   6.254   3.637 -0.3512  1.1149  0.9885
   34MOL   C62334349   1.230   6.283   3.748  0.5596 -0.4721 -0.2931
   34MOL   N62434350   1.283   6.317   3.874  0.5463  0.4046 -0.3228
   34MOL   C62534351   1.205   6.340   3.994 -0.4621  0.6896 -0.0405
   34MOL   C62634352   1.214   6.461   4.080  0.0109  0.3188  0.9926
   34MOL   C62734353   1.133   6.487   4.192  0.5867 -0.4247 -0.0657
   34MOL   C62834354   1.033   6.396   4.221  0.2114  0.6378 -0.3995
   34MOL   N62934355   0.949   6.417   4.328  0.2934 -0.6109 -0.0957
   34MOL   C63034356   0.856   6.322   4.381  0.1854 -0.5875  0.5326
   34MOL   C63134357   0.903   6.194   4.417  0.4721 -0.1064 -0.5366
   34MOL   C63234358   0.807   6.108   4.480 -0.5561  0.2789 -0.0097
   34MOL   C63334359   0.670   6.148   4.499  0.2590  0.9838 -0.4478
   34MOL   C63434360   0.575   6.070   4.587 -0.1144 -0.1521 -0.1036
   34MOL   C63534361   0.627   6.275   4.462  0.4473 -0.4481 -0.8342
   34MOL   C63634362   0.721   6.363   4.401 -0.2781 -0.4913  0.1401
   34MOL   C63734363   1.021   6.275   4.144 -0.3407 -0.1903 -0.2750
   34MOL   C63834364   1.103   6.248   4.036 -0.2270 -0.0157  0.2716
   34MOL   C63934365   1.088   6.277   3.728 -0.1092 -0.6394  0.0111
   34MOL   C64034366   1.033   6.254   3.600  0.0103 -0.5956  0.0831
   34MOL   C64134367   0.845   6.103   3.394  0.1057 -0.3545 -0.4712
   34MOL   C64234368   0.715   6.075   3.339  0.2572  0.0941 -0.4866
   34MOL   H64334369   0.512   6.014   3.189 -1.2383  0.2608  1.5915
   34MOL   H64434370   0.736   6.275   3.065  1.1971  1.2947  0.2942
   34MOL   H64534371   0.964   6.325   3.162 -0.0824  0.6619  0.7423
   34MOL   H64634372   1.136   6.250   3.297 -1.3937  0.2331 -0.2654
   34MOL   H64734373   1.334   6.214   3.425  0.5188  0.6447  1.5894
   34MOL   H64834374   1.419   6.263   3.645  0.0118 -0.6151 -1.3798
   34MOL   H64934375   1.379   6.349   3.871  0.4893  0.7296  0.7748
   34MOL   H65034376   1.290   6.537   4.068 -0.4256  0.6675  0.4221
   34MOL   H65134377   1.161   6.574   4.249  1.8995  1.4316 -3.4563
   34MOL   H65234378   0.923   6.514   4.330 -0.1372 -0.7240 -0.2500
   34MOL   H65334379   1.002   6.155   4.400  0.5239 -1.0934  1.7842
   34MOL   H65434380   0.835   6.006   4.500  2.2909  0.6723 -1.6234
   34MOL   H65534381   0.475   6.108   4.569 -0.5203 -1.6321 -1.0050
   34MOL   H65634382   0.585   6.097   4.692 -1.8707 -1.3325  0.3768
   34MOL   H65734383   0.527   6.308   4.485  0.1142 -1.7629 -0.3395
   34MOL   H65834384   0.698   6.466   4.379  0.3465 -0.3917 -0.0492
   34MOL   H65934385   0.955   6.190   4.155 -0.8952  0.1896 -0.6784
   34MOL   H66034386   1.078   6.154   3.989  0.5276 -0.3176  0.4727
   34MOL   H66134387   1.016   6.301   3.805 -1.5286  0.9557 -1.7620
   34MOL   H66234388   0.925   6.254   3.592  0.1003 -0.1942 -1.3165
   34MOL   H66334389   0.875   6.048   3.482 -0.7038 -2.0871 -1.2445
   34MOL   H66434390   0.647   6.010   3.390  0.5932  0.1207 -0.0010
   34MOL   N66534391   0.590   5.928   4.594  0.3566  0.0671  0.1755
   34MOL   C66634392   0.500   5.835   4.538  0.3410 -0.4630  0.0687
   34MOL   C66734393   0.392   5.876   4.457  0.0025 -0.2658  0.3256
   34MOL   C66834394   0.295   5.793   4.405  0.6895  0.3412 -0.1744
   34MOL   C66934395   0.295   5.656   4.445 -0.3288  0.7592 -0.4629
   34MOL   N67034396   0.196   5.568   4.415 -0.7894 -0.2119 -0.2864
   34MOL   C67134397   0.094   5.600   4.321  0.8547  0.3160 -0.0505
   34MOL   C67234398   0.117   5.635   4.191  0.7014 -0.3596 -0.1840
   34MOL   C67334399   0.015   5.684   4.105 -0.5883  0.1371  0.2670
   34MOL   C67434400   7.862   5.672   4.145 -0.3054  1.0969 -0.1028
   34MOL   N67534401   7.755   5.709   4.063  0.2342  0.3676 -0.1812
   34MOL   C67634402   7.625   5.653   4.062  1.0865  0.1545 -0.1212
   34MOL   C67734403   7.514   5.726   4.027 -0.1074 -0.8504  0.1348
   34MOL   C67834404   7.395   5.655   4.015  0.0057 -0.2721 -0.0652
   34MOL   C67934405   7.389   5.514   4.029 -0.0074 -0.5390  0.9979
   34MOL   N68034406   7.265   5.452   4.031 -0.7416 -0.3456 -0.0067
   34MOL   C68134407   7.220   5.346   4.100  0.5972  0.2391 -0.2922
   34MOL   C68234408   7.133   5.253   4.037  0.5808  0.0249  0.8965
   34MOL   C68334409   7.077   5.143   4.109 -0.4768  0.4826 -0.0237
   34MOL   C68434410   7.129   5.103   4.231  0.1433  0.2022  0.3554
   34MOL   C68534411   7.088   4.975   4.298  0.3648  0.0949 -0.3639
   34MOL   C68634412   7.217   5.198   4.298  0.0283  0.3992 -1.2623
   34MOL   C68734413   7.257   5.316   4.231 -0.2197 -0.6877  0.6329
   34MOL   C68834414   7.504   5.442   4.077  0.2574 -0.7196  0.1211
   34MOL   C68934415   7.622   5.514   4.098  0.9742 -0.6470 -0.1754
   34MOL   C69034416   7.834   5.633   4.279  0.5918 -0.3109  0.5279
   34MOL   C69134417   7.942   5.599   4.369 -0.2702  0.3075 -0.7264
   34MOL   C69234418   0.398   5.612   4.533 -0.1729  0.1419  0.0148
   34MOL   C69334419   0.498   5.700   4.579 -0.5974  0.1761 -0.2290
   34MOL   H69434420   0.669   5.894   4.648  0.6602 -1.7227 -1.3370
   34MOL   H69534421   0.387   5.975   4.415 -0.2800 -0.9215 -1.2417
   34MOL   H69634422   0.215   5.831   4.342 -0.8076 -1.2591  0.6923
   34MOL   H69734423   0.187   5.486   4.473 -2.6357 -0.2248 -0.5335
   34MOL   H69834424   0.219   5.644   4.158  0.7829  0.9269  0.3671
   34MOL   H69934425   0.039   5.721   4.006 -0.5695 -1.0066 -0.1653
   34MOL   H70034426   7.754   5.809   4.051  0.4424  0.2083 -1.6050
   34MOL   H70134427   7.523   5.834   4.021 -1.6166 -0.8317 -2.6453
   34MOL   H70234428   7.310   5.716   3.988  0.1448 -0.6023 -1.2817
   34MOL   H70334429   7.196   5.505   3.979 -1.2333 -0.2140  0.7762
   34MOL   H70434430   7.093   5.273   3.939  0.0946  1.1216  1.3066
   34MOL   H70534431   6.993   5.091   4.065 -0.0987  0.9804 -1.3735
   34MOL   H70634432   7.042   5.001   4.393  0.6779  0.1416 -0.2248
   34MOL   H70734433   7.180   4.921   4.324  1.0515  0.5045 -1.9001
   34MOL   H70834434   7.249   5.164   4.395  0.0427 -0.7040 -1.6512
   34MOL   H70934435   7.312   5.390   4.286  0.1131 -0.4524 -0.0073
   34MOL   H71034436   7.493   5.335   4.088 -0.7192 -0.4885  1.5124
   34MOL   H71134437   7.712   5.460   4.124  1.2550 -0.1422 -0.0869
   34MOL   H71234438   7.732   5.632   4.314  0.5554 -0.5656  0.4174
   34MOL   H71334439   7.926   5.580   4.474  1.9806  0.3460 -0.3503
   34MOL   H71434440   0.412   5.510   4.566  1.2672  0.7680  1.3901
   34MOL   H71534441   0.572   5.660   4.648 -3.4577  0.0628  2.9255
   34MOL   N71634442   6.987   4.896   4.229  0.0224  0.2834 -0.0044
   34MOL   C71734443   6.943   4.782   4.292  0.2680 -0.1500 -0.2115
   34MOL   C71834444   7.005   4.730   4.408  0.2037  0.2391  0.1011
   34MOL   C71934445   6.956   4.613   4.471 -0.8035  0.3253  0.3370
   34MOL   C72034446   6.839   4.552   4.421 -0.0260  0.1370  0.3131
   34MOL   N72134447   6.792   4.435   4.484  0.4219  0.0164 -0.5747
   34MOL   C72234448   6.662   4.388   4.495 -0.2106 -0.0174 -0.9381
   34MOL   C72334449   6.552   4.473   4.493 -0.3951  0.6390 -0.5378
   34MOL   C72434450   6.422   4.411   4.505 -0.7150 -0.4348 -0.1291
   34MOL   C72534451   6.408   4.271   4.513  0.5539 -1.4525 -0.0163
   34MOL   N72634452   6.278   4.221   4.528 -0.2463  0.1755  0.0799
   34MOL   C72734453   6.236   4.094   4.488 -0.1153 -0.0303  0.4358
   34MOL   C72834454   6.135   4.035   4.559  0.2117 -0.4917  0.2645
   34MOL   C72934455   6.077   3.911   4.522  0.4265 -0.0100 -0.1606
   34MOL   C73034456   6.134   3.839   4.416 -0.3229  0.2207 -0.1331
   34MOL   N73134457   6.083   3.714   4.376  0.0864 -0.6978  0.0651
   34MOL   C73234458   6.076   3.600   4.457 -0.0750 -0.2943 -0.7347
   34MOL   C73334459   6.162   3.580   4.570 -0.8578  0.3253  0.1560
   34MOL   C73434460   6.168   3.458   4.643  0.4672  0.1824  0.3848
   34MOL   C73534461   6.094   3.352   4.600  0.1523  0.6722 -0.0425
   34MOL   C73634462   6.101   3.214   4.662  0.3084 -0.3480 -0.2619
   34MOL   C73734463   5.995   3.376   4.498  0.8852 -0.1511  0.0437
   34MOL   C73834464   5.991   3.492   4.421  0.0783 -0.1271  0.3477
   34MOL   C73934465   6.239   3.895   4.338  0.4300  0.2968  0.2416
   34MOL   C74034466   6.290   4.022   4.374 -0.0050  0.9621 -0.3011
   34MOL   C74134467   6.521   4.190   4.533 -0.2552 -0.4999  0.1456
   34MOL   C74234468   6.649   4.249   4.526  0.2661 -0.3550  0.6529
   34MOL   C74334469   6.769   4.604   4.311  0.5951 -1.0265 -0.4105
   34MOL   C74434470   6.827   4.719   4.241 -0.2756  1.0252 -0.9623
   34MOL   H74534471   6.934   4.938   4.154 -0.4996  0.7770  0.6386
   34MOL   H74634472   7.094   4.776   4.449 -0.4791  1.2041  0.4980
   34MOL   H74734473   7.013   4.567   4.551  0.1234 -0.4543 -0.7561
   34MOL   H74834474   6.851   4.389   4.552 -0.3814 -0.4374 -0.1802
   34MOL   H74934475   6.557   4.578   4.470 -1.4083  0.9095  0.4450
   34MOL   H75034476   6.340   4.479   4.489  0.2472  0.9593  0.7654
   34MOL   H75134477   6.204   4.289   4.535 -2.0164 -1.6583 -0.2671
   34MOL   H75234478   6.098   4.090   4.645 -1.3741  1.4464 -1.6013
   34MOL   H75334479   6.002   3.862   4.582  0.8861  0.9804  1.2421
   34MOL   H75434480   6.095   3.694   4.278 -1.3777  0.8207 -0.4528
   34MOL   H75534481   6.232   3.648   4.616  0.6253 -0.6936 -0.5084
   34MOL   H75634482   6.234   3.433   4.725 -1.4258  0.2497  1.9727
   34MOL   H75734483   6.075   3.136   4.591 -1.0081 -1.4288  1.3588
   34MOL   H75834484   6.026   3.219   4.741 -0.1475 -0.9554 -0.6491
   34MOL   H75934485   5.918   3.304   4.475  0.5942  0.4380 -0.8847
   34MOL   H76034486   5.928   3.507   4.335 -0.9053 -0.1930  1.0374
   34MOL   H76134487   6.277   3.835   4.256 -2.5481 -1.4258  0.0383
   34MOL   H76234488   6.375   4.059   4.319 -0.1061 -0.8107 -1.6936
   34MOL   H76334489   6.506   4.084   4.550 -1.4705 -0.2966  0.4289
   34MOL   H76434490   6.745   4.200   4.533  1.3227  1.5663  0.0256
   34MOL   H76534491   6.680   4.556   4.274  0.9779 -1.8477 -0.2849
   34MOL   H76634492   6.767   4.762   4.162 -2.6411 -0.8388 -0.2540
   34MOL   N76734493   6.232   3.185   4.724  0.0723  0.2240 -0.4444
   34MOL   C76834494   6.283   3.051   4.745 -0.2057  0.1514 -0.1114
   34MOL   C76934495   6.195   2.942   4.726 -0.3334  0.2151  0.3251
   34MOL   C77034496   6.246   2.809   4.746  0.1279  0.4315  0.0416
   34MOL   C77134497   6.384   2.786   4.772  0.6462  0.2355 -0.2429
   34MOL   N77234498   6.431   2.660   4.797 -0.0461 -0.7551  0.3877
   34MOL   C77334499   6.526   2.590   4.723 -0.2366  0.1382 -0.0849
   34MOL   C77434500   6.593   2.656   4.618  0.7576 -0.2960 -0.5330
   34MOL   C77534501   6.693   2.597   4.545  0.0311 -0.6704 -0.0523
   34MOL   C77634502   6.725   2.461   4.570 -0.1973  0.5211  0.1336
   34MOL   N77734503   6.847   2.409   4.522  0.1426  0.2407  0.0519
   34MOL   C77834504   6.919   2.452   4.417  0.4070  0.6639 -0.4913
   34MOL   C77934505   6.853   2.488   4.302  0.2877  0.0344  0.3078
   34MOL   C78034506   6.935   2.535   4.193 -0.6481  0.1296  0.2418
   34MOL   C78134507   7.076   2.543   4.204 -0.0662  0.2382 -0.3083
   34MOL   N78234508   7.145   2.596   4.094  0.5935 -0.1297 -0.7813
   34MOL   C78334509   7.255   2.684   4.100  0.7498 -0.2118  0.0334
   34MOL   C78434510   7.283   2.753   3.980  0.2100  0.8716 -0.2875
   34MOL   C78534511   7.382   2.853   3.985 -0.4946  0.3948 -0.1177
   34MOL   C78634512   7.463   2.879   4.094 -0.4589 -0.7542 -0.3069
   34MOL   C78734513   7.582   2.965   4.082 -0.0728 -0.1077 -0.1311
   34MOL   C78834514   7.426   2.817   4.220 -0.0693 -0.8036  0.5824
   34MOL   C78934515   7.321   2.729   4.217 -0.3440 -0.1617  0.0378
   34MOL   C79034516   7.144   2.490   4.314  0.1715  0.3454 -0.0751
   34MOL   C79134517   7.060   2.428   4.412 -0.0665 -0.1140  0.0827
   34MOL   C79234518   6.656   2.388   4.668 -0.5451  0.3441  0.0847
   34MOL   C79334519   6.567   2.455   4.757  0.8098  0.7393  0.1399
   34MOL   C79434520   6.469   2.899   4.803 -0.4501 -0.1769 -0.1280
   34MOL   C79534521   6.418   3.030   4.782  0.0336  0.6087  0.8418
   34MOL   H79634522   6.293   3.265   4.731  2.0687 -1.3993  1.4930
   34MOL   H79734523   6.090   2.940   4.703 -0.4907  0.8723  0.9737
   34MOL   H79834524   6.175   2.727   4.748 -1.2826  1.6571  2.3241
   34MOL   H79934525   6.367   2.600   4.848 -0.4991 -1.5342 -1.0779
   34MOL   H80034526   6.569   2.758   4.594  1.3803  0.4555  1.9125
   34MOL   H80134527   6.760   2.650   4.479  3.7063 -3.0704  1.6069
   34MOL   H80234528   6.884   2.340   4.586  0.9827  1.9427  1.4238
   34MOL   H80334529   6.746   2.498   4.293 -0.0376 -2.8111  0.2679
   34MOL   H80434530   6.891   2.571   4.101 -1.1472 -0.5700  0.2013
   34MOL   H80534531   7.083   2.609   4.016  0.3001  0.3788 -0.4638
   34MOL   H80634532   7.223   2.729   3.894  0.9671 -1.3202 -0.2542
   34MOL   H80734533   7.394   2.902   3.889  0.5786 -2.3549 -1.4418
   34MOL   H80834534   7.619   2.964   3.979 -0.0452 -0.4121 -0.1195
   34MOL   H80934535   7.661   2.918   4.140 -2.2403 -0.0737  2.9547
   34MOL   H81034536   7.482   2.844   4.309  0.7227 -1.0689  0.1604
   34MOL   H81134537   7.278   2.703   4.312 -1.0899 -0.7013 -0.4450
   34MOL   H81234538   7.252   2.487   4.320  0.0611 -0.6531  1.4723
   34MOL   H81334539   7.100   2.383   4.502 -0.2407  1.3459  0.9100
   34MOL   H81434540   6.685   2.288   4.697 -0.3123  1.0164  2.2628
   34MOL   H81534541   6.520   2.404   4.839 -2.2928  1.3518 -1.1671
   34MOL   H81634542   6.572   2.884   4.832  0.0676  0.7112 -1.4385
   34MOL   H81734543   6.484   3.115   4.785  0.1423  0.6366 -1.7405
   34MOL   N81834544   7.549   3.098   4.131  0.0082 -0.1187 -0.3418
   34MOL   C81934545   7.619   3.211   4.082 -0.5085  1.5425  0.1316
   34MOL   C82034546   7.551   3.335   4.081  0.2978 -0.0419 -0.1476
   34MOL   C82134547   7.620   3.456   4.030  0.0325 -0.2256 -0.1633
   34MOL   C82234548   7.750   3.450   3.995  0.1855  0.3344  0.5344
   34MOL   N82334549   7.823   3.565   3.969  0.2020  0.2853 -0.0171
   34MOL   C82434550   7.910   3.622   4.067 -0.0276 -0.2901  0.3562
   34MOL   C82534551   7.894   3.757   4.102 -0.0654  1.1413  0.3681
   34MOL   C82634552   7.965   3.812   4.207  0.1216  0.2828 -1.3917
   34MOL   C82734553   0.072   3.737   4.286 -0.4168  0.1960 -0.7265
   34MOL   N82834554   0.152   3.791   4.382 -0.5865  0.6079  0.0305
   34MOL   C82934555   0.156   3.921   4.435 -0.0883  0.8095  0.0387
   34MOL   C83034556   0.156   3.940   4.566 -0.3327 -0.8125 -0.5306
   34MOL   C83134557   0.152   4.071   4.621 -0.7875  0.3844  0.2403
   34MOL   C83234558   0.148   4.180   4.532 -0.7618 -0.3831 -0.2631
   34MOL   N83334559   0.149   4.313   4.588  0.3155 -0.0133  0.0392
   34MOL   C83434560   0.227   4.360   4.696  0.0835  0.0073 -0.4165
   34MOL   C83534561   0.169   4.378   4.822 -0.6938 -0.3515 -0.8889
   34MOL   C83634562   0.242   4.442   4.925 -0.3328  0.1775 -0.2974
   34MOL   C83734563   0.381   4.484   4.900  0.0507 -0.1108 -0.3555
   34MOL   C83834564   0.464   4.549   5.009 -0.1845  0.0801  0.1917
   34MOL   C83934565   0.434   4.455   4.777  0.6621 -0.1430 -0.3036
   34MOL   C84034566   0.359   4.394   4.674  0.1476  0.2092 -0.4253
   34MOL   C84134567   0.148   4.159   4.393  0.3168 -0.2222 -0.2364
   34MOL   C84234568   0.151   4.029   4.348  0.1342 -0.5561 -0.3898
   34MOL   C84334569   0.085   3.599   4.258  0.4338  0.2497  0.1124
   34MOL   C84434570   0.010   3.543   4.153  0.8507 -0.1376 -0.4464
   34MOL   C84534571   7.817   3.329   4.002 -0.2115 -0.1171 -0.2805
   34MOL   C84634572   7.754   3.212   4.034 -0.1942  0.3743  0.3645
   34MOL   H84734573   7.448   3.109   4.123 -0.1074  0.1114  1.2128
   34MOL   H84834574   7.448   3.347   4.112  0.2275 -1.3117  0.1572
   34MOL   H84934575   7.574   3.553   4.029 -2.1958 -1.1955  2.2545
   34MOL   H85034576   7.764   3.638   3.932  1.1102 -0.1820 -2.5554
   34MOL   H85134577   7.825   3.813   4.042 -1.7022 -1.2443 -0.0709
   34MOL   H85234578   7.947   3.914   4.238 -0.2651  0.7105 -2.9814
   34MOL   H85334579   0.160   3.723   4.456 -2.3214  0.9313  0.5382
   34MOL   H85434580   0.151   3.856   4.634 -0.7299 -1.2523 -1.0950
   34MOL   H85534581   0.143   4.085   4.728 -2.7562  3.5850 -0.2649
   34MOL   H85634582   0.123   4.378   4.515  0.8938 -0.5445 -0.6612
   34MOL   H85734583   0.068   4.349   4.844 -0.8507  1.0365  0.2493
   34MOL   H85834584   0.194   4.459   5.020 -2.3878  1.0510 -1.4895
   34MOL   H85934585   0.569   4.519   5.013 -0.5868 -1.4025  0.1381
   34MOL   H86034586   0.414   4.512   5.099  1.0533 -0.5211  0.6532
   34MOL   H86134587   0.534   4.488   4.752 -0.0702  0.9466 -1.8674
   34MOL   H86234588   0.391   4.384   4.571 -0.7538 -1.5039 -0.5717
   34MOL   H86334589   0.144   4.247   4.330  1.2669  0.1626  0.2301
   34MOL   H86434590   0.142   4.012   4.242 -0.6025 -1.9564 -0.1061
   34MOL   H86534591   0.151   3.534   4.313  0.0947 -0.0781  0.1378
   34MOL   H86634592   0.019   3.436   4.139  0.4710 -0.3677  1.0004
   34MOL   H86734593   7.922   3.319   3.975 -0.6953  0.0643 -2.3163
   34MOL   H86834594   7.810   3.120   4.028 -0.8325 -0.0867  1.2999
   34MOL   N86934595   0.449   4.691   4.994 -0.0831  0.1885 -0.4808
   34MOL   C87034596   0.483   4.781   5.098  0.3699 -0.0855 -0.2342
   34MOL   C87134597   0.587   4.757   5.191 -0.2604 -0.5201 -0.0333
   34MOL   C87234598   0.617   4.842   5.295  0.0149 -0.4510 -0.8700
   34MOL   C87334599   0.557   4.972   5.301 -0.5124  0.3421  0.9309
   34MOL   N87434600   0.593   5.068   5.399  0.5769 -0.1740  0.3459
   34MOL   C87534601   0.574   5.208   5.399  0.6605  0.2556 -0.3040
   34MOL   C87634602   0.447   5.259   5.436 -0.2903  0.0383  0.6205
   34MOL   C87734603   0.424   5.398   5.438  0.0491  0.4663  0.2417
   34MOL   C87834604   0.531   5.485   5.399  0.6531 -0.5788 -0.1302
   34MOL   N87934605   0.508   5.624   5.410  0.8389 -0.0219  0.2828
   34MOL   C88034606   0.594   5.701   5.491  0.4815  0.0887 -0.6075
   34MOL   C88134607   0.537   5.735   5.616 -0.6014  0.7119 -0.3703
   34MOL   C88234608   0.608   5.803   5.713  0.0768 -0.5344 -0.3969
   34MOL   C88334609   0.737   5.858   5.680  0.0513  0.1682  0.6138
   34MOL   N88434610   0.804   5.938   5.773  0.1548  0.0480  0.2579
   34MOL   C88534611   0.942   5.960   5.767 -0.9880 -0.0688 -0.2067
   34MOL   C88634612   1.039   5.862   5.734  0.5368 -0.5662 -0.7875
   34MOL   C88734613   1.172   5.894   5.727 -0.0771 -0.0819 -0.7016
   34MOL   C88834614   1.210   6.028   5.749 -0.5010 -0.3332  0.2220
   34MOL   C88934615   1.361   6.066   5.737  0.4539  0.2243  0.3054
   34MOL   C89034616   1.113   6.127   5.780 -0.2536 -0.0458 -0.2401
   34MOL   C89134617   0.977   6.092   5.799 -0.5584  0.5736 -0.1672
   34MOL   C89234618   0.795   5.827   5.548  0.2766 -0.2529 -0.0613
   34MOL   C89334619   0.723   5.748   5.460  0.1393 -0.1973 -0.0395
   34MOL   C89434620   0.657   5.432   5.372  0.0071 -0.3262 -0.0263
   34MOL   C89534621   0.681   5.293   5.370  0.1593  0.4076  0.4430
   34MOL   C89634622   0.458   5.006   5.210  0.0642 -0.0320 -0.7165
   34MOL   C89734623   0.419   4.906   5.113 -0.3123 -0.2140  0.5766
   34MOL   H89834624   0.364   4.715   4.946 -1.2846  2.4237  2.5817
   34MOL   H89934625   0.643   4.665   5.180  1.4042  0.5743 -0.8752
   34MOL   H90034626   0.692   4.810   5.365  0.5989  0.9955 -0.8219
   34MOL   H90134627   0.658   5.030   5.467  2.4174  1.7670 -0.2602
   34MOL   H90234628   0.364   5.199   5.468 -0.4606  0.7266  1.4815
   34MOL   H90334629   0.322   5.421   5.466 -0.5002 -0.1610 -1.2098
   34MOL   H90434630   0.411   5.643   5.430  0.3161 -0.8586 -1.3824
   34MOL   H90534631   0.440   5.693   5.641 -0.3363 -0.5641 -1.4157
   34MOL   H90634632   0.561   5.820   5.809 -1.8410 -2.0727 -1.0491
   34MOL   H90734633   0.745   6.013   5.806  0.4124  0.1870  0.4012
   34MOL   H90834634   1.003   5.762   5.715 -2.5307  0.2461  0.4766
   34MOL   H90934635   1.241   5.815   5.702 -0.1960 -0.7844  1.1048
   34MOL   H91034636   1.426   5.978   5.733 -2.4529 -1.8982 -3.1294
   34MOL   H91134637   1.372   6.136   5.819 -1.1453 -0.8736  1.4812
   34MOL   H91234638   1.149   6.229   5.780  0.0908 -0.1483  1.9131
   34MOL   H91334639   0.914   6.175   5.825 -0.5016  1.2197 -2.0593
   34MOL   H91434640   0.882   5.877   5.505 -0.1718 -1.7224 -2.8210
   34MOL   H91534641   0.772   5.735   5.365  2.2808  0.8161  0.8949
   34MOL   H91634642   0.743   5.496   5.380 -1.1269  1.3215 -0.7186
   34MOL   H91734643   0.778   5.248   5.352 -0.9165 -1.5867 -0.5485
   34MOL   H91834644   0.403   5.098   5.213  0.2778  0.0406  2.0958
   34MOL   H91934645   0.342   4.932   5.043 -0.0579  1.2103  0.8089
   34MOL   N92034646   1.384   6.163   5.634 -0.8124  0.8493 -0.1166
   34MOL   C92134647   1.519   6.212   5.620 -0.3789  0.6855  0.5897
   34MOL   C92234648   1.606   6.212   5.731  0.0675 -0.6834 -0.1479
   34MOL   C92334649   1.734   6.268   5.721 -0.5345 -0.0193 -0.3016
   34MOL   C92434650   1.779   6.337   5.606 -0.2219  0.3100  0.1263
   34MOL   N92534651   1.897   6.407   5.598  0.2437 -0.0514 -0.5516
   34MOL   C92634652   1.986   6.442   5.702 -0.2213  0.1464  0.3192
   34MOL   C92734653   2.129   6.449   5.677  0.0307  0.0457  0.3534
   34MOL   C92834654   2.224   6.468   5.772  0.1143 -0.3410  0.7547
   34MOL   C92934655   2.180   6.482   5.905 -0.7147 -0.7516 -0.1739
   34MOL   N93034656   2.281   6.490   5.998  0.0847 -0.4048  0.6515
   34MOL   C93134657   2.280   6.565   6.117  0.6866 -0.5510 -0.5652
   34MOL   C93234658   2.236   6.703   6.106  0.4794  0.0776 -0.3073
   34MOL   C93334659   2.242   6.780   6.225 -0.7179  0.0012  0.0064
   34MOL   C93434660   2.301   6.728   6.347  0.8189 -0.2605 -0.1033
   34MOL   N93534661   2.314   6.810   6.457  0.1152  0.9615 -0.5103
   34MOL   C93634662   2.415   6.819   6.556 -0.2692 -0.4025 -0.1485
   34MOL   C93734663   2.549   6.784   6.522  0.7951 -0.0191  0.6765
   34MOL   C93834664   2.655   6.818   6.609  0.5829 -0.3056 -0.0599
   34MOL   C93934665   2.626   6.881   6.729  0.8715 -0.5520 -0.3660
   34MOL   C94034666   2.724   6.907   6.826 -0.8293  0.3657  0.2468
   34MOL   C94134667   2.494   6.892   6.770  0.2705  0.3765  0.3822
   34MOL   C94234668   2.387   6.868   6.684  0.6593 -0.5717  0.2045
   34MOL   C94334669   2.350   6.596   6.344 -0.0144 -0.0525 -0.2173
   34MOL   C94434670   2.336   6.518   6.236  0.3074 -0.2496  0.4712
   34MOL   C94534671   2.043   6.500   5.934  0.5772 -0.3254 -0.1488
   34MOL   C94634672   1.943   6.482   5.834 -0.0510 -0.2859 -0.0787
   34MOL   C94734673   1.688   6.345   5.499  0.5042  0.4776  0.1258
   34MOL   C94834674   1.565   6.279   5.506  0.9279  0.3152 -0.4524
   34MOL   H94934675   1.334   6.135   5.551  0.3030  1.7164 -1.0866
   34MOL   H95034676   1.580   6.161   5.823 -2.0531 -1.4021 -1.1051
   34MOL   H95134677   1.794   6.259   5.811  0.0272  2.0010 -0.4500
   34MOL   H95234678   1.917   6.448   5.508  0.2785 -0.4775 -0.7364
   34MOL   H95334679   2.165   6.435   5.576  0.3412  1.8831  0.1818
   34MOL   H95434680   2.330   6.466   5.752 -0.3001 -1.0982 -1.5190
   34MOL   H95534681   2.369   6.448   5.971 -0.1030 -2.3667  2.8969
   34MOL   H95634682   2.205   6.749   6.013  0.0470  1.9634  0.7399
   34MOL   H95734683   2.217   6.885   6.220 -3.1270 -0.5957 -1.4658
   34MOL   H95834684   2.227   6.860   6.474 -0.6538 -0.6218  0.3599
   34MOL   H95934685   2.585   6.739   6.430 -2.8687  0.9137 -1.3121
   34MOL   H96034686   2.754   6.787   6.580 -0.3905 -2.7220 -0.9508
   34MOL   H96134687   2.711   7.012   6.855  0.6645 -0.0326  2.4776
   34MOL   H96234688   2.825   6.898   6.786 -1.4235  0.3902 -1.2670
   34MOL   H96334689   2.471   6.919   6.872  1.0918  0.1373  0.6341
   34MOL   H96434690   2.285   6.873   6.718  0.0737 -2.8397 -1.0920
   34MOL   H96534691   2.397   6.552   6.431  0.0273  0.5621  0.0812
   34MOL   H96634692   2.365   6.414   6.246 -0.3199 -0.5439 -0.7162
   34MOL   H96734693   2.018   6.517   6.037  1.0390 -1.7293  0.2009
   34MOL   H96834694   1.841   6.491   5.869  0.5942  0.3632  1.6759
   34MOL   H96934695   1.733   6.395   5.414  0.3288 -1.6791 -1.2826
   34MOL   H97034696   1.491   6.278   5.426 -0.4237  0.7108  0.7698
   34MOL   N97134697   2.725   6.808   6.940  0.5029  0.4897  0.5453
   34MOL   C97234698   2.769   6.860   7.061 -0.1825 -0.2107  0.4413
   34MOL   C97334699   2.737   6.784   7.179  0.2763  0.4061 -0.3114
   34MOL   C97434700   2.765   6.837   7.300  0.1311  0.1301 -0.0870
   34MOL   C97534701   2.835   6.957   7.309  0.5608  0.1254 -0.2374
   34MOL   N97634702   2.864   6.996   7.441 -0.7067  0.3089  0.3277
   34MOL   C97734703   2.972   7.077   7.487  0.0678 -0.1555  0.3751
   34MOL   C97834704   2.954   7.122   7.615  0.5957 -0.2091  0.4373
   34MOL   C97934705   3.059   7.193   7.678  0.0273  0.4257 -0.0471
   34MOL   C98034706   3.187   7.191   7.623 -0.7615  0.3520  0.1729
   34MOL   N98134707   3.298   7.217   7.700 -0.0628  0.2099  0.2689
   34MOL   C98234708   3.309   7.175   7.832 -0.0341  0.8268  0.2798
   34MOL   C98334709   3.374   7.051   7.856  0.0181 -0.1543 -0.2939
   34MOL   C98434710   3.403   7.005   0.008 -0.2629 -0.2873  0.0152
   34MOL   C98534711   3.357   7.081   0.114 -0.2156  0.2157 -0.5857
   34MOL   N98634712   3.366   7.030   0.242  0.4089  0.6425  0.7585
   34MOL   C98734713   3.274   7.065   0.343 -0.0106 -0.2087 -0.0721
   34MOL   C98834714   3.326   7.090   0.474 -0.0493 -0.5705  0.2065
   34MOL   C98934715   3.244   7.136   0.578 -0.0216  0.4448 -0.5348
   34MOL   C99034716   3.110   7.159   0.543 -0.3380  0.1071 -0.1667
   34MOL   C99134717   3.020   7.225   0.650 -0.9183  0.1025  0.9365
   34MOL   C99234718   3.052   7.124   0.421  0.3160 -0.1965  0.4993
   34MOL   C99334719   3.137   7.078   0.317  0.2461  0.2655 -0.7295
   34MOL   C99434720   3.286   7.201   0.087 -0.4494  0.4351 -0.5157
   34MOL   C99534721   3.268   7.251   7.937  0.1650  0.2362 -0.7540
   34MOL   C99634722   3.208   7.145   7.496 -0.1805  0.5950 -1.0312
   34MOL   C99734723   3.099   7.088   7.425  0.0214 -0.2783 -0.1963
   34MOL   C99834724   2.869   7.034   7.202  0.1020  0.7805  0.1923
   34MOL   C99934725   2.835   6.987   7.076  0.3115 -1.0170  0.2555
   34MOL     H134726   2.662   6.729   6.939  0.8606  0.1624  2.3103
   34MOL     H234727   2.676   6.695   7.171  1.2422 -0.1861 -1.3475
   34MOL     H334728   2.715   6.792   7.385 -0.8988  1.2650 -0.0639
   34MOL     H434729   2.789   6.986   7.507  0.8196 -2.8115  1.7036
   34MOL     H534730   2.856   7.109   7.658  0.5995 -0.3561  0.4007
   34MOL     H634731   3.048   7.231   7.779  0.7119 -1.0313  0.6032
   34MOL     H734732   3.385   7.193   7.654 -0.7803 -0.3782 -0.8116
   34MOL     H834733   3.421   7.004   7.771  0.6363 -1.7267  0.8828
   34MOL     H934734   3.460   6.914   0.005 -0.5405 -0.4396 -3.5211
   34MOL    H1034735   3.451   6.986   0.275  0.0871 -1.9798 -1.6703
   34MOL    H1134736   3.432   7.083   0.496  0.3272  1.2837 -0.8815
   34MOL    H1234737   3.288   7.150   0.675  0.0690  0.7379 -0.6158
   34MOL    H1334738   2.916   7.225   0.617 -0.9835  1.3029  1.0987
   34MOL    H1434739   3.044   7.329   0.675  1.4577 -0.4819  1.2455
   34MOL    H1534740   2.947   7.135   0.399  0.6054  2.6032  0.3496
   34MOL    H1634741   3.102   7.050   0.219 -2.4383 -0.5171  0.4274
   34MOL    H1734742   3.248   7.262   0.168 -0.6457 -0.0514 -0.2376
   34MOL    H1834743   3.212   7.343   7.928 -2.3526 -1.1640 -0.1032
   34MOL    H1934744   3.301   7.141   7.440 -1.7032 -3.1403 -3.4940
   34MOL    H2034745   3.113   7.046   7.327 -2.8834 -0.9394 -0.3893
   34MOL    H2134746   2.911   7.133   7.217  1.0975  0.0467  2.3956
   34MOL    H2234747   2.878   7.039   6.992 -0.4144  0.0025  0.5102
   34MOL    H2334748   3.037   7.175   0.745  3.2372  0.5177  0.4905
   35MOL     N134749   5.045   3.318   6.323  0.0161 -0.5606 -0.1357
   35MOL     C234750   5.142   3.227   6.279 -0.2360  0.2252 -0.4061
   35MOL     C334751   5.246   3.260   6.183  0.3793 -0.9909  0.2639
   35MOL     C434752   5.334   3.167   6.134 -0.6080 -0.1056 -0.6115
   35MOL     C534753   5.324   3.033   6.174  0.0335 -0.2610  0.1016
   35MOL     N634754   5.407   2.939   6.111 -0.0150  0.2486 -0.0009
   35MOL     C734755   5.374   2.802   6.106 -0.8158  0.4411  0.8485
   35MOL     C834756   5.323   2.748   5.985 -0.2186 -1.0808  0.1414
   35MOL     C934757   5.286   2.617   5.985 -0.4302  0.7712 -0.0301
   35MOL    C1034758   5.299   2.533   6.097 -0.3364 -0.4550 -0.5818
   35MOL    N1134759   5.271   2.398   6.097  0.2536 -0.0753  0.1335
   35MOL    C1234760   5.145   2.334   6.073 -0.4102  0.0434  0.6013
   35MOL    C1334761   5.136   2.198   6.097  0.5759  0.0844 -0.2662
   35MOL    C1434762   5.016   2.124   6.067  0.1952 -0.1887  0.7876
   35MOL    C1534763   4.907   2.186   6.010  0.6631  0.3905 -0.3365
   35MOL    N1634764   4.797   2.105   5.967  0.7191 -0.5071  0.0122
   35MOL    C1734765   4.702   2.042   6.049 -0.5320 -0.0753 -0.1260
   35MOL    C1834766   4.724   2.030   6.190  0.5640  0.7537 -0.2034
   35MOL    C1934767   4.618   1.968   6.265  0.0780  0.2677  0.6807
   35MOL    C2034768   4.503   1.913   6.202 -0.7175  0.1789  0.0722
   35MOL    C2134769   4.382   1.862   6.270 -0.8679 -0.0275 -0.3983
   35MOL    C2234770   4.502   1.913   6.064 -0.0963 -0.2648  0.1464
   35MOL    C2334771   4.595   1.980   5.983  0.1220 -0.6136 -0.1235
   35MOL    C2434772   4.909   2.323   5.991 -0.1097  0.1964 -0.4995
   35MOL    C2534773   5.027   2.397   6.024 -1.4224  0.2288 -0.6818
   35MOL    C2634774   5.371   2.581   6.204 -0.7459 -0.1041 -0.5055
   35MOL    C2734775   5.397   2.716   6.215  0.4749  0.4600 -0.4837
   35MOL    C2834776   5.228   2.994   6.273  0.7403 -0.1692 -0.2749
   35MOL    C2934777   5.135   3.087   6.323 -0.0395  0.8763 -0.1054
   35MOL    H3034778   4.960   3.292   6.371  0.3577 -0.1552  0.7050
   35MOL    H3134779   5.247   3.363   6.151  0.9968 -1.2042 -0.4048
   35MOL    H3234780   5.408   3.198   6.062 -0.1672  0.6573  0.1653
   35MOL    H3334781   5.450   2.962   6.023 -0.5042 -2.8477 -1.0962
   35MOL    H3434782   5.325   2.809   5.896  2.6192 -0.6890  0.4025
   35MOL    H3534783   5.254   2.577   5.890  0.4111 -1.4317  0.5885
   35MOL    H3634784   5.347   2.335   6.116  0.4638  0.9086  2.7294
   35MOL    H3734785   5.226   2.146   6.127  1.0617  0.8588 -0.3585
   35MOL    H3834786   5.019   2.016   6.065 -0.5925 -0.2011 -1.5173
   35MOL    H3934787   4.756   2.125   5.877  2.3993  1.5726 -0.3247
   35MOL    H4034788   4.819   2.054   6.234  0.7597 -0.8744  0.2612
   35MOL    H4134789   4.628   1.962   6.373 -0.0967 -2.8294  0.5653
   35MOL    H4234790   4.422   1.784   6.334  2.3659  1.6851 -0.2004
   35MOL    H4334791   4.316   1.817   6.196 -0.3476  0.9964 -1.5095
   35MOL    H4434792   4.407   1.888   6.018 -0.8343  1.2155  0.8276
   35MOL    H4534793   4.590   1.987   5.875  0.3991 -1.2869 -0.1794
   35MOL    H4634794   4.826   2.378   5.948  0.2544  0.3997 -0.9455
   35MOL    H4734795   5.028   2.501   5.994 -0.1165  0.4888  0.2071
   35MOL    H4834796   5.380   2.529   6.298 -0.2958 -0.5950 -0.8228
   35MOL    H4934797   5.437   2.757   6.306 -4.4038  0.6788  1.7330
   35MOL    H5034798   5.217   2.890   6.298  2.6326 -0.2201  0.3902
   35MOL    H5134799   5.056   3.058   6.391 -0.0120 -1.0691 -0.8824
   35MOL    H5234800   5.040   3.412   6.285 -0.9896 -1.4814 -2.3933
   35MOL    N5334801   4.317   1.974   6.342 -0.2381  0.2499 -0.6550
   35MOL    C5434802   4.224   1.943   6.445 -0.7378 -0.3785  0.1659
   35MOL    C5534803   4.154   1.818   6.450  0.3538  0.3441  0.3020
   35MOL    C5634804   4.062   1.790   6.555 -0.6994 -0.9777  0.3292
   35MOL    C5734805   4.036   1.888   6.654  0.1949  0.1796  0.5843
   35MOL    N5834806   3.935   1.873   6.758 -0.1131  0.0167  0.3721
   35MOL    C5934807   3.870   1.757   6.799 -0.1552 -0.0303 -0.1111
   35MOL    C6034808   3.730   1.740   6.799 -0.5653 -0.0005  0.8070
   35MOL    C6134809   3.674   1.614   6.823 -0.2271 -0.2672  0.0273
   35MOL    C6234810   3.757   1.507   6.866  0.1940  0.0578  0.1354
   35MOL    N6334811   3.716   1.379   6.907 -0.4323  0.5800 -0.1453
   35MOL    C6434812   3.754   1.257   6.862 -0.0705 -0.2941  0.8026
   35MOL    C6534813   3.821   1.251   6.742  0.3663 -0.2005  0.6161
   35MOL    C6634814   3.861   1.126   6.690 -0.1592 -0.5023  0.8849
   35MOL    C6734815   3.844   1.009   6.767  0.3698  0.2323 -0.7867
   35MOL    N6834816   3.918   0.898   6.726  0.1525 -0.4402  0.4055
   35MOL    C6934817   3.948   0.785   6.794 -0.0863  0.2369 -0.2684
   35MOL    C7034818   3.990   0.675   6.719  0.2919  0.5751  0.5277
   35MOL    C7134819   4.030   0.558   6.786  0.1932 -1.1565 -0.0240
   35MOL    C7234820   4.018   0.547   6.931 -0.1031 -0.6925  0.5072
   35MOL    C7334821   4.057   0.418   6.998  0.4476  0.7958 -0.1856
   35MOL    C7434822   3.959   0.653   7.005  0.8959 -0.2535  0.4283
   35MOL    C7534823   3.941   0.776   6.935 -0.4194 -0.7332 -0.0966
   35MOL    C7634824   3.755   1.014   6.875 -0.8013  0.5103 -1.0407
   35MOL    C7734825   3.713   1.137   6.923 -0.3064  0.1940 -0.3213
   35MOL    C7834826   3.894   1.527   6.861 -0.3329  0.6080  0.3908
   35MOL    C7934827   3.952   1.653   6.828 -0.2485  0.6589  0.4083
   35MOL    C8034828   4.097   2.009   6.643 -0.1582  0.3041 -0.0558
   35MOL    C8134829   4.195   2.041   6.544  0.2204  0.8350 -1.0138
   35MOL    H8234830   4.373   2.056   6.361 -0.1754  0.4039 -1.4919
   35MOL    H8334831   4.166   1.739   6.377  2.0672 -0.0601  1.0072
   35MOL    H8434832   4.001   1.702   6.545  0.2193 -1.6076  0.2719
   35MOL    H8534833   3.909   1.958   6.805 -0.6693  0.7009 -1.1286
   35MOL    H8634834   3.666   1.821   6.767 -0.6331 -1.3219 -2.5954
   35MOL    H8734835   3.567   1.606   6.810  0.1001  1.5540 -4.3928
   35MOL    H8834836   3.619   1.374   6.935  0.2630 -1.4961  2.1383
   35MOL    H8934837   3.858   1.337   6.689  2.7906 -0.4812  1.7891
   35MOL    H9034838   3.926   1.113   6.605 -1.1465 -2.1737  0.3522
   35MOL    H9134839   3.969   0.910   6.640  1.8702 -0.7689  1.3598
   35MOL    H9234840   3.993   0.677   6.611 -0.7319  0.3440  0.4825
   35MOL    H9334841   4.063   0.467   6.738 -1.2500 -3.4013  3.0051
   35MOL    H9434842   4.162   0.427   7.023  0.3051  1.3892  0.2162
   35MOL    H9534843   4.047   0.344   6.918  0.2223  1.2617 -0.5901
   35MOL    H9634844   3.925   0.661   7.108  0.4443  0.7720  0.2120
   35MOL    H9734845   3.901   0.859   6.992  3.3111  1.4802 -0.5385
   35MOL    H9834846   3.721   0.920   6.917  0.0028 -0.0557 -1.6377
   35MOL    H9934847   3.653   1.142   7.013 -0.8243  1.6807 -0.7307
   35MOL   H10034848   3.962   1.450   6.895  0.3290  1.1185  0.2299
   35MOL   H10134849   4.056   1.674   6.849  0.3208 -1.9384  0.3650
   35MOL   H10234850   4.084   2.091   6.713 -0.4237 -0.1950  0.4875
   35MOL   H10334851   4.249   2.134   6.539  0.1564  0.9706  0.4561
   35MOL   N10434852   3.969   0.377   7.111  0.1933 -0.2085 -0.5077
   35MOL   C10534853   4.015   0.285   7.203 -0.0212  0.5246  0.9367
   35MOL   C10634854   3.957   0.296   7.328  0.1896  0.1204  0.3311
   35MOL   C10734855   4.015   0.220   7.430 -0.4855 -0.0538  0.3532
   35MOL   C10834856   4.123   0.132   7.402  0.3488  0.8164 -0.1153
   35MOL   N10934857   4.182   0.063   7.506  0.3430 -0.2433 -0.2784
   35MOL   C11034858   4.270   7.935   7.502 -1.1757  0.0105 -0.8278
   35MOL   C11134859   4.231   7.815   7.438 -0.0851  1.0826  0.0440
   35MOL   C11234860   4.314   7.704   7.432  0.0584  0.3596 -0.4035
   35MOL   C11334861   4.453   7.715   7.469  0.3249 -0.5136  0.8011
   35MOL   N11434862   4.551   7.614   7.438 -0.4123 -1.0520 -0.3010
   35MOL   C11534863   4.531   7.499   7.358 -0.2469 -0.4726 -0.7730
   35MOL   C11634864   4.582   7.376   7.408 -0.2389 -0.2995  0.6667
   35MOL   C11734865   4.550   7.253   7.348 -0.4026 -0.2166 -0.0766
   35MOL   C11834866   4.467   7.256   7.235 -0.2369 -0.0418  0.3132
   35MOL   N11934867   4.441   7.135   7.173 -0.1863 -0.5247 -0.1287
   35MOL   C12034868   4.409   7.016   7.243 -0.1812  0.4833  0.0590
   35MOL   C12134869   4.422   6.895   7.172 -0.3327 -0.1887  0.2631
   35MOL   C12234870   4.395   6.772   7.245  0.1084 -0.4563  0.2580
   35MOL   C12334871   4.344   6.771   7.374 -0.0861 -0.3583  0.3974
   35MOL   C12434872   4.322   6.642   7.441  0.0753  0.6770 -0.6919
   35MOL   C12534873   4.338   6.893   7.448 -0.1163  0.6246  0.0720
   35MOL   C12634874   4.368   7.015   7.380 -0.3181  0.3211 -0.1355
   35MOL   C12734875   4.415   7.380   7.185 -1.1767  0.7025 -0.5881
   35MOL   C12834876   4.445   7.503   7.243  0.0677  0.0436 -0.6603
   35MOL   C12934877   4.492   7.835   7.524 -0.3713  0.0848 -0.0638
   35MOL   C13034878   4.404   7.946   7.545  0.3509 -0.5190 -0.2044
   35MOL   C13134879   4.175   0.124   7.268  0.2354  0.0360 -0.9409
   35MOL   C13234880   4.114   0.198   7.168 -0.0108  0.3795 -0.4424
   35MOL   H13334881   3.891   0.435   7.137 -1.6839 -2.4125 -1.0388
   35MOL   H13434882   3.870   0.358   7.344  2.0060  2.6241  0.7851
   35MOL   H13534883   3.978   0.231   7.531  0.6570  0.1335  0.7496
   35MOL   H13634884   4.196   0.112   7.593 -0.3257 -0.8362  0.1684
   35MOL   H13734885   4.126   7.800   7.414  0.0555 -0.8035  0.5407
   35MOL   H13834886   4.273   7.613   7.391  1.7568  0.1480 -1.6672
   35MOL   H13934887   4.620   7.617   7.512 -1.7053  1.4672  0.8799
   35MOL   H14034888   4.641   7.377   7.498 -0.4623 -0.8450  0.8207
   35MOL   H14134889   4.585   7.162   7.394 -2.0744 -2.1017 -2.3617
   35MOL   H14234890   4.421   7.136   7.074  2.6594  0.2944 -0.7453
   35MOL   H14334891   4.463   6.899   7.072 -1.5452  0.1399 -0.2266
   35MOL   H14434892   4.424   6.678   7.200 -0.3363  0.4478 -2.0239
   35MOL   H14534893   4.265   6.573   7.377  0.7266 -0.4612 -0.0653
   35MOL   H14634894   4.265   6.657   7.532  3.7618 -0.3814  1.8979
   35MOL   H14734895   4.312   6.898   7.553 -0.9150  1.6331 -0.1572
   35MOL   H14834896   4.361   7.110   7.431 -2.0371 -0.3984  1.0155
   35MOL   H14934897   4.343   7.384   7.105 -2.5745 -1.3411  0.5154
   35MOL   H15034898   4.396   7.591   7.204 -1.7814 -0.2495  0.9654
   35MOL   H15134899   4.594   7.853   7.553  0.0985 -2.3210 -0.1218
   35MOL   H15234900   4.437   0.054   7.594  0.4240 -0.5831 -0.1337
   35MOL   H15334901   4.263   0.065   7.245 -0.3697 -1.0801 -0.4244
   35MOL   H15434902   4.165   0.192   7.073 -0.5020 -1.3359 -0.6233
   35MOL   N15534903   4.443   6.589   7.494  0.4569  0.0820 -0.0156
   35MOL   C15634904   4.456   6.459   7.544  0.5680  0.2638  0.0377
   35MOL   C15734905   4.383   6.353   7.479  0.3351 -0.1973  0.2973
   35MOL   C15834906   4.405   6.224   7.526  0.1256  0.1194 -0.1635
   35MOL   C15934907   4.499   6.193   7.621  0.0404 -0.6977  0.2242
   35MOL   N16034908   4.521   6.062   7.662 -0.5814  0.0698 -0.5951
   35MOL   C16134909   4.583   6.027   7.785 -0.7863 -0.6533  0.3926
   35MOL   C16234910   4.716   5.979   7.784 -0.4185  0.0344  0.2539
   35MOL   C16334911   4.771   5.935   7.907  0.0704 -0.0152  0.0051
   35MOL   C16434912   4.699   5.940   0.049  0.4265  0.1458 -0.2824
   35MOL   N16534913   4.745   5.874   0.166  0.1840  0.1855 -1.0031
   35MOL   C16634914   4.704   5.897   0.304  0.0744 -1.0124  0.2296
   35MOL   C16734915   4.640   6.018   0.346  0.6915 -0.4155  0.1600
   35MOL   C16834916   4.576   6.026   0.475 -0.1476 -0.5158 -0.2951
   35MOL   C16934917   4.590   5.912   0.560 -0.5100  0.5969  0.4915
   35MOL   N17034918   4.527   5.930   0.682 -0.2025 -0.4566 -0.5898
   35MOL   C17134919   4.555   5.852   0.794 -0.6483  0.9337 -0.2231
   35MOL   C17234920   4.687   5.802   0.822  0.1544 -0.0940 -0.7046
   35MOL   C17334921   4.725   5.740   0.945 -0.7201  0.7700  0.0353
   35MOL   C17434922   4.626   5.720   1.046  0.0020  0.3698  0.1833
   35MOL   C17534923   4.664   5.650   1.168  0.2409 -0.5599 -0.6529
   35MOL   C17634924   4.495   5.774   1.024  0.5243  0.3851  0.1759
   35MOL   C17734925   4.461   5.832   0.900 -0.0386 -0.1024  0.8107
   35MOL   C17834926   4.652   5.798   0.519  0.1617  0.2310 -0.2120
   35MOL   C17934927   4.706   5.788   0.391 -0.3394 -0.2843  0.7666
   35MOL   C18034928   4.565   5.988   0.041  0.0388  0.4061  0.1522
   35MOL   C18134929   4.508   6.033   7.903  0.3716 -0.4862 -0.4098
   35MOL   C18234930   4.577   6.297   7.678 -0.3199  0.4846 -0.2382
   35MOL   C18334931   4.559   6.430   7.637  0.1387 -0.0737 -0.0623
   35MOL   H18434932   4.507   6.660   7.523  0.0275  0.2148  0.6032
   35MOL   H18534933   4.313   6.360   7.398  1.6386 -1.0288 -0.9230
   35MOL   H18634934   4.353   6.149   7.468 -2.8841  2.1739 -0.2158
   35MOL   H18734935   4.460   5.990   7.624 -0.6984 -0.3669  0.3897
   35MOL   H18834936   4.775   5.977   7.694  0.5686 -2.5514  0.9133
   35MOL   H18934937   4.871   5.897   7.916 -1.0704 -3.3130 -0.5568
   35MOL   H19034938   4.775   5.781   0.141  0.6895  0.0901 -0.0701
   35MOL   H19134939   4.640   6.100   0.275  2.1490 -0.4229  0.1459
   35MOL   H19234940   4.525   6.116   0.506  3.4960  2.5383 -2.6284
   35MOL   H19334941   4.463   6.006   0.703  0.2800  0.1918 -1.4221
   35MOL   H19434942   4.764   5.807   0.746 -0.1313  0.3922 -0.9654
   35MOL   H19534943   4.827   5.706   0.949 -0.6846  0.6448 -1.4571
   35MOL   H19634944   4.618   5.710   1.246  0.5365 -0.5363 -0.4973
   35MOL   H19734945   4.770   5.642   1.195 -0.6648  2.0829  4.3347
   35MOL   H19834946   4.420   5.757   1.100 -1.3265  0.3141 -1.6501
   35MOL   H19934947   4.360   5.868   0.888 -0.0342 -0.7012 -1.1428
   35MOL   H20034948   4.652   5.713   0.586 -1.3388  0.6531  0.3499
   35MOL   H20134949   4.743   5.696   0.347 -1.5489  0.4967 -1.9949
   35MOL   H20234950   4.498   5.994   0.126 -0.6323  2.4668 -0.4744
   35MOL   H20334951   4.408   6.072   7.896  0.6459  0.3559  0.2422
   35MOL   H20434952   4.660   6.281   7.745  0.3725  1.7009 -0.8024
   35MOL   H20534953   4.617   6.509   7.683  1.2567 -1.3816  0.8264
   35MOL   N20634954   4.617   5.515   1.166  0.4885  0.4019 -0.3922
   35MOL   C20734955   4.622   5.436   1.281  0.3605  0.4806  0.0055
   35MOL   C20834956   4.690   5.466   1.395  0.3350 -0.3427  0.0483
   35MOL   C20934957   4.679   5.388   1.513  0.4247  0.0110 -0.1408
   35MOL   C21034958   4.614   5.269   1.502 -0.1786  0.0398  0.4083
   35MOL   N21134959   4.595   5.171   1.607  0.2937 -0.0147  0.5363
   35MOL   C21234960   4.656   5.158   1.732 -0.6153 -0.3286  0.4425
   35MOL   C21334961   4.702   5.031   1.781 -0.5062 -0.7469 -0.4391
   35MOL   C21434962   4.754   5.025   1.912  0.1267 -0.2963 -0.1246
   35MOL   C21534963   4.776   5.135   1.991  1.0331  0.3704  0.3787
   35MOL   N21634964   4.830   5.112   2.116  0.1690  0.2903 -0.1705
   35MOL   C21734965   4.914   5.200   2.178  0.5957 -0.7186  0.3156
   35MOL   C21834966   4.916   5.199   2.320  0.6402 -0.0369 -0.4789
   35MOL   C21934967   5.013   5.281   2.390  0.3883  0.2991  0.4224
   35MOL   C22034968   5.081   5.384   2.330 -0.0904  0.3579  0.0818
   35MOL   N22134969   5.168   5.466   2.403  0.0529 -0.3148  0.7071
   35MOL   C22234970   5.163   5.485   2.541 -0.2843 -0.2940  0.7176
   35MOL   C22334971   5.282   5.507   2.613 -0.4293  0.2697  0.0816
   35MOL   C22434972   5.283   5.538   2.752 -0.5264 -0.2615 -0.1037
   35MOL   C22534973   5.165   5.549   2.820  0.0585 -0.4329  0.9005
   35MOL   C22634974   5.166   5.567   2.970 -0.0422 -0.2427 -0.0003
   35MOL   C22734975   5.044   5.548   2.743  0.3873 -0.4396 -0.2823
   35MOL   C22834976   5.041   5.505   2.608  0.1268 -0.5270  0.0590
   35MOL   C22934977   5.063   5.400   2.190  0.6905 -0.7828 -0.4617
   35MOL   C23034978   4.990   5.300   2.114  0.0107 -0.4911 -0.5529
   35MOL   C23134979   4.730   5.259   1.938 -0.3248  0.1418  0.0906
   35MOL   C23234980   4.668   5.276   1.810 -0.3241  0.4136 -0.0952
   35MOL   C23334981   4.559   5.229   1.383  0.1507 -0.0226 -0.3422
   35MOL   C23434982   4.553   5.315   1.274 -0.0268  0.2275 -0.1522
   35MOL   H23534983   4.573   5.466   1.090  1.3486  0.2791 -0.8118
   35MOL   H23634984   4.742   5.560   1.392 -1.4378  0.7014  1.1742
   35MOL   H23734985   4.736   5.417   1.600  0.8633 -1.4492  0.0735
   35MOL   H23834986   4.563   5.079   1.579 -0.8588  1.1588 -2.2635
   35MOL   H23934987   4.703   4.942   1.721  2.3321 -2.1600  1.6117
   35MOL   H24034988   4.794   4.931   1.947 -2.9081 -1.7624 -0.4551
   35MOL   H24134989   4.797   5.033   2.170 -0.1797  0.5268 -0.0302
   35MOL   H24234990   4.853   5.132   2.377  1.0085 -0.9594 -1.1524
   35MOL   H24334991   5.020   5.266   2.497  0.9403 -1.3298  0.1785
   35MOL   H24434992   5.243   5.509   2.351 -2.5165  2.8842 -0.4984
   35MOL   H24534993   5.379   5.507   2.566 -1.5036  3.2040 -2.2915
   35MOL   H24634994   5.382   5.557   2.791 -1.1571  1.0433  0.9451
   35MOL   H24734995   5.245   5.513   3.022  0.3491  0.8841  0.5894
   35MOL   H24834996   5.071   5.523   2.999  0.3839  0.3125  2.2764
   35MOL   H24934997   4.947   5.563   2.788 -0.8524  1.0039 -3.2754
   35MOL   H25034998   4.948   5.511   2.555  0.3307 -0.6560 -0.3157
   35MOL   H25134999   5.126   5.478   2.149  1.2291 -0.2851  1.2784
   35MOL   H25235000   5.003   5.309   2.007  0.5820 -0.4992 -0.4846
   35MOL   H25335001   4.739   5.342   2.006 -3.2912 -1.1186  2.1379
   35MOL   H25435002   4.636   5.376   1.785 -2.0072  0.0598  0.5587
   35MOL   H25535003   4.501   5.138   1.377 -0.6210  0.0916  4.1514
   35MOL   H25635004   4.500   5.291   1.183 -0.5669  0.9985 -0.0482
   35MOL   N25735005   5.146   5.700   3.017  0.4801 -0.5404  0.4330
   35MOL   C25835006   5.244   5.803   3.000 -0.0489  0.2270  0.7331
   35MOL   C25935007   5.379   5.763   2.976  0.1276 -0.1641  0.6108
   35MOL   C26035008   5.476   5.861   2.946 -0.4894 -0.5410 -0.6839
   35MOL   C26135009   5.445   6.000   2.943  0.3402  0.4781 -1.2622
   35MOL   N26235010   5.553   6.086   2.930  0.2788  0.2182  0.4116
   35MOL   C26335011   5.559   6.219   2.893  0.1803  1.0303  0.9399
   35MOL   C26435012   5.479   6.281   2.792  0.6474  0.3764 -0.5866
   35MOL   C26535013   5.490   6.419   2.768 -0.0322  0.2878  0.9373
   35MOL   C26635014   5.590   6.491   2.823  0.0465  0.2774 -0.2973
   35MOL   N26735015   5.603   6.625   2.800  0.3266 -0.1471 -0.5583
   35MOL   C26835016   5.496   6.718   2.814  0.9476  0.6878  0.5859
   35MOL   C26935017   5.487   6.833   2.728 -0.0672  0.1325  0.6698
   35MOL   C27035018   5.375   6.914   2.744 -0.1592 -0.3778 -0.0443
   35MOL   C27135019   5.277   6.893   2.847 -0.7632 -0.4477  0.0912
   35MOL   N27235020   5.177   6.982   2.877  0.1305 -0.2445  1.0057
   35MOL   C27335021   5.094   7.045   2.788 -0.2300 -0.3474 -0.1210
   35MOL   C27435022   5.098   7.025   2.650 -0.8726 -0.2861  0.2747
   35MOL   C27535023   5.012   7.097   2.566  0.3119  0.5743  0.4659
   35MOL   C27635024   4.929   7.196   2.627 -0.0395  0.0831  0.4509
   35MOL   C27735025   4.849   7.287   2.540  0.7297 -0.2352 -0.0498
   35MOL   C27835026   4.923   7.211   2.766 -0.5248  0.3315 -0.5940
   35MOL   C27935027   4.995   7.127   2.852 -0.0238 -0.4107  1.0439
   35MOL   C28035028   5.298   6.787   2.938 -0.2739 -0.1911 -0.3958
   35MOL   C28135029   5.402   6.699   2.918 -0.9899  0.2497  0.2881
   35MOL   C28235030   5.674   6.429   2.919  0.0697  0.0452 -0.7054
   35MOL   C28335031   5.651   6.298   2.964  0.3980  0.0536 -0.3577
   35MOL   C28435032   5.307   6.036   2.968 -0.8272 -0.1975 -0.1751
   35MOL   C28535033   5.208   5.939   2.995  0.5246 -0.8440  0.4599
   35MOL   H28635034   5.054   5.740   3.010  0.1708 -0.2745  4.6620
   35MOL   H28735035   5.408   5.659   2.986 -0.2930 -0.2649  0.7987
   35MOL   H28835036   5.580   5.835   2.933 -0.2185 -0.3442  0.9773
   35MOL   H28935037   5.639   6.047   2.965  1.1365 -0.9299 -2.8245
   35MOL   H29035038   5.395   6.223   2.757 -0.3597  1.3259  0.2197
   35MOL   H29135039   5.425   6.477   2.705  1.0348  0.8586  0.3586
   35MOL   H29235040   5.661   6.646   2.720  2.1403  0.4173  0.8661
   35MOL   H29335041   5.561   6.862   2.654 -0.0813  0.1078  0.6460
   35MOL   H29435042   5.362   6.987   2.666  0.5419  0.3419  0.4996
   35MOL   H29535043   5.110   6.953   2.946 -0.1011  0.5405  1.1168
   35MOL   H29635044   5.165   6.953   2.607 -2.1876 -0.6755 -1.1850
   35MOL   H29735045   5.021   7.109   2.459 -1.7738  0.9968  0.3224
   35MOL   H29835046   4.779   7.333   2.608 -0.4760 -0.7895 -0.9033
   35MOL   H29935047   4.791   7.233   2.465 -0.2692  0.4995  0.1941
   35MOL   H30035048   4.856   7.280   2.815 -0.4969 -1.8196  2.6396
   35MOL   H30135049   4.979   7.125   2.958  0.3124 -1.5801  1.0775
   35MOL   H30235050   5.241   6.780   3.029  1.8208  0.2169  0.9927
   35MOL   H30335051   5.425   6.628   2.997 -2.3322  1.6945  2.0337
   35MOL   H30435052   5.760   6.477   2.963  0.3348  0.1045 -1.2760
   35MOL   H30535053   5.725   6.247   3.023 -1.2955 -1.3801  0.5820
   35MOL   H30635054   5.292   6.143   2.979 -1.6630 -0.4413  1.0903
   35MOL   H30735055   5.108   5.974   3.012  0.6145 -0.6958  0.6831
   35MOL   N30835056   4.934   7.388   2.472  0.1253 -0.5706 -0.1644
   35MOL   C30935057   4.876   7.473   2.375 -0.0462  0.3182  0.6886
   35MOL   C31035058   4.956   7.583   2.329  0.0667 -0.4497  0.4889
   35MOL   C31135059   4.889   7.690   2.256 -1.3297  0.4309 -1.0873
   35MOL   C31235060   4.760   7.669   2.213 -0.2603  0.5197  0.3550
   35MOL   N31335061   4.696   7.768   2.128  0.5608  0.2506  0.8257
   35MOL   C31435062   4.574   7.776   2.068  0.5837  0.7220 -0.0391
   35MOL   C31535063   4.518   7.663   2.005  0.8895  0.0891 -0.2484
   35MOL   C31635064   4.390   7.658   1.946 -0.2285  0.3464  0.0019
   35MOL   C31735065   4.320   7.780   1.937 -0.1114 -0.0884 -0.2350
   35MOL   N31835066   4.196   7.789   1.871  0.1699 -0.1816  0.1340
   35MOL   C31935067   4.166   7.840   1.744  0.1710 -1.1248 -0.6482
   35MOL   C32035068   4.232   7.951   1.680  0.0872  0.0154 -0.0991
   35MOL   C32135069   4.199   0.001   1.546  0.0510 -0.6746 -0.7984
   35MOL   C32235070   4.107   7.911   1.474 -0.2810 -0.1377  0.1241
   35MOL   N32335071   4.074   7.952   1.346 -0.4036  0.7268 -0.0979
   35MOL   C32435072   3.958   7.914   1.277  0.0829 -0.5921 -0.1056
   35MOL   C32535073   3.953   7.924   1.135 -0.3315  0.7718  0.2981
   35MOL   C32635074   3.836   7.890   1.063 -0.1136  0.0744  0.2186
   35MOL   C32735075   3.719   7.852   1.133 -0.4003  0.1501  0.0505
   35MOL   C32835076   3.594   7.810   1.043  0.1965 -0.0959 -0.0194
   35MOL   C32935077   3.718   7.847   1.276 -0.1472 -0.2697  0.1154
   35MOL   C33035078   3.839   7.874   1.341  0.5211 -0.1040 -0.1663
   35MOL   C33135079   4.049   7.797   1.533  0.2570 -0.0457 -0.3382
   35MOL   C33235080   4.070   7.767   1.671  0.6572 -0.5999 -0.0624
   35MOL   C33335081   4.380   7.898   1.991 -0.3291 -0.2491  0.0357
   35MOL   C33435082   4.501   7.893   2.060  0.2842 -0.4007 -0.0316
   35MOL   C33535083   4.689   7.549   2.249 -0.5431  0.2564  0.2083
   35MOL   C33635084   4.739   7.459   2.341 -0.1218 -0.1199  0.8014
   35MOL   H33735085   5.020   7.418   2.516 -0.4588  0.7582  0.0974
   35MOL   H33835086   5.060   7.596   2.356  0.2761  0.3257 -0.6465
   35MOL   H33935087   4.940   7.783   2.237 -0.0968 -0.0750 -0.3028
   35MOL   H34035088   4.746   7.855   2.123 -1.0431  1.0720 -1.4676
   35MOL   H34135089   4.575   7.572   1.992 -0.4244 -0.7688 -0.1818
   35MOL   H34235090   4.352   7.572   1.893  1.8255  0.2946 -1.4310
   35MOL   H34335091   4.137   7.710   1.893 -0.6393  0.7626  1.4444
   35MOL   H34435092   4.306   0.024   1.737  1.9311  0.3445 -2.7254
   35MOL   H34535093   4.244   0.086   1.497  0.3074 -0.5096 -0.2800
   35MOL   H34635094   4.154   0.016   1.305  0.6974  0.0100  1.1899
   35MOL   H34735095   4.033   7.971   1.081 -1.3618  3.2026  0.7987
   35MOL   H34835096   3.833   7.906   0.956 -2.4434 -0.8424  0.1271
   35MOL   H34935097   3.632   7.742   0.967 -0.2608  0.1277 -0.4501
   35MOL   H35035098   3.566   7.902   0.991 -0.1541 -1.5409 -2.4511
   35MOL   H35135099   3.632   7.826   1.338  1.1476 -0.8220  1.7291
   35MOL   H35235100   3.821   7.896   1.445  2.1881 -0.4747  0.2241
   35MOL   H35335101   3.982   7.733   1.477 -0.0331 -0.8522  0.9162
   35MOL   H35435102   4.016   7.687   1.718  2.0441 -0.4195  1.8851
   35MOL   H35535103   4.323   0.008   1.994  1.3267  0.7887  0.1272
   35MOL   H35635104   4.541   7.976   2.116 -3.1642 -0.3445  2.5200
   35MOL   H35735105   4.584   7.546   2.223 -0.3639 -0.9837 -0.3935
   35MOL   H35835106   4.669   7.389   2.384 -2.4556 -0.1396 -2.8231
   35MOL   N35935107   3.483   7.741   1.101  0.3273  0.1092 -0.7278
   35MOL   C36035108   3.403   7.823   1.176 -0.2296 -0.2959 -0.0826
   35MOL   C36135109   3.337   7.942   1.130  0.7299 -0.1115  0.9316
   35MOL   C36235110   3.268   0.041   1.223  0.1817 -0.3324  0.0708
   35MOL   C36335111   3.241   7.981   1.352  1.0905  0.1318 -0.3224
   35MOL   N36435112   3.147   0.062   1.431  0.2379 -0.0707 -0.4548
   35MOL   C36535113   3.121   0.197   1.453  0.1010 -0.1012  0.3199
   35MOL   C36635114   3.014   0.242   1.537  0.1150 -0.8167  0.7678
   35MOL   C36735115   2.984   0.383   1.554  0.0853 -0.4861 -1.0693
   35MOL   C36835116   3.070   0.473   1.493  0.1433 -0.1165  0.0224
   35MOL   N36935117   3.042   0.613   1.503 -0.2176  0.2102 -0.1777
   35MOL   C37035118   3.090   0.715   1.414 -0.0359  0.1721 -0.3975
   35MOL   C37135119   3.080   0.695   1.274  0.0881  0.1440 -0.1603
   35MOL   C37235120   3.142   0.788   1.186  0.6453 -0.2795 -0.0953
   35MOL   C37335121   3.205   0.904   1.239  0.6951  0.5679  0.0658
   35MOL   N37435122   3.268   0.997   1.156  0.4603  0.4090  0.1067
   35MOL   C37535123   3.260   1.024   1.018 -1.2257  0.0864 -0.0520
   35MOL   C37635124   3.377   1.074   0.953 -0.3842 -0.2434  0.6593
   35MOL   C37735125   3.367   1.118   0.821  0.8232 -0.6995  0.1450
   35MOL   C37835126   3.246   1.088   0.743 -0.5439 -0.6192  0.6267
   35MOL   C37935127   3.240   1.121   0.592 -0.9638  0.4309 -0.0826
   35MOL   C38035128   3.135   1.038   0.809  0.6197 -0.2093  0.0200
   35MOL   C38135129   3.138   1.004   0.948 -0.5025  0.3112  0.3529
   35MOL   C38235130   3.210   0.933   1.377  0.3483 -0.0750 -0.4387
   35MOL   C38335131   3.160   0.830   1.462 -0.1994  0.7405 -1.1926
   35MOL   C38435132   3.181   0.432   1.420 -0.1414  0.2603  0.1303
   35MOL   C38535133   3.205   0.296   1.399 -0.2093 -0.0638 -0.2969
   35MOL   C38635134   3.293   7.858   1.392 -0.5571 -0.7009 -0.5984
   35MOL   C38735135   3.380   7.783   1.311 -0.2391 -0.0990 -0.4160
   35MOL   H38835136   3.504   7.650   1.140 -1.5556  0.1568  0.5293
   35MOL   H38935137   3.336   7.963   1.024  1.9315 -1.1283  0.7056
   35MOL   H39035138   3.222   0.132   1.188 -1.7211 -2.0310 -2.0393
   35MOL   H39135139   3.094   0.002   1.493 -1.3660 -0.6758 -2.3677
   35MOL   H39235140   2.940   0.169   1.566 -1.5346  0.4292 -0.2478
   35MOL   H39335141   2.896   0.408   1.610 -2.1663 -0.5124 -4.4911
   35MOL   H39435142   3.019   0.640   1.597 -0.0561  1.2160 -0.4273
   35MOL   H39535143   3.036   0.605   1.233  1.3903 -0.8228  0.5405
   35MOL   H39635144   3.138   0.770   1.080 -1.4952 -2.4443  0.3101
   35MOL   H39735145   3.334   1.056   1.205 -0.4641  1.8380 -0.3400
   35MOL   H39835146   3.472   1.090   1.003 -1.2461  3.1434  1.3118
   35MOL   H39935147   3.454   1.168   0.781  1.6784 -1.4262  1.0515
   35MOL   H40035148   3.136   1.123   0.561 -0.7577  0.1462 -0.8017
   35MOL   H40135149   3.293   1.049   0.529  1.3721  1.4799  0.6286
   35MOL   H40235150   3.038   1.026   0.762  0.7183 -1.4432  0.1356
   35MOL   H40335151   3.050   0.969   1.001  0.0060 -2.4991 -0.5892
   35MOL   H40435152   3.275   1.013   1.408  0.0323  0.3536 -0.8665
   35MOL   H40535153   3.182   0.843   1.567  1.1545  0.8330 -1.4771
   35MOL   H40635154   3.244   0.498   1.363 -0.5047 -0.0189 -0.6044
   35MOL   H40735155   3.297   0.271   1.349  1.7514  1.5121  2.3810
   35MOL   H40835156   3.278   7.825   1.494 -0.2717 -0.7494 -0.5737
   35MOL   H40935157   3.415   7.690   1.354  0.5520 -0.0263 -0.8923
   35MOL   N41035158   3.284   1.262   0.573  0.0457  0.8008  0.3991
   35MOL   C41135159   3.399   1.296   0.497  0.3376  0.7428  0.6279
   35MOL   C41235160   3.456   1.418   0.532 -0.1883 -0.1554  0.4284
   35MOL   C41335161   3.558   1.464   0.449 -0.5322 -1.2720 -0.6483
   35MOL   C41435162   3.611   1.388   0.347 -0.2045 -1.0746  0.7609
   35MOL   N41535163   3.710   1.456   0.270  0.7019  0.4979 -0.2129
   35MOL   C41635164   3.795   1.396   0.179  0.0429 -0.4095 -0.5019
   35MOL   C41735165   3.825   1.461   0.059  0.2571  0.2531 -0.0574
   35MOL   C41835166   3.940   1.416   7.966  0.6383 -0.2974  0.1189
   35MOL   C41935167   4.000   1.292   0.015  0.7150 -0.3864  0.5555
   35MOL   N42035168   4.089   1.238   7.905  0.1925 -0.4535  0.4484
   35MOL   C42135169   4.205   1.175   7.943 -0.6167  0.3551  0.0398
   35MOL   C42235170   4.224   1.039   7.964 -0.2221  0.5276  0.0795
   35MOL   C42335171   4.340   0.982   0.032 -0.0858  0.3939  0.2064
   35MOL   C42435172   4.454   1.062   0.043  0.6262  0.3162 -0.2560
   35MOL   N42535173   4.570   1.005   0.095 -0.2082  0.4497  0.5371
   35MOL   C42635174   4.628   1.035   0.218 -0.1761 -0.6540 -0.5793
   35MOL   C42735175   4.756   0.979   0.246  0.4529  0.5138  1.1223
   35MOL   C42835176   4.817   1.010   0.366 -0.0736  0.1444 -0.1819
   35MOL   C42935177   4.743   1.076   0.470  0.6045 -0.0789 -0.8290
   35MOL   C43035178   4.809   1.110   0.609 -0.2825 -0.0443  0.7287
   35MOL   C43135179   4.609   1.108   0.450  0.4193 -0.3123 -0.5794
   35MOL   C43235180   4.552   1.104   0.322 -0.1305 -0.3598  0.1690
   35MOL   C43335181   4.443   1.203   0.012  0.4594  0.1666 -0.2947
   35MOL   C43435182   4.317   1.256   7.955  0.2903  0.2297 -0.0640
   35MOL   C43535183   3.964   1.222   0.132 -0.0515  0.6086  0.4632
   35MOL   C43635184   3.865   1.278   0.212  0.5395  0.7007  0.4730
   35MOL   C43735185   3.566   1.254   0.327 -0.7981 -0.3815 -0.1617
   35MOL   C43835186   3.455   1.211   0.399  0.2168 -0.0148  0.0208
   35MOL   H43935187   3.223   1.322   0.627 -2.5318 -0.8533 -0.5867
   35MOL   H44035188   3.416   1.478   0.613  0.1562  0.7177 -0.0406
   35MOL   H44135189   3.590   1.562   0.480  0.8809 -1.5373 -1.2713
   35MOL   H44235190   3.738   1.543   0.311  0.8773  1.2485 -1.9028
   35MOL   H44335191   3.780   1.557   0.038 -0.0248 -0.0825 -1.0470
   35MOL   H44435192   3.968   1.486   7.889  0.8109  0.0352  0.4823
   35MOL   H44535193   4.094   1.283   7.815  0.0999  0.4961  0.9126
   35MOL   H44635194   4.146   0.968   7.940 -0.6215  1.1362 -0.4299
   35MOL   H44735195   4.346   0.880   0.066  0.2946  1.0165  2.0526
   35MOL   H44835196   4.589   0.921   0.043  1.7464  1.4800 -0.4789
   35MOL   H44935197   4.819   0.927   0.176 -0.4665  0.9369 -0.0340
   35MOL   H45035198   4.925   1.000   0.368  0.1623  1.7759 -2.5684
   35MOL   H45135199   4.869   1.201   0.599 -1.5090  0.8361  1.3235
   35MOL   H45235200   4.881   1.031   0.627 -2.6995 -2.4685  0.0764
   35MOL   H45335201   4.554   1.145   0.535 -0.2273 -1.3270 -0.5449
   35MOL   H45435202   4.457   1.148   0.295 -0.8667 -1.2197  1.3305
   35MOL   H45535203   4.532   1.263   0.023  0.7196 -0.2242 -0.2286
   35MOL   H45635204   4.297   1.361   7.944  3.5218  0.6989 -1.8316
   35MOL   H45735205   4.002   1.122   0.147  0.6897  1.0920  1.8974
   35MOL   H45835206   3.837   1.216   0.295  0.2949 -0.8025 -0.7117
   35MOL   H45935207   3.611   1.191   0.252  3.0424  2.6510 -0.5473
   35MOL   H46035208   3.410   1.119   0.365 -2.1388  0.4315  1.8086
   35MOL   N46135209   4.722   1.132   0.722  0.1255  0.1331 -0.3408
   35MOL   C46235210   4.696   1.009   0.788  0.2844  0.6034 -0.3577
   35MOL   C46335211   4.572   0.943   0.778  0.1914  0.3390 -0.3680
   35MOL   C46435212   4.552   0.822   0.847  0.2916 -0.8677 -0.1514
   35MOL   C46535213   4.656   0.764   0.920 -0.4433  0.6228  0.2079
   35MOL   N46635214   4.628   0.643   0.980  0.4466  0.2560 -0.5784
   35MOL   C46735215   4.642   0.619   1.113 -0.2231  0.6858  0.1177
   35MOL   C46835216   4.712   0.506   1.155  0.1242  0.3442 -0.4553
   35MOL   C46935217   4.727   0.480   1.294  0.1311  0.1778  0.3967
   35MOL   C47035218   4.697   0.581   1.387  0.1190  0.2282  0.0202
   35MOL   N47135219   4.710   0.540   1.520 -0.9925 -0.7532  0.0093
   35MOL   C47235220   4.796   0.603   1.612  0.7446 -0.6040  0.0895
   35MOL   C47335221   4.779   0.571   1.749 -0.4861  0.2124 -0.0769
   35MOL   C47435222   4.862   0.639   1.842  0.1587 -0.2116 -0.1012
   35MOL   C47535223   4.967   0.724   1.795  0.5590 -0.3264  0.1081
   35MOL   N47635224   5.065   0.780   1.881 -0.3078  0.0115  0.0998
   35MOL   C47735225   5.086   0.750   2.012  0.3207 -0.0865  0.1194
   35MOL   C47835226   5.081   0.612   2.055 -0.0887 -0.2344 -1.1436
   35MOL   C47935227   5.115   0.582   2.191 -0.0204 -0.0613  0.2810
   35MOL   C48035228   5.155   0.688   2.276  0.1142  0.0097 -0.1371
   35MOL   C48135229   5.191   0.668   2.425  0.1060  0.2266 -0.1589
   35MOL   C48235230   5.156   0.822   2.229  0.2992  0.5332  0.3806
   35MOL   C48335231   5.126   0.850   2.094  0.0377 -0.3280  0.4734
   35MOL   C48435232   4.980   0.753   1.662 -0.1237 -0.5103  0.3599
   35MOL   C48535233   4.895   0.694   1.569 -0.9010 -0.5910  0.0378
   35MOL   C48635234   4.631   0.697   1.341  0.1617 -0.6185  0.3079
   35MOL   C48735235   4.599   0.708   1.208  0.2564  0.0654 -0.6130
   35MOL   C48835236   4.781   0.831   0.926  1.0614  0.4356  0.1822
   35MOL   C48935237   4.803   0.949   0.860  0.4164 -0.5498  0.5845
   35MOL   H49035238   4.637   1.180   0.695  0.5950  1.1044 -0.1367
   35MOL   H49135239   4.489   0.987   0.726 -0.2566  0.1360  0.1646
   35MOL   H49235240   4.453   0.779   0.858 -0.3154  0.7269  0.8225
   35MOL   H49335241   4.651   0.563   0.922 -1.4996 -0.0480 -0.9447
   35MOL   H49435242   4.745   0.431   1.085 -2.0483 -1.7438  0.6707
   35MOL   H49535243   4.775   0.388   1.322 -0.1151 -0.7368 -2.0488
   35MOL   H49635244   4.620   0.508   1.554 -0.7097  0.3112  1.8341
   35MOL   H49735245   4.702   0.503   1.783  1.6414 -1.8402  0.7822
   35MOL   H49835246   4.840   0.619   1.946  0.8527 -1.5658 -0.2084
   35MOL   H49935247   5.138   0.836   1.838  1.4844 -3.1287 -1.1572
   35MOL   H50035248   5.056   0.529   1.990  0.2966  1.3651 -3.4185
   35MOL   H50135249   5.116   0.478   2.222 -1.2607  0.1931  1.2145
   35MOL   H50235250   5.248   0.755   2.456  0.8583 -1.0389  2.1171
   35MOL   H50335251   5.251   0.579   2.442  0.2895  0.4348  0.2934
   35MOL   H50435252   5.182   0.906   2.293  0.3562 -0.5824  1.8398
   35MOL   H50535253   5.115   0.950   2.056 -0.6900  0.0819  1.7252
   35MOL   H50635254   5.067   0.803   1.623 -0.6189 -0.0861 -0.2230
   35MOL   H50735255   4.915   0.719   1.465 -0.4515  0.6230  0.4053
   35MOL   H50835256   4.618   0.782   1.408  0.1339 -1.1262  0.9502
   35MOL   H50935257   4.544   0.795   1.177  0.1821  0.7133  1.2392
   35MOL   H51035258   4.854   0.786   0.992  0.4724 -2.0620 -0.7784
   35MOL   H51135259   4.897   1.001   0.875  0.8828 -1.5962  1.3608
   35MOL   N51235260   5.066   0.657   2.511 -0.0787 -0.2332  0.1344
   35MOL   C51335261   4.989   0.541   2.508  0.3712 -0.5818 -0.6422
   35MOL   C51435262   4.846   0.547   2.546  0.1917  0.3078  0.2198
   35MOL   C51535263   4.764   0.428   2.541 -0.2297 -0.1081  0.0038
   35MOL   C51635264   4.828   0.304   2.521 -0.1166 -0.2018 -0.6893
   35MOL   N51735265   4.759   0.184   2.534 -0.4979 -0.0761 -0.1264
   35MOL   C51835266   4.816   0.063   2.581 -0.3017  0.0409 -0.0361
   35MOL   C51935267   4.786   0.021   2.708 -0.4745  0.2198 -0.8331
   35MOL   C52035268   4.845   7.889   2.766 -0.0583  0.2917  0.3082
   35MOL   C52135269   4.951   7.818   2.701  0.7175  0.3138  0.2221
   35MOL   N52235270   5.002   7.695   2.752  0.1549  0.0283 -0.2745
   35MOL   C52335271   5.111   7.633   2.697  0.4093  0.2322  0.8712
   35MOL   C52435272   5.119   7.491   2.698 -0.1804 -0.7335 -0.0406
   35MOL   C52535273   5.230   7.424   2.638 -0.0369  0.3552 -0.7377
   35MOL   C52635274   5.340   7.497   2.590 -0.1208 -0.4696 -0.1580
   35MOL   N52735275   5.449   7.417   2.537  0.0825 -0.5634  0.2400
   35MOL   C52835276   5.586   7.454   2.530 -0.2648 -0.3919  0.0132
   35MOL   C52935277   5.653   7.381   2.433 -0.2853  0.2448 -0.4984
   35MOL   C53035278   5.789   7.409   2.412  0.0352 -0.3224 -0.1465
   35MOL   C53135279   5.851   7.500   2.494 -0.2061  0.4134  0.4362
   35MOL   C53235280   5.999   7.531   2.463  0.1253  0.2448 -0.3420
   35MOL   C53335281   5.777   7.571   2.597  0.4736  0.2489 -0.1727
   35MOL   C53435282   5.641   7.545   2.617  0.7139 -0.0076 -0.2757
   35MOL   C53535283   5.337   7.639   2.596  0.0467  0.3113  0.7778
   35MOL   C53635284   5.228   7.707   2.658 -0.6701  0.8727 -0.2734
   35MOL   C53735285   4.967   7.851   2.562 -0.1700 -0.2170 -0.1735
   35MOL   C53835286   4.910   7.969   2.505  0.5563  0.1689  0.3127
   35MOL   C53935287   4.964   0.301   2.485  0.3617 -0.1115  0.8624
   35MOL   C54035288   5.039   0.419   2.471 -0.9191 -0.4142 -0.1426
   35MOL   H54135289   5.018   0.745   2.510  0.1718 -0.0842 -1.5819
   35MOL   H54235290   4.800   0.636   2.585  0.7505  0.4051  0.6748
   35MOL   H54335291   4.660   0.433   2.568 -0.1281  1.2292  0.1872
   35MOL   H54435292   4.668   0.207   2.572 -0.1288 -0.0349  0.7512
   35MOL   H54535293   4.716   0.074   2.771 -1.2742 -0.2113 -1.3578
   35MOL   H54635294   4.809   7.859   2.863 -0.3602 -0.3300  0.0075
   35MOL   H54735295   4.989   7.666   2.847 -0.9286  0.9219 -0.1387
   35MOL   H54835296   5.046   7.431   2.749 -0.7853 -0.0766 -0.1168
   35MOL   H54935297   5.227   7.316   2.629  1.5463  0.4960 -3.3499
   35MOL   H55035298   5.425   7.327   2.497 -1.0985 -0.0714 -0.1668
   35MOL   H55135299   5.608   7.303   2.373 -0.7771  0.2048 -0.0841
   35MOL   H55235300   5.835   7.353   2.332  1.6369  0.6026  0.1032
   35MOL   H55335301   6.045   7.439   2.426  1.4472  0.1495  1.4663
   35MOL   H55435302   6.047   7.551   2.559 -0.7395 -2.9735  0.8294
   35MOL   H55535303   5.832   7.616   2.679 -0.9571  0.6085  0.5999
   35MOL   H55635304   5.596   7.580   2.709 -0.3707 -2.1210  0.0362
   35MOL   H55735305   5.414   7.705   2.558 -2.9131  2.8764 -0.8985
   35MOL   H55835306   5.223   7.815   2.660 -1.5465  0.8295  0.4404
   35MOL   H55935307   5.034   7.794   2.499  1.5901  1.6194  0.0095
   35MOL   H56035308   4.922   0.012   2.400 -0.1054  0.2788  0.2581
   35MOL   H56135309   5.018   0.208   2.472 -0.4928 -0.2292 -2.5688
   35MOL   H56235310   5.139   0.413   2.431 -1.2206  1.7175 -1.2822
   35MOL   N56335311   6.018   7.636   2.362 -0.3871 -0.1695 -0.1671
   35MOL   C56435312   5.957   7.760   2.396 -0.3332  1.0045  1.0056
   35MOL   C56535313   5.840   7.807   2.325  0.5184  0.3102  0.4723
   35MOL   C56635314   5.782   7.929   2.368 -0.1367 -0.4544  0.5573
   35MOL   C56735315   5.821   0.020   2.485 -0.0859  0.9882  0.9993
   35MOL   N56835316   5.749   0.131   2.535  0.3078  1.1384  0.5646
   35MOL   C56935317   5.793   0.226   2.629  0.1944 -0.3360  0.0672
   35MOL   C57035318   5.924   0.282   2.601 -0.1212 -0.3118 -0.3721
   35MOL   C57135319   5.955   0.402   2.674 -0.1438 -0.0851  0.1553
   35MOL   C57235320   5.866   0.444   2.773 -0.1880 -0.7121  0.6380
   35MOL   N57335321   5.888   0.569   2.832  0.6641 -0.3070 -0.6619
   35MOL   C57435322   5.806   0.681   2.817  0.0382  0.2346 -0.4699
   35MOL   C57535323   5.845   0.798   2.880 -0.1032 -0.3585  0.1401
   35MOL   C57635324   5.770   0.916   2.867 -0.2526  0.8227 -0.0302
   35MOL   C57735325   5.646   0.914   2.793  0.0390 -0.0550 -0.7078
   35MOL   N57835326   5.569   1.032   2.801  0.3946  0.5229  0.3751
   35MOL   C57935327   5.447   1.070   2.736  0.1724 -0.0247 -0.9083
   35MOL   C58035328   5.363   1.159   2.803  0.4833 -0.5892 -0.7002
   35MOL   C58135329   5.235   1.192   2.745  0.6594  0.1617  0.5803
   35MOL   C58235330   5.205   1.142   2.613  0.0286 -0.1840 -0.5988
   35MOL   C58335331   5.073   1.167   2.548  0.3308  0.0168 -0.2363
   35MOL   C58435332   5.293   1.048   2.551  0.8096 -0.0713  0.2603
   35MOL   C58535333   5.418   1.023   2.609  0.1843 -0.2421  0.8365
   35MOL   C58635334   5.609   0.792   2.730  0.6340 -0.0616  0.3719
   35MOL   C58735335   5.695   0.681   2.734  0.6417  0.7520  0.0033
   35MOL   C58835336   5.744   0.377   2.808 -0.4800 -0.8569  0.2668
   35MOL   C58935337   5.704   0.264   2.735 -0.4358  0.6879 -0.1843
   35MOL   C59035338   5.934   7.944   2.556 -0.6262 -0.2860  0.1365
   35MOL   C59135339   6.008   7.829   2.513 -0.7914  0.0480 -0.2178
   35MOL   H59235340   5.995   7.600   2.270  2.2006 -1.2581 -0.4301
   35MOL   H59335341   5.808   7.763   2.231  1.0141  3.0518 -1.0359
   35MOL   H59435342   5.721   7.977   2.292 -2.2969 -1.5176  1.5743
   35MOL   H59535343   5.648   0.123   2.539  0.1121  1.1626 -2.9181
   35MOL   H59635344   5.981   0.265   2.511 -0.1850 -0.0409 -0.4661
   35MOL   H59735345   6.047   0.452   2.647  0.0678 -0.6788 -0.2334
   35MOL   H59835346   5.982   0.604   2.818  1.9798 -2.5365  2.0485
   35MOL   H59935347   5.935   0.805   2.939 -0.6437 -1.7059  1.1399
   35MOL   H60035348   5.804   1.002   2.923 -0.0625  1.7650 -1.5840
   35MOL   H60135349   5.577   1.084   2.888 -0.1898  0.6734  0.3473
   35MOL   H60235350   5.375   1.199   2.903  2.2344 -0.2031 -1.0442
   35MOL   H60335351   5.158   1.254   2.788  0.6812  1.0574 -0.6700
   35MOL   H60435352   5.056   1.274   2.557 -1.6425 -0.4102  1.5653
   35MOL   H60535353   5.000   1.112   2.608  1.6480 -0.7545  0.6729
   35MOL   H60635354   5.276   1.006   2.453  0.9816  0.9119 -0.2014
   35MOL   H60735355   5.480   0.971   2.539 -0.6627  0.7547 -0.6811
   35MOL   H60835356   5.514   0.791   2.679  0.0535  0.3294  1.4173
   35MOL   H60935357   5.660   0.593   2.683 -0.7735  1.9301 -1.1180
   35MOL   H61035358   5.679   0.422   2.881 -2.0525 -1.7706 -0.5614
   35MOL   H61135359   5.611   0.212   2.751 -0.9993  0.5457 -3.5308
   35MOL   H61235360   5.975   0.007   2.645 -2.3589  0.0595  0.7677
   35MOL   H61335361   6.093   7.803   2.574 -0.7550  0.8608  0.0765
   35MOL   N61435362   5.053   1.118   2.414 -0.1438  0.1620  0.1539
   35MOL   C61535363   4.941   1.161   2.343 -0.0447 -0.1909  0.1332
   35MOL   C61635364   4.882   1.069   2.251  0.2316  0.4417 -1.1126
   35MOL   C61735365   4.760   1.092   2.194  0.1090  0.5488  0.0200
   35MOL   C61835366   4.690   1.208   2.224 -0.0982 -0.1175 -0.6191
   35MOL   N61935367   4.574   1.228   2.151  0.6322  0.2406  0.1539
   35MOL   C62035368   4.474   1.328   2.152 -0.3695 -0.7529  0.3605
   35MOL   C62135369   4.406   1.374   2.034 -0.0995 -0.1078  0.3333
   35MOL   C62235370   4.305   1.475   2.041 -0.5091  0.1354 -0.0671
   35MOL   C62335371   4.277   1.532   2.168  0.3260 -0.2931 -0.7518
   35MOL   N62435372   4.188   1.636   2.172  0.1602 -0.0729  0.0986
   35MOL   C62535373   4.148   1.714   2.282 -0.2197  0.9382  1.0835
   35MOL   C62635374   4.079   1.654   2.391  0.5960 -0.0737  0.1402
   35MOL   C62735375   4.060   1.734   2.507  0.0564  0.3820  0.2341
   35MOL   C62835376   4.094   1.872   2.508 -0.4441 -0.4394 -0.2520
   35MOL   N62935377   4.068   1.961   2.614 -0.3475 -0.8782  0.1434
   35MOL   C63035378   4.065   1.937   2.751 -0.5646  0.3958 -0.6081
   35MOL   C63135379   4.142   1.843   2.824 -0.5396  0.1479  0.8085
   35MOL   C63235380   4.150   1.842   2.960  0.2127 -0.2659  0.3476
   35MOL   C63335381   4.072   1.931   3.036 -0.7488 -0.3323  0.6717
   35MOL   C63435382   4.089   1.945   3.184 -0.1158  0.1762 -0.4024
   35MOL   C63535383   3.991   2.019   2.966 -0.0031  0.0341 -0.7279
   35MOL   C63635384   3.985   2.023   2.827 -0.2203  0.9054  1.1489
   35MOL   C63735385   4.157   1.926   2.392 -0.1294  0.5134 -0.2891
   35MOL   C63835386   4.172   1.853   2.274 -0.9273  0.0150 -0.0951
   35MOL   C63935387   4.339   1.487   2.285 -0.2038  0.0987 -0.2913
   35MOL   C64035388   4.436   1.384   2.277 -0.1070 -0.2163  0.1826
   35MOL   C64135389   4.747   1.308   2.306  0.5103  0.0462 -0.0069
   35MOL   C64235390   4.868   1.284   2.371 -0.5079 -0.1568  0.2881
   35MOL   H64335391   5.068   1.019   2.403  1.3095  0.4995 -1.0454
   35MOL   H64435392   4.940   0.981   2.229  1.6012  1.3256 -1.1124
   35MOL   H64535393   4.722   1.024   2.120  1.2641 -0.5744  0.4486
   35MOL   H64635394   4.561   1.175   2.066  1.0128 -1.1240  0.9276
   35MOL   H64735395   4.418   1.324   1.940 -1.5009 -0.2020  0.1964
   35MOL   H64835396   4.242   1.493   1.955 -2.0204  0.9928  1.1942
   35MOL   H64935397   4.186   1.687   2.085  0.3295 -2.0399 -1.0860
   35MOL   H65035398   4.054   1.549   2.391 -1.5826  0.3881  3.4392
   35MOL   H65135399   4.006   1.690   2.590 -0.9891  0.3066 -0.4869
   35MOL   H65235400   4.109   2.050   2.591 -1.8686  0.3420  2.0626
   35MOL   H65335401   4.203   1.772   2.771  0.1237  1.2430  0.0864
   35MOL   H65435402   4.212   1.771   3.014  1.7866  0.6893 -0.1478
   35MOL   H65535403   4.116   1.849   3.228  1.0077  0.5814 -0.1945
   35MOL   H65635404   3.993   1.970   3.227 -0.4190 -1.1510 -0.2952
   35MOL   H65735405   3.934   2.094   3.019  1.2787  0.4228  0.1401
   35MOL   H65835406   3.922   2.096   2.778 -1.0156 -1.1171 -0.9665
   35MOL   H65935407   4.183   2.030   2.390  0.6052  0.3341 -0.4258
   35MOL   H66035408   4.218   1.902   2.190 -1.2388  0.6947  0.1180
   35MOL   H66135409   4.306   1.528   2.379 -2.4230  1.6383 -1.7150
   35MOL   H66235410   4.466   1.354   2.376  1.9953  1.7444  0.1557
   35MOL   H66335411   4.690   1.399   2.316 -1.5283 -0.9917 -1.8260
   35MOL   H66435412   4.900   1.348   2.451  1.3366 -0.3861 -0.2410
   35MOL   N66535413   4.190   2.039   3.209 -0.2733 -0.6015 -0.3285
   35MOL   C66635414   4.246   2.077   3.333  0.0761  0.2993 -0.4336
   35MOL   C66735415   4.175   2.051   3.452 -0.4352  0.4617 -0.0109
   35MOL   C66835416   4.224   2.090   3.577 -0.1956 -0.5922 -0.1758
   35MOL   C66935417   4.343   2.157   3.588 -0.1370  0.2375 -0.9515
   35MOL   N67035418   4.384   2.190   3.721  0.3874 -1.0187 -0.1711
   35MOL   C67135419   4.448   2.111   3.819  0.2349  0.2036  0.2495
   35MOL   C67235420   4.454   1.971   3.802 -0.2929 -0.1870 -0.1752
   35MOL   C67335421   4.517   1.891   3.899  0.0050 -0.3708  0.2707
   35MOL   C67435422   4.576   1.955   4.010 -0.0329 -0.6947 -0.0480
   35MOL   N67535423   4.633   1.890   4.122 -0.1064  0.0926  0.3680
   35MOL   C67635424   4.635   1.750   4.125 -0.0206 -0.5434 -0.1309
   35MOL   C67735425   4.561   1.683   4.222 -0.4107  0.3494 -0.7330
   35MOL   C67835426   4.568   1.545   4.227  0.1513  0.1771 -0.9018
   35MOL   C67935427   4.649   1.469   4.135 -0.6055  0.1476 -0.9733
   35MOL   N68035428   4.648   1.332   4.156 -0.4302 -0.5223  0.2020
   35MOL   C68135429   4.594   1.263   4.264 -0.0813  0.3033  0.1659
   35MOL   C68235430   4.499   1.160   4.249 -0.1158 -0.9868  0.2372
   35MOL   C68335431   4.448   1.086   4.361 -0.4518 -0.3464  0.3067
   35MOL   C68435432   4.505   1.118   4.479 -0.2423 -0.4235  0.2964
   35MOL   C68535433   4.457   1.054   4.606 -0.2059  0.0179  0.5911
   35MOL   C68635434   4.610   1.216   4.499 -0.5053  0.1718  0.1337
   35MOL   C68735435   4.649   1.293   4.391  0.0791 -0.6679 -0.2729
   35MOL   C68835436   4.721   1.538   4.036  0.3977  0.1419 -0.1390
   35MOL   C68935437   4.716   1.681   4.039  0.6412  0.2525  0.6184
   35MOL   C69035438   4.577   2.096   4.022 -0.0889 -0.4936 -0.3174
   35MOL   C69135439   4.504   2.170   3.933  0.1431 -0.2563  0.2141
   35MOL   C69235440   4.416   2.197   3.471  0.2821  0.7779 -0.7978
   35MOL   C69335441   4.360   2.163   3.341 -0.7723 -0.1469 -0.4592
   35MOL   H69435442   4.239   2.092   3.138  0.6068 -1.0513 -0.0636
   35MOL   H69535443   4.084   1.995   3.441  0.1400 -0.2403 -1.3742
   35MOL   H69635444   4.151   2.079   3.656 -0.7156 -1.2987 -0.7532
   35MOL   H69735445   4.395   2.289   3.736  0.3107 -1.2849  1.7676
   35MOL   H69835446   4.410   1.915   3.721 -2.6293  1.8291 -0.3813
   35MOL   H69935447   4.513   1.783   3.895 -0.5938 -0.3338 -0.2674
   35MOL   H70035448   4.643   1.940   4.209 -1.4705  1.4249 -0.2238
   35MOL   H70135449   4.493   1.740   4.282 -0.9269 -2.3778  1.4097
   35MOL   H70235450   4.507   1.501   4.304 -1.1214  1.9110 -0.8770
   35MOL   H70335451   4.639   1.277   4.072 -0.0648 -2.8478  1.6523
   35MOL   H70435452   4.463   1.142   4.148  0.9789  1.2549 -0.5980
   35MOL   H70535453   4.371   1.011   4.355  1.1531 -2.1022  1.2607
   35MOL   H70635454   4.537   1.036   4.678 -0.1930 -2.1989  0.0744
   35MOL   H70735455   4.435   0.952   4.572 -0.7374  0.2082  0.3588
   35MOL   H70835456   4.643   1.240   4.599 -0.8916  2.5607 -0.2852
   35MOL   H70935457   4.723   1.372   4.390  1.8484 -2.2803 -2.4056
   35MOL   H71035458   4.767   1.491   3.950 -2.3335 -1.2202 -0.8946
   35MOL   H71135459   4.762   1.729   3.953  0.5999 -0.5039  0.1721
   35MOL   H71235460   4.627   2.140   4.107  1.7697  0.1786 -1.7251
   35MOL   H71335461   4.498   2.277   3.944  0.0619 -0.1406 -0.8574
   35MOL   H71435462   4.506   2.257   3.473  0.2912  0.7486 -0.2318
   35MOL   H71535463   4.403   2.195   3.247 -0.4365 -0.8177 -0.5346
   35MOL   N71635464   4.351   1.134   4.672 -0.2419  0.7260  0.1206
   35MOL   C71735465   4.300   1.075   4.783 -0.2136  0.1278 -0.0188
   35MOL   C71835466   4.381   1.038   4.888  0.0710  0.2978  0.3487
   35MOL   C71935467   4.335   1.000   5.010  0.5045 -0.1332 -0.4572
   35MOL   C72035468   4.195   0.976   5.022 -0.4060  0.3182  0.0039
   35MOL   N72135469   4.142   0.922   5.140  0.7446 -0.5071  0.3028
   35MOL   C72235470   4.211   0.880   5.254  0.0960  1.4518  0.5928
   35MOL   C72335471   4.198   0.751   5.297 -0.5118 -0.1777 -0.1289
   35MOL   C72435472   4.257   0.708   5.420 -0.4906  0.4182 -0.3090
   35MOL   C72535473   4.331   0.804   5.493 -0.5464  0.0211  0.7187
   35MOL   N72635474   4.410   0.771   5.603 -0.2413 -0.1951 -0.1866
   35MOL   C72735475   4.412   0.658   5.686 -0.3143  0.3747  0.3657
   35MOL   C72835476   4.295   0.576   5.707 -0.4600 -0.8899 -0.1262
   35MOL   C72935477   4.308   0.456   5.777  0.2912  0.2770  0.6416
   35MOL   C73035478   4.436   0.408   5.822 -0.8668  0.1490 -0.0164
   35MOL   N73135479   4.441   0.277   5.878  0.0459 -0.5348 -0.9940
   35MOL   C73235480   4.532   0.233   5.976  0.2296  0.2961 -0.1683
   35MOL   C73335481   4.651   0.183   5.927  0.3303 -0.3938  0.6683
   35MOL   C73435482   4.751   0.151   6.019 -0.5814 -0.1795  0.0773
   35MOL   C73535483   4.727   0.151   6.160 -0.5240 -0.1479  0.2953
   35MOL   C73635484   4.831   0.102   6.255  0.0998  0.3932 -0.3437
   35MOL   C73735485   4.606   0.206   6.212  0.3461 -0.0032  0.2523
   35MOL   C73835486   4.503   0.243   6.117 -0.2579  0.2061 -0.3973
   35MOL   C73935487   4.547   0.488   5.805  0.2913 -0.1799 -1.1019
   35MOL   C74035488   4.537   0.610   5.738 -0.6915 -0.1068 -0.7098
   35MOL   C74135489   4.334   0.939   5.449  0.5652  0.5101 -0.0893
   35MOL   C74235490   4.280   0.975   5.328  0.0909  0.4528  0.0193
   35MOL   C74335491   4.106   1.014   4.916  0.5750  0.2458 -0.2605
   35MOL   C74435492   4.157   1.073   4.796  0.2303 -0.4357  0.4469
   35MOL   H74535493   4.275   1.157   4.610  0.1284  0.6252 -0.3663
   35MOL   H74635494   4.486   1.062   4.881 -0.0901  1.0447  0.4719
   35MOL   H74735495   4.411   0.973   5.082 -1.0313 -1.0012  0.8632
   35MOL   H74835496   4.061   0.865   5.122  0.4468 -0.0267  0.1134
   35MOL   H74935497   4.147   0.678   5.237  0.7072  0.3134 -1.7808
   35MOL   H75035498   4.255   0.604   5.448  0.0800  0.5901  0.3825
   35MOL   H75135499   4.453   0.856   5.636 -0.4773 -0.2948  0.3926
   35MOL   H75235500   4.201   0.604   5.663 -0.6357  0.8995  1.3278
   35MOL   H75335501   4.214   0.411   5.804 -0.4791  2.3384  1.5112
   35MOL   H75435502   4.348   0.251   5.907  0.0424 -0.0132 -0.5455
   35MOL   H75535503   4.668   0.159   5.823  0.3049  1.5063  0.2015
   35MOL   H75635504   4.846   0.110   5.988 -1.3357 -0.9840 -1.2178
   35MOL   H75735505   4.868   0.177   6.324 -2.1476 -0.0487  1.4390
   35MOL   H75835506   4.922   0.085   6.197  0.2832  0.8112 -0.1714
   35MOL   H75935507   4.595   0.204   6.320 -0.6766  1.0490  0.1756
   35MOL   H76035508   4.410   0.288   6.149  0.3277 -0.3667  2.3049
   35MOL   H76135509   4.642   0.465   5.851  0.0638 -1.7977 -1.4150
   35MOL   H76235510   4.630   0.657   5.709 -0.7679 -0.1379 -1.0133
   35MOL   H76335511   4.377   1.021   5.506 -1.6046  1.8159 -0.2566
   35MOL   H76435512   4.291   1.070   5.278 -0.6884  0.8078  0.5159
   35MOL   H76535513   4.000   0.996   4.928  0.7631  0.3346  1.7135
   35MOL   H76635514   4.092   1.099   4.714  0.3130 -0.2684  0.4339
   35MOL   N76735515   4.792   7.958   6.321  0.8886  0.1181 -0.0676
   35MOL   C76835516   4.874   7.890   6.409  0.6313  0.7360  0.2366
   35MOL   C76935517   5.001   7.932   6.441  0.2116 -0.3980  0.6269
   35MOL   C77035518   5.079   7.861   6.534  0.2032 -0.3055 -0.3032
   35MOL   C77135519   5.028   7.740   6.585 -0.2047 -0.9659  0.6378
   35MOL   N77235520   5.091   7.672   6.691  0.0378 -0.2463 -0.2473
   35MOL   C77335521   5.216   7.694   6.748 -0.4099 -0.1940 -0.2559
   35MOL   C77435522   5.235   7.810   6.827 -0.6336  0.5292  0.7718
   35MOL   C77535523   5.359   7.824   6.892  0.1796 -0.0515 -0.0655
   35MOL   C77635524   5.467   7.734   6.870 -0.1546 -0.1865  0.3856
   35MOL   N77735525   5.591   7.745   6.935  0.2222 -0.2323 -0.0230
   35MOL   C77835526   5.718   7.731   6.888  0.6852  0.2278  0.9087
   35MOL   C77935527   5.751   7.769   6.759  0.6166  0.8122 -0.2876
   35MOL   C78035528   5.883   7.769   6.714 -0.3599  0.4501  0.1396
   35MOL   C78135529   5.985   7.722   6.797 -0.2505  0.2024 -0.1582
   35MOL   N78235530   6.118   7.712   6.755 -0.4844 -0.2835  0.0048
   35MOL   C78335531   6.221   7.801   6.779  0.3131 -0.1332 -0.0560
   35MOL   C78435532   6.194   7.904   6.867 -0.6493  0.1696  0.0109
   35MOL   C78535533   6.298   0.013   6.908  0.4689 -0.9061  0.1044
   35MOL   C78635534   6.428   0.001   6.852 -1.0900 -0.3314 -0.0884
   35MOL   C78735535   6.538   0.102   6.890 -0.0978 -0.4407  0.0980
   35MOL   C78835536   6.457   7.878   6.761  0.3017  0.5864  0.0961
   35MOL   C78935537   6.350   7.792   6.718 -0.3426  0.4797 -0.2217
   35MOL   C79035538   5.950   7.667   6.916  0.8727 -0.4205 -0.4442
   35MOL   C79135539   5.821   7.667   6.964  0.2142  0.6056  0.8735
   35MOL   C79235540   5.445   7.622   6.786 -0.5445  0.0327 -0.6252
   35MOL   C79335541   5.320   7.596   6.730 -1.0021 -0.6148 -1.0084
   35MOL   C79435542   4.900   7.695   6.550 -0.6634 -0.4320 -0.4342
   35MOL   C79535543   4.822   7.770   6.461  0.0033 -0.0164  0.1567
   35MOL   H79635544   4.695   7.955   6.346  0.7125 -0.0050 -0.7450
   35MOL   H79735545   5.047   0.037   6.396 -0.3657  0.5574  1.8311
   35MOL   H79835546   5.175   7.903   6.557 -0.8452  1.9769  0.0458
   35MOL   H79935547   5.055   7.578   6.693 -1.9315  0.4910  0.1030
   35MOL   H80035548   5.162   7.889   6.843 -2.6309 -1.6068  2.4804
   35MOL   H80135549   5.382   7.906   6.958 -2.8549  0.7559  0.0748
   35MOL   H80235550   5.594   7.820   7.003 -0.3408 -0.4590  0.2534
   35MOL   H80335551   5.678   7.797   6.685 -0.1764  0.4702  0.3626
   35MOL   H80435552   5.906   7.822   6.622  0.7791 -1.2187 -0.5654
   35MOL   H80535553   6.130   7.648   6.678 -1.2528  1.1289 -1.3292
   35MOL   H80635554   6.093   7.908   6.906 -1.2399 -1.7488 -1.2466
   35MOL   H80735555   6.277   0.103   6.964  1.4193  0.7643 -2.1187
   35MOL   H80835556   6.606   0.118   6.806  0.0371  2.4785  0.7057
   35MOL   H80935557   6.591   0.048   6.968 -2.6012  2.0889  3.6606
   35MOL   H81035558   6.554   7.855   6.720 -1.1562 -3.0483 -1.5269
   35MOL   H81135559   6.360   7.713   6.645 -3.1109 -0.6605  0.5761
   35MOL   H81235560   6.027   7.619   6.974  1.5977  0.7763 -0.3972
   35MOL   H81335561   5.806   7.622   7.061 -1.4973  0.2424  0.4498
   35MOL   H81435562   5.514   7.539   6.776  1.5079  1.7847 -1.4249
   35MOL   H81535563   5.302   7.509   6.669  2.4255 -1.3375 -1.1034
   35MOL   H81635564   4.858   7.608   6.598 -1.6391 -0.5925 -1.5699
   35MOL   H81735565   4.722   7.734   6.442 -0.1166  1.5398 -2.3327
   35MOL   N81835566   6.496   0.240   6.928 -0.1194 -0.1733  0.0545
   35MOL   C81935567   6.487   0.288   7.055 -0.4929  0.4747  0.0528
   35MOL   C82035568   6.486   0.200   7.167  0.2687  0.8115  0.5150
   35MOL   C82135569   6.468   0.244   7.300  0.2916  0.4458  0.1812
   35MOL   C82235570   6.454   0.384   7.326  0.7032 -0.2220  0.4921
   35MOL   N82335571   6.427   0.426   7.454 -0.2011  0.0802  0.1019
   35MOL   C82435572   6.383   0.549   7.502  0.1767 -0.0839  0.9977
   35MOL   C82535573   6.437   0.596   7.617 -1.0407  0.5859 -0.4703
   35MOL   C82635574   6.399   0.717   7.670 -0.2753 -0.2020  0.5471
   35MOL   C82735575   6.291   0.793   7.615 -0.5945 -0.0192 -0.1715
   35MOL   N82835576   6.248   0.914   7.668  0.0946 -0.2776  0.2290
   35MOL   C82935577   6.124   0.980   7.646 -0.1791 -0.7213 -0.1248
   35MOL   C83035578   6.120   1.122   7.661 -0.7026  0.2252  0.4887
   35MOL   C83135579   5.997   1.182   7.640 -0.6688  0.4189  0.0254
   35MOL   C83235580   5.870   1.111   7.620 -0.5408 -0.0391  0.2424
   35MOL   N83335581   5.759   1.187   7.578 -0.1969  0.4297 -0.2675
   35MOL   C83435582   5.688   1.291   7.645  0.2007 -0.1675 -0.2604
   35MOL   C83535583   5.715   1.325   7.780 -0.8803 -0.4731  0.8861
   35MOL   C83635584   5.642   1.433   7.833  0.0281  0.8941 -0.0806
   35MOL   C83735585   5.529   1.491   7.771 -0.2979 -0.5120 -0.3281
   35MOL   C83835586   5.444   1.582   7.852 -0.4380  0.1496 -1.1253
   35MOL   C83935587   5.497   1.452   7.641  0.2549  1.1633 -0.0246
   35MOL   C84035588   5.577   1.353   7.581 -0.2055  0.3820  0.1449
   35MOL   C84135589   5.878   0.975   7.606 -0.6819  0.0692 -0.6346
   35MOL   C84235590   6.000   0.907   7.624 -0.3762 -0.5504  0.0582
   35MOL   C84335591   6.245   0.746   7.491  0.2484 -0.2754  0.8462
   35MOL   C84435592   6.295   0.628   7.437 -0.5484  0.3810 -0.0558
   35MOL   C84535593   6.464   0.468   7.215  0.6763  0.2894  0.2713
   35MOL   C84635594   6.489   0.427   7.083  0.0585 -0.2677  0.7013
   35MOL   H84735595   6.466   0.299   6.851  0.4335 -0.2410 -0.2133
   35MOL   H84835596   6.476   0.093   7.154  1.8261  0.8514 -1.1697
   35MOL   H84935597   6.448   0.172   7.378  0.0375 -0.3467 -0.5954
   35MOL   H85035598   6.486   0.373   7.517  0.1058 -0.5852 -0.7249
   35MOL   H85135599   6.508   0.536   7.672  1.2176  1.8595 -1.8864
   35MOL   H85235600   6.431   0.754   7.766 -2.2601  3.1315 -0.0125
   35MOL   H85335601   6.306   0.965   7.732  1.5691  1.2308 -2.2086
   35MOL   H85435602   6.198   1.192   7.687 -0.2851  0.7793 -2.1474
   35MOL   H85535603   5.993   1.290   7.640  1.0695  0.4959 -0.6556
   35MOL   H85635604   5.694   1.133   7.522  0.9906 -0.1816 -1.0651
   35MOL   H85735605   5.802   1.282   7.829 -0.7864  1.8454  2.7959
   35MOL   H85835606   5.676   1.474   7.927  2.3130  1.8960 -1.2828
   35MOL   H85935607   5.346   1.580   7.803 -0.1289  2.0127 -1.8728
   35MOL   H86035608   5.485   1.683   7.846 -0.6535  0.5220  2.8422
   35MOL   H86135609   5.408   1.478   7.586  0.1441 -0.4553 -0.6256
   35MOL   H86235610   5.550   1.323   7.481  2.7688 -0.0510 -0.5920
   35MOL   H86335611   5.783   0.931   7.582 -1.5828  2.0420 -0.7094
   35MOL   H86435612   6.008   0.800   7.611  0.2940 -0.4678 -0.2310
   35MOL   H86535613   6.177   0.812   7.438 -0.3550  0.0640  2.0195
   35MOL   H86635614   6.264   0.606   7.336  0.1158  0.5613 -0.3002
   35MOL   H86735615   6.457   0.575   7.231 -2.8248 -0.1171  1.9658
   35MOL   H86835616   6.501   0.501   7.005 -1.8441 -0.4423  0.2162
   35MOL   N86935617   5.436   1.543   0.009 -0.5984  0.0353 -0.2598
   35MOL   C87035618   5.376   1.624   0.104 -1.0589  0.2013  0.3525
   35MOL   C87135619   5.298   1.737   0.067 -0.1420  0.0802  0.3346
   35MOL   C87235620   5.241   1.819   0.168  0.2779 -0.3295 -0.7532
   35MOL   C87335621   5.244   1.776   0.306  0.8657 -0.0743 -0.5609
   35MOL   N87435622   5.188   1.859   0.403  0.4678 -0.2197  0.1456
   35MOL   C87535623   5.068   1.935   0.405 -0.3749  0.2128 -0.1812
   35MOL   C87635624   5.041   2.026   0.511  0.0355 -0.3522  0.3033
   35MOL   C87735625   4.935   2.119   0.498 -0.7189  0.1169  0.1034
   35MOL   C87835626   4.843   2.105   0.393  0.4963  0.9032  0.1183
   35MOL   N87935627   4.737   2.199   0.385 -0.5621  0.3444  0.2569
   35MOL   C88035628   4.601   2.174   0.395  0.2551 -0.4212  0.4741
   35MOL   C88135629   4.559   2.045   0.416  0.6995  0.3689 -0.1548
   35MOL   C88235630   4.422   2.017   0.422  0.1675  0.4508  0.3415
   35MOL   C88335631   4.330   2.123   0.416 -0.0600 -0.7646 -0.2908
   35MOL   N88435632   4.193   2.101   0.428  0.4894 -0.3050  0.0236
   35MOL   C88535633   4.120   1.987   0.473 -0.3491  1.0543  1.0605
   35MOL   C88635634   4.170   1.892   0.570  0.1151  0.7077 -0.2373
   35MOL   C88735635   4.089   1.786   0.621 -0.6292  0.0879  0.0327
   35MOL   C88835636   3.961   1.777   0.572 -0.2332 -0.2908  0.6836
   35MOL   C88935637   3.871   1.672   0.629  0.6529  0.0686  0.7088
   35MOL   C89035638   3.909   1.867   0.477  0.2263 -0.0583  0.0925
   35MOL   C89135639   3.990   1.978   0.432 -0.2482  0.9114  0.2755
   35MOL   C89235640   4.377   2.256   0.396 -0.1238  0.2269  0.7094
   35MOL   C89335641   4.513   2.277   0.385  0.2197 -0.3638 -0.7118
   35MOL   C89435642   4.857   1.991   0.301  0.5022 -0.4429 -0.6656
   35MOL   C89535643   4.971   1.913   0.307  0.0607  0.1604  0.9854
   35MOL   C89635644   5.305   1.650   0.338 -0.0178 -1.0848 -0.0916
   35MOL   C89735645   5.368   1.574   0.236 -0.0115  0.0644 -0.0823
   35MOL   H89835646   5.518   1.493   0.040  0.0710  0.7795 -0.8106
   35MOL   H89935647   5.291   1.761   7.944  2.3054  1.2935  0.4114
   35MOL   H90035648   5.186   1.904   0.131 -0.4374 -0.5661 -0.2322
   35MOL   H90135649   5.233   1.851   0.493 -0.4126  0.0784  0.6190
   35MOL   H90235650   5.105   2.029   0.599 -0.3500  4.2340  0.5089
   35MOL   H90335651   4.921   2.199   0.570 -1.6872  1.0608 -1.1138
   35MOL   H90435652   4.765   2.293   0.410  0.7971 -0.0572  0.2724
   35MOL   H90535653   4.631   1.966   0.435 -0.3559 -0.1208  1.9514
   35MOL   H90635654   4.391   1.914   0.426  0.9393  0.1919 -0.2013
   35MOL   H90735655   4.133   2.181   0.414  0.9319 -0.1452 -0.9496
   35MOL   H90835656   4.274   1.901   0.599  0.2720 -1.5142 -0.0142
   35MOL   H90935657   4.125   1.718   0.697 -0.6040 -1.1687 -1.0781
   35MOL   H91035658   3.766   1.699   0.618  0.5951 -0.3191  0.2584
   35MOL   H91135659   3.885   1.665   0.737  0.5729 -1.1248  0.6530
   35MOL   H91235660   3.805   1.850   0.454 -0.2757  1.5383  1.1382
   35MOL   H91335661   3.943   2.042   0.359  0.5211  0.3995 -0.6800
   35MOL   H91435662   4.311   2.341   0.392  1.8292  1.9035  2.7430
   35MOL   H91535663   4.542   2.380   0.368 -1.7320  0.1647 -0.9855
   35MOL   H91635664   4.786   1.961   0.225  0.8702  0.1280 -1.2384
   35MOL   H91735665   4.997   1.843   0.229 -1.7973 -0.2598  0.7151
   35MOL   H91835666   5.311   1.624   0.442 -0.7314 -1.0647 -0.0466
   35MOL   H91935667   5.419   1.482   0.258 -1.9180 -1.5213 -2.0936
   35MOL   N92035668   3.894   1.548   0.560  0.1493 -0.1172  0.2162
   35MOL   C92135669   3.844   1.432   0.612 -0.4548 -0.2337 -0.1056
   35MOL   C92235670   3.752   1.427   0.721 -0.0339 -0.1969  0.3421
   35MOL   C92335671   3.706   1.308   0.779 -0.4699 -0.9961 -0.3322
   35MOL   C92435672   3.752   1.182   0.731  0.6660 -0.4813 -0.3064
   35MOL   N92535673   3.703   1.067   0.790 -0.1990 -0.8001  0.0415
   35MOL   C92635674   3.744   0.932   0.782 -0.1831 -0.1653 -0.1340
   35MOL   C92735675   3.883   0.896   0.792 -0.6708  0.0142 -0.3674
   35MOL   C92835676   3.920   0.764   0.808 -0.1129 -0.5226  0.2617
   35MOL   C92935677   3.824   0.668   0.828 -0.4526  0.0289  0.1964
   35MOL   N93035678   3.854   0.536   0.847  0.0751  0.0528 -0.5199
   35MOL   C93135679   3.954   0.458   0.786  0.5694  0.4780  0.2610
   35MOL   C93235680   4.023   0.502   0.675 -0.3402 -0.1051 -0.0135
   35MOL   C93335681   4.130   0.421   0.627  0.3691  0.2402 -0.5225
   35MOL   C93435682   4.170   0.307   0.695  0.1130 -0.2761 -0.3914
   35MOL   N93535683   4.284   0.239   0.647 -0.1939 -0.6652  0.4520
   35MOL   C93635684   4.390   0.189   0.720  0.2807  0.9455 -0.8627
   35MOL   C93735685   4.474   0.097   0.655 -0.0678  0.5567  0.0838
   35MOL   C93835686   4.597   0.054   0.710 -0.3256 -0.1407 -0.3839
   35MOL   C93935687   4.628   0.097   0.841 -0.2697  0.5145 -0.3454
   35MOL   C94035688   4.751   0.037   0.910 -0.0417  0.0205 -0.3493
   35MOL   C94135689   4.547   0.191   0.905 -0.0349 -0.0266 -0.6627
   35MOL   C94235690   4.428   0.239   0.846 -0.0417  0.4879 -0.0499
   35MOL   C94335691   4.093   0.247   0.797 -0.2768 -0.5941  0.1199
   35MOL   C94435692   3.974   0.323   0.835  0.5875 -0.1989 -0.3423
   35MOL   C94535693   3.687   0.699   0.811 -0.1629 -0.3928 -0.5422
   35MOL   C94635694   3.649   0.832   0.790 -1.1339  0.0102  0.1492
   35MOL   C94735695   3.831   1.187   0.614  0.0601  0.1755 -0.6204
   35MOL   C94835696   3.882   1.311   0.567 -0.0410  0.3901 -0.3774
   35MOL   H94935697   3.978   1.540   0.506  0.0315  1.5281 -0.2332
   35MOL   H95035698   3.725   1.515   0.779  0.7915 -0.3994  1.0377
   35MOL   H95135699   3.645   1.311   0.868  1.2959  1.3929  0.8597
   35MOL   H95235700   3.616   1.083   0.839 -0.5731  0.4781 -0.9949
   35MOL   H95335701   3.961   0.971   0.791  1.9398 -2.5834  2.0783
   35MOL   H95435702   4.024   0.741   0.824 -0.0038 -0.6307 -0.6117
   35MOL   H95535703   3.794   0.501   0.920  0.0576  1.4944  0.1771
   35MOL   H95635704   4.007   0.598   0.627  0.3456 -0.2711 -0.5915
   35MOL   H95735705   4.193   0.462   0.548  2.5463 -2.0561 -0.0310
   35MOL   H95835706   4.291   0.229   0.547  0.2391  1.2679  0.2595
   35MOL   H95935707   4.439   0.060   0.560  0.4910  0.2019  0.0179
   35MOL   H96035708   4.669   7.965   0.674 -0.3956  1.0976 -3.0934
   35MOL   H96135709   4.841   0.073   0.860  1.1729 -1.0550  1.0472
   35MOL   H96235710   4.755   7.913   0.884 -0.0058 -0.4164  1.3791
   35MOL   H96335711   4.575   0.227   1.003  1.7231 -0.6894 -0.9026
   35MOL   H96435712   4.371   0.320   0.888 -1.0276 -0.6646  0.8729
   35MOL   H96535713   4.120   0.157   0.850  1.6156 -0.3799 -0.4356
   35MOL   H96635714   3.909   0.296   0.916  1.6098  3.4480  1.8392
   35MOL   H96735715   3.610   0.623   0.820 -0.3648  0.0953  2.4379
   35MOL   H96835716   3.543   0.853   0.789 -1.3326 -0.9784 -0.9002
   35MOL   H96935717   3.877   1.096   0.579 -2.4391 -1.3843 -0.0533
   35MOL   H97035718   3.950   1.307   0.483 -0.2033 -0.7543 -0.4667
   35MOL   N97135719   4.750   0.058   1.057  0.0861  0.8558 -0.4654
   35MOL   C97235720   4.871   0.053   1.128  0.2345 -0.1068 -0.0003
   35MOL   C97335721   5.003   0.079   1.068 -0.4578  0.5815 -0.0416
   35MOL   C97435722   5.120   0.081   1.141 -0.2990 -0.4008  0.0796
   35MOL   C97535723   5.117   0.051   1.278  0.3512 -0.2022 -0.1760
   35MOL   N97635724   5.233   0.051   1.353 -0.4500 -0.1802  0.4544
   35MOL   C97735725   5.262   7.930   1.440 -0.4058 -0.0151 -0.4002
   35MOL   C97835726   5.256   7.790   1.410 -0.0671 -0.8826  1.1217
   35MOL   C97935727   5.292   7.692   1.503 -0.7065 -0.5743 -0.0087
   35MOL   C98035728   5.346   7.739   1.627  0.2964 -0.4882 -0.3816
   35MOL   N98135729   5.401   7.647   1.724 -0.6502 -0.4577 -0.6974
   35MOL   C98235730   5.383   7.514   1.737  0.1346 -0.2460  0.8247
   35MOL   C98335731   5.261   7.441   1.701  0.4183  0.1533 -0.2629
   35MOL   C98435732   5.266   7.301   1.706  0.8125  0.7820 -0.7354
   35MOL   C98535733   5.369   7.226   1.765 -0.6906 -0.0419  0.1884
   35MOL   N98635734   5.362   7.088   1.774 -0.3055  0.2210  0.2193
   35MOL   C98735735   5.478   7.006   1.767 -0.3533 -0.0640 -0.3534
   35MOL   C98835736   5.469   6.884   1.834 -0.1644  0.9409  0.6079
   35MOL   C98935737   5.580   6.797   1.848  0.3615 -0.8291  0.0227
   35MOL   C99035738   5.702   6.816   1.786  0.1803  0.1735  0.2965
   35MOL   C99135739   5.821   6.724   1.815  0.4963  0.2962 -0.0897
   35MOL   C99235740   5.706   6.935   1.710 -0.2955 -0.2921 -0.1656
   35MOL   C99335741   5.599   7.029   1.698 -0.1515 -0.7615  0.8849
   35MOL   C99435742   5.479   7.297   1.817  0.7755  0.3461 -0.0463
   35MOL   C99535743   5.486   7.438   1.803  0.1600 -0.0953 -0.2147
   35MOL   C99635744   5.358   7.872   1.653  1.0111 -0.0952  0.1985
   35MOL   C99735745   5.304   7.965   1.565 -0.7744  0.0597  0.0994
   35MOL   C99835746   4.994   0.018   1.337 -0.3058  0.0798 -0.3635
   35MOL   C99935747   4.875   0.023   1.263  0.3343  0.6752 -0.0089
   35MOL     H135748   4.666   0.025   1.103  0.3881 -0.2285 -0.6901
   35MOL     H235749   5.020   0.108   0.965  3.2921 -2.7968 -0.4823
   35MOL     H335750   5.218   0.105   1.102  1.0597 -0.1287  3.4787
   35MOL     H435751   5.272   0.140   1.382 -0.3304 -0.0280 -0.1710
   35MOL     H535752   5.234   7.750   1.312  1.0645  0.6898  0.2052
   35MOL     H635753   5.286   7.588   1.473  0.1261 -0.6542  0.0773
   35MOL     H735754   5.464   7.685   1.793 -0.8534  0.0910 -0.8090
   35MOL     H835755   5.172   7.481   1.656 -0.1755  0.5919  1.2708
   35MOL     H935756   5.178   7.247   1.673  0.1606  0.6728  1.1361
   35MOL    H1035757   5.273   7.047   1.750 -0.4167  0.3070  0.4855
   35MOL    H1135758   5.386   6.863   1.901 -0.5295 -1.5813 -0.5841
   35MOL    H1235759   5.574   6.717   1.920 -1.1052 -1.0089 -0.2874
   35MOL    H1335760   5.785   6.627   1.781 -1.0344  1.3987 -1.6423
   35MOL    H1435761   5.847   6.713   1.921  1.9368  2.6422 -0.1547
   35MOL    H1535762   5.804   6.949   1.666  0.0403  1.3504  1.0483
   35MOL    H1635763   5.611   7.119   1.640 -1.1701 -2.0074 -1.2837
   35MOL    H1735764   5.562   7.245   1.862  0.1292 -1.8370 -1.3237
   35MOL    H1835765   5.584   7.477   1.829  0.1927 -1.7061  2.2445
   35MOL    H1935766   5.414   7.903   1.740  0.3515  3.4254 -0.5436
   35MOL    H2035767   5.302   0.083   1.605 -2.4331  0.5080 -1.0598
   35MOL    H2135768   4.991   7.977   1.443 -0.7634  4.5914  0.7094
   35MOL    H2235769   4.786   0.005   1.321 -0.6195  1.0911 -1.3429
   35MOL    H2335770   5.915   6.752   1.768 -0.5685  0.6791 -2.0361
   36MOL     N135771   2.382   7.281   2.319  0.5741  0.0020  0.2632
   36MOL     C235772   2.301   7.169   2.351  0.1498 -0.2069  0.3047
   36MOL     C335773   2.170   7.164   2.304  0.0521  0.2585  0.7021
   36MOL     C435774   2.079   7.062   2.325  0.1924  0.0095 -0.3159
   36MOL     C535775   2.118   6.956   2.406  0.4831 -0.2937 -0.2842
   36MOL     N635776   2.027   6.861   2.449  0.0017  0.0122  0.3516
   36MOL     C735777   1.918   6.800   2.385 -0.1551  0.1398 -0.4117
   36MOL     C835778   1.855   6.703   2.459 -0.6629  0.6377 -0.1761
   36MOL     C935779   1.743   6.633   2.414  0.7230 -0.0734 -0.1865
   36MOL    C1035780   1.704   6.654   2.278  1.2601 -0.1059 -0.1959
   36MOL    N1135781   1.605   6.576   2.218  0.4119 -0.4587 -0.5155
   36MOL    C1235782   1.591   6.567   2.080 -0.1075 -0.2722 -0.0965
   36MOL    C1335783   1.481   6.622   2.007 -0.1070  0.1551 -0.4665
   36MOL    C1435784   1.490   6.626   1.865 -0.2702 -0.1158 -0.5976
   36MOL    C1535785   1.580   6.543   1.793  0.6966 -0.1571 -0.4872
   36MOL    N1635786   1.583   6.514   1.652 -0.0196 -0.1051 -0.2334
   36MOL    C1735787   1.490   6.546   1.552 -0.7783  0.6389  0.1138
   36MOL    C1835788   1.460   6.685   1.539  0.0309 -0.1473 -0.6311
   36MOL    C1935789   1.373   6.729   1.438  0.0449 -0.1782 -0.1898
   36MOL    C2035790   1.310   6.638   1.346 -0.2842  0.2878  0.1397
   36MOL    C2135791   1.228   6.684   1.229 -0.6668  0.0990 -0.0907
   36MOL    C2235792   1.338   6.496   1.368  0.3010  0.3764  0.1440
   36MOL    C2335793   1.433   6.452   1.466  0.5258  0.3457  0.0239
   36MOL    C2435794   1.686   6.489   1.872  0.3619 -0.1405  0.3647
   36MOL    C2535795   1.694   6.501   2.009 -0.0459 -0.3025  0.0178
   36MOL    C2635796   1.777   6.750   2.197 -0.0840 -0.9215  0.5478
   36MOL    C2735797   1.883   6.819   2.249  0.8083 -0.1823  0.3796
   36MOL    C2835798   2.250   6.954   2.458 -0.1071 -0.0975  0.1392
   36MOL    C2935799   2.341   7.058   2.430  0.0432 -0.2886  0.8212
   36MOL    H3035800   2.346   7.337   2.243  1.1374  1.2554  0.9033
   36MOL    H3135801   2.150   7.247   2.237 -2.5710 -1.5142 -0.8253
   36MOL    H3235802   1.977   7.065   2.289 -0.1306  0.8327  0.6467
   36MOL    H3335803   2.049   6.851   2.547  3.8560  3.5908  0.0159
   36MOL    H3435804   1.887   6.673   2.557  0.4071  0.0960 -0.6825
   36MOL    H3535805   1.709   6.545   2.466  2.0346  0.0957  0.9893
   36MOL    H3635806   1.531   6.550   2.281  0.1718 -0.7163 -0.9047
   36MOL    H3735807   1.399   6.675   2.053 -1.7590 -2.4326 -0.2847
   36MOL    H3835808   1.422   6.687   1.807 -0.8919  0.0456  0.2761
   36MOL    H3935809   1.628   6.426   1.633 -1.3165 -1.0165  0.7656
   36MOL    H4035810   1.511   6.754   1.605 -1.0088  0.4482 -0.4378
   36MOL    H4135811   1.357   6.835   1.427 -3.2398 -0.5898  0.2098
   36MOL    H4235812   1.301   6.703   1.151 -0.6507 -2.3722 -0.7050
   36MOL    H4335813   1.196   6.788   1.235 -0.7624  0.1393 -1.2794
   36MOL    H4435814   1.307   6.422   1.296 -0.9933  1.2601 -0.2432
   36MOL    H4535815   1.453   6.347   1.480 -2.2476 -0.2233  0.0159
   36MOL    H4635816   1.758   6.419   1.830 -0.6158 -0.9429 -0.0018
   36MOL    H4735817   1.763   6.443   2.068  1.6324  0.2012 -1.3967
   36MOL    H4835818   1.740   6.786   2.102  1.2587  0.4022  0.5159
   36MOL    H4935819   1.933   6.891   2.186  3.0924 -1.8572  0.2575
   36MOL    H5035820   2.271   6.875   2.529 -2.4009 -1.2761 -0.4552
   36MOL    H5135821   2.435   7.059   2.483 -0.2538 -0.3335  1.3596
   36MOL    H5235822   2.481   7.260   2.317  0.6354  0.2096  0.8583
   36MOL    N5335823   1.107   6.598   1.209  0.9706 -0.1498 -0.1823
   36MOL    C5435824   1.027   6.603   1.094 -0.4304  0.6096  0.7124
   36MOL    C5535825   0.962   6.492   1.044 -0.4641 -0.1158  0.4616
   36MOL    C5635826   0.883   6.492   0.926  0.3386  0.4822 -0.2850
   36MOL    C5735827   0.859   6.613   0.855 -0.0613 -0.2696 -0.5698
   36MOL    N5835828   0.796   6.609   0.727 -0.9647  0.0518  0.6619
   36MOL    C5935829   0.721   6.711   0.665 -0.4489  0.1331  0.7267
   36MOL    C6035830   0.693   6.676   0.528 -0.1660 -0.1588 -0.1181
   36MOL    C6135831   0.634   6.775   0.450 -0.5501  0.0644 -0.2069
   36MOL    C6235832   0.580   6.895   0.509 -0.2446 -0.5421  0.1044
   36MOL    N6335833   0.493   6.984   0.440 -0.5961  0.3377 -0.0568
   36MOL    C6435834   0.365   6.931   0.405  0.2632 -0.6592  0.1682
   36MOL    C6535835   0.277   6.868   0.499  0.4415 -0.1133  0.1799
   36MOL    C6635836   0.149   6.841   0.460 -0.1150 -0.6302  0.4301
   36MOL    C6735837   0.091   6.882   0.339 -0.2024  0.5453  0.0749
   36MOL    N6835838   7.947   6.843   0.294  0.2077 -0.3054  0.8798
   36MOL    C6935839   7.854   6.912   0.216  0.6461  0.0371  0.4086
   36MOL    C7035840   7.869   7.046   0.189  0.3583  0.3039 -0.5199
   36MOL    C7135841   7.767   7.121   0.125 -0.3700 -0.3119 -0.4731
   36MOL    C7235842   7.648   7.055   0.103 -0.2235 -0.2096 -0.1410
   36MOL    C7335843   7.523   7.127   0.061  0.9051 -0.0783 -0.5033
   36MOL    C7435844   7.633   6.915   0.110 -0.6540  0.4030  0.4928
   36MOL    C7535845   7.735   6.837   0.175  0.2791 -0.0098  0.4099
   36MOL    C7635846   0.178   6.941   0.244 -1.3264 -0.2681 -0.4239
   36MOL    C7735847   0.312   6.972   0.279 -0.0672 -0.6644  0.5837
   36MOL    C7835848   0.605   6.922   0.647 -0.5737  0.2041  0.0380
   36MOL    C7935849   0.687   6.837   0.724 -0.3873 -0.0720 -0.3092
   36MOL    C8035850   0.935   6.727   0.895 -0.0771 -0.2301  0.5195
   36MOL    C8135851   1.015   6.723   1.013  0.0079 -0.0757  0.6079
   36MOL    H8235852   1.073   6.545   1.288  0.0302  0.6041 -0.0853
   36MOL    H8335853   0.988   6.394   1.082  1.5344 -0.3142 -1.3566
   36MOL    H8435854   0.845   6.400   0.885 -2.2021  1.4472 -0.1582
   36MOL    H8535855   0.801   6.522   0.676  1.5994  2.0172 -2.5869
   36MOL    H8635856   0.700   6.578   0.485  4.0589 -0.1897  0.4056
   36MOL    H8735857   0.619   6.757   0.344  3.0581  3.4278 -1.4152
   36MOL    H8835858   0.535   7.022   0.356 -2.4353  1.5455 -0.4696
   36MOL    H8935859   0.326   6.818   0.581  1.0435 -0.5480 -0.4378
   36MOL    H9035860   0.098   6.780   0.533 -0.0729 -1.0035  0.1455
   36MOL    H9135861   7.913   6.753   0.323  1.7712 -1.7843 -1.7201
   36MOL    H9235862   7.959   7.100   0.216  0.3385  0.3279 -0.5032
   36MOL    H9335863   7.783   7.227   0.108 -1.2048  0.0610  1.0327
   36MOL    H9435864   7.435   7.077   0.101  2.4026 -1.0680  1.6267
   36MOL    H9535865   7.528   7.127   7.934 -0.0518 -1.0484 -0.5565
   36MOL    H9635866   7.539   6.865   0.095  0.1009 -0.6981 -0.6569
   36MOL    H9735867   7.726   6.731   0.195 -2.2244  0.2817  0.9113
   36MOL    H9835868   0.143   6.965   0.145  2.0154  1.3748 -1.2628
   36MOL    H9935869   0.381   7.026   0.214  0.0585 -0.6778  0.7060
   36MOL   H10035870   0.571   7.015   0.692 -2.5704 -1.5931  2.4071
   36MOL   H10135871   0.708   6.866   0.826  1.8272 -1.6731 -0.2554
   36MOL   H10235872   0.943   6.817   0.836  0.1136 -0.9116 -0.4907
   36MOL   H10335873   1.075   6.813   1.020 -0.5735  0.3123  0.7116
   36MOL   N10435874   7.518   7.262   0.108  0.0899  0.5760 -0.1679
   36MOL   C10535875   7.426   7.356   0.052  0.0186  0.2385 -0.1411
   36MOL   C10635876   7.315   7.312   7.957 -0.0367 -0.6054  0.0288
   36MOL   C10735877   7.214   7.406   7.916  0.0784 -0.3545 -0.2143
   36MOL   C10835878   7.236   7.539   7.949  0.6901 -0.4158  0.1229
   36MOL   N10935879   7.127   7.623   7.926 -0.2943 -0.2591 -0.3551
   36MOL   C11035880   7.111   7.745   0.002  0.6871  0.2450 -0.4449
   36MOL   C11135881   7.074   7.849   7.903 -0.3029 -0.5636  0.1667
   36MOL   C11235882   7.046   7.971   7.958  0.0111 -0.0562 -0.1969
   36MOL   C11335883   7.048   0.009   0.115  0.0096  0.2451  0.0257
   36MOL   N11435884   7.000   0.133   0.157 -0.1168  0.3214 -0.2576
   36MOL   C11535885   6.971   0.173   0.289 -0.4363  0.0097  0.5159
   36MOL   C11635886   7.065   0.160   0.397  0.0886 -0.1184 -0.6934
   36MOL   C11735887   7.024   0.192   0.533  0.0181 -0.1302 -0.2772
   36MOL   C11835888   6.896   0.244   0.564  0.0582  0.2517  0.3148
   36MOL   N11935889   6.859   0.269   0.696 -0.2150  0.0015  0.3215
   36MOL   C12035890   6.744   0.335   0.743 -0.2845 -0.4593 -0.6615
   36MOL   C12135891   6.699   0.457   0.693  0.2837 -0.1272  0.3561
   36MOL   C12235892   6.596   0.532   0.754  0.0992  0.1231  0.4127
   36MOL   C12335893   6.540   0.482   0.872 -0.3263  0.5065 -0.1024
   36MOL   C12435894   6.431   0.558   0.940  0.0380 -0.2708  0.1044
   36MOL   C12535895   6.591   0.362   0.933 -0.0705 -0.3671 -0.5085
   36MOL   C12635896   6.693   0.284   0.865 -0.2446  0.3408  0.1130
   36MOL   C12735897   6.806   0.260   0.455 -0.2595 -0.5259  0.4056
   36MOL   C12835898   6.843   0.223   0.325  0.1589 -0.0534  0.4125
   36MOL   C12935899   7.091   7.885   0.198 -0.0863  0.6374 -1.1628
   36MOL   C13035900   7.113   7.755   0.142 -0.5612  0.2869  0.0944
   36MOL   C13135901   7.353   7.585   0.019  0.4458 -0.1885  0.3284
   36MOL   C13235902   7.442   7.493   0.071  0.0001  0.3606  0.3125
   36MOL   H13335903   7.599   7.295   0.158  0.9256 -0.8276 -0.5752
   36MOL   H13435904   7.290   7.207   7.950 -2.9601  0.1068 -1.0062
   36MOL   H13535905   7.119   7.383   7.869 -0.2865 -0.9961  0.8096
   36MOL   H13635906   7.112   7.612   7.827 -2.7182 -1.0360  0.0774
   36MOL   H13735907   7.056   7.828   7.799 -2.0158 -0.9857  0.5284
   36MOL   H13835908   7.000   0.058   7.889 -1.2693 -0.9014 -0.2040
   36MOL   H13935909   6.948   0.176   0.082 -1.6550 -1.0024  0.0401
   36MOL   H14035910   7.167   0.131   0.376  0.5788 -0.5909  2.1266
   36MOL   H14135911   7.102   0.187   0.607 -1.5262  0.6891  1.4784
   36MOL   H14235912   6.927   0.251   0.768 -0.4447 -2.8725 -0.1093
   36MOL   H14335913   6.752   0.499   0.609  0.1014  1.8870  1.2195
   36MOL   H14435914   6.558   0.619   0.703  1.0345  0.7004  0.6731
   36MOL   H14535915   6.460   0.618   1.026  0.0883  0.4409 -0.3984
   36MOL   H14635916   6.356   0.494   0.985  0.4125 -0.0489  1.0459
   36MOL   H14735917   6.548   0.327   1.025  0.8780 -0.5614 -0.1322
   36MOL   H14835918   6.724   0.190   0.908  0.1189 -0.4235 -1.7680
   36MOL   H14935919   6.708   0.305   0.467  1.6125  3.2913  2.5131
   36MOL   H15035920   6.764   0.228   0.251  0.4799 -0.2318  0.0560
   36MOL   H15135921   7.110   7.887   0.305  1.7207 -1.9097 -1.3934
   36MOL   H15235922   7.134   7.674   0.211  1.5099  1.0785  0.4519
   36MOL   H15335923   7.365   7.690   0.044  0.0026 -0.1780  0.5111
   36MOL   H15435924   7.531   7.525   0.123  0.3152 -1.7461  1.1043
   36MOL   N15535925   6.364   0.651   0.851  0.3696 -0.0708 -0.1197
   36MOL   C15635926   6.256   0.727   0.899  0.3627 -0.8082 -0.4689
   36MOL   C15735927   6.209   0.833   0.822 -0.3125 -0.3301 -0.1380
   36MOL   C15835928   6.090   0.912   0.848  0.3042 -0.9967  0.5298
   36MOL   C15935929   6.026   0.889   0.973 -0.1908  0.3611  0.6581
   36MOL   N16035930   5.915   0.963   1.022 -0.2537  0.4463  0.1308
   36MOL   C16135931   5.855   1.080   0.967 -0.0662  0.1934  0.4178
   36MOL   C16235932   5.719   1.098   0.986 -0.4920 -0.0148 -0.5455
   36MOL   C16335933   5.657   1.216   0.943  0.8992 -0.3553  0.1806
   36MOL   C16435934   5.730   1.314   0.880  0.1382 -0.9352 -0.4526
   36MOL   N16535935   5.669   1.433   0.838 -0.1349  0.3603 -0.1862
   36MOL   C16635936   5.553   1.503   0.884  0.9636  0.5263 -0.5167
   36MOL   C16735937   5.490   1.594   0.792  0.1256 -0.1376  0.9691
   36MOL   C16835938   5.372   1.658   0.830 -0.6886 -0.4833 -0.9654
   36MOL   C16935939   5.325   1.645   0.965  0.3729 -0.3896 -0.6533
   36MOL   N17035940   5.224   1.722   1.013  0.3232  0.4350  0.1811
   36MOL   C17135941   5.115   1.777   0.943  0.6449  0.2515 -0.2017
   36MOL   C17235942   5.045   1.888   0.989 -0.4600  0.0353 -0.0825
   36MOL   C17335943   4.930   1.938   0.916  0.8355  0.0541 -0.1636
   36MOL   C17435944   4.877   1.863   0.809 -0.1774  0.0617 -0.8032
   36MOL   C17535945   4.741   1.906   0.749 -0.6011  0.2104  0.2189
   36MOL   C17635946   4.943   1.744   0.776 -0.5587  0.2708 -0.0316
   36MOL   C17735947   5.065   1.704   0.835 -0.1217 -0.5292  0.4561
   36MOL   C17835948   5.383   1.554   1.053 -0.3324 -0.3240  0.2535
   36MOL   C17935949   5.494   1.482   1.012 -0.7467 -0.4796 -0.1076
   36MOL   C18035950   5.867   1.297   0.854 -0.1149  0.0224 -0.1852
   36MOL   C18135951   5.931   1.184   0.912 -0.5491 -0.6775  0.3978
   36MOL   C18235952   6.071   0.784   1.058 -0.4864  0.4906 -0.3690
   36MOL   C18335953   6.181   0.699   1.017  0.5755  0.5025  0.0170
   36MOL   H18435954   6.414   0.677   0.767  0.9452 -1.3782 -0.1858
   36MOL   H18535955   6.257   0.854   0.728  1.7770 -0.4297  0.8904
   36MOL   H18635956   6.053   0.987   0.780  1.2766 -0.6271  0.3955
   36MOL   H18735957   5.860   0.933   1.101 -0.7214  2.4902  0.6252
   36MOL   H18835958   5.660   1.028   1.043  0.9237 -0.0385  0.9440
   36MOL   H18935959   5.550   1.225   0.955  0.9418  0.9928 -0.3008
   36MOL   H19035960   5.730   1.488   0.780 -0.8841 -0.2386 -1.5537
   36MOL   H19135961   5.528   1.608   0.692 -2.5422  0.6472  0.0374
   36MOL   H19235962   5.330   1.740   0.773 -2.1390 -0.6075 -0.1145
   36MOL   H19335963   5.238   1.768   1.102  0.7025 -0.2600  0.4807
   36MOL   H19435964   5.090   1.951   1.064  1.5961 -1.4248 -0.0177
   36MOL   H19535965   4.888   2.031   0.949  1.4462  0.1098  0.4684
   36MOL   H19635966   4.747   1.974   0.663  3.1836 -1.3595 -0.8606
   36MOL   H19735967   4.684   1.964   0.822  0.3588 -1.0791  2.0330
   36MOL   H19835968   4.900   1.684   0.697 -0.0982  0.5502 -0.4927
   36MOL   H19935969   5.102   1.610   0.797  1.4657  0.8037 -1.4289
   36MOL   H20035970   5.344   1.550   1.154 -0.3748  1.3087  0.3264
   36MOL   H20135971   5.543   1.420   1.086  0.5154 -0.2485 -0.7412
   36MOL   H20235972   5.925   1.381   0.822 -3.3285  1.3000 -2.9052
   36MOL   H20335973   6.038   1.192   0.904 -0.6405  1.0533  0.7113
   36MOL   H20435974   6.032   0.746   1.152 -0.0594 -1.4307 -0.9283
   36MOL   H20535975   6.205   0.615   1.079  0.6185 -1.0769 -2.0691
   36MOL   N20635976   4.646   1.794   0.719  0.0701  0.0076  0.0621
   36MOL   C20735977   4.668   1.697   0.629  0.0069  0.0577 -0.3478
   36MOL   C20835978   4.622   1.567   0.655 -0.9388  0.0449 -0.5817
   36MOL   C20935979   4.644   1.468   0.552  0.3650  0.1395  0.5027
   36MOL   C21035980   4.719   1.491   0.431 -0.8127  0.5975 -0.1102
   36MOL   N21135981   4.744   1.385   0.342  0.2345  0.0085 -0.0491
   36MOL   C21235982   4.858   1.368   0.269 -0.2579  0.8017  0.4574
   36MOL   C21335983   4.842   1.314   0.142 -0.6334 -0.0670 -0.5277
   36MOL   C21435984   4.952   1.277   0.062 -0.2964 -1.5811  0.3695
   36MOL   C21535985   5.078   1.295   0.114 -0.8833  0.2185 -0.6086
   36MOL   N21635986   5.199   1.260   0.045  0.7925  0.3697 -0.0402
   36MOL   C21735987   5.207   1.174   7.917  0.1743 -0.3068  0.4500
   36MOL   C21835988   5.304   1.199   7.818  1.2604  0.1105  0.0049
   36MOL   C21935989   5.327   1.112   7.707 -0.0206  0.0568 -0.3193
   36MOL   C22035990   5.239   0.997   7.696 -1.0274 -0.1223 -0.0970
   36MOL   N22135991   5.266   0.901   7.601 -0.1210 -0.6580  0.6670
   36MOL   C22235992   5.196   0.875   7.484 -0.9132 -0.7512  0.1142
   36MOL   C22335993   5.055   0.889   7.470 -0.8044  0.3784  0.6290
   36MOL   C22435994   4.992   0.863   7.346 -0.5402 -0.1252 -0.3550
   36MOL   C22535995   5.064   0.809   7.242 -0.4407  0.2851 -0.3712
   36MOL   C22635996   4.990   0.753   7.125  0.2246  0.2239 -0.4410
   36MOL   C22735997   5.204   0.798   7.256 -0.9184 -0.1636 -0.0159
   36MOL   C22835998   5.268   0.831   7.370  0.5127 -0.1478 -1.2608
   36MOL   C22935999   5.138   0.972   7.788  0.0661  0.6243  0.1119
   36MOL   C23036000   5.119   1.063   7.892  0.3101 -0.3865  0.5016
   36MOL   C23136001   5.095   1.364   0.235 -0.0896 -0.2287 -0.2874
   36MOL   C23236002   4.985   1.398   0.312  0.4713  0.3183  0.5907
   36MOL   C23336003   4.762   1.623   0.408 -0.1192  0.0747  0.0841
   36MOL   C23436004   4.741   1.726   0.506 -0.1483  0.5011 -0.1330
   36MOL   H23536005   4.588   1.756   0.793 -0.0180 -3.9263 -1.9074
   36MOL   H23636006   4.564   1.532   0.739  2.1292 -2.0894  0.7359
   36MOL   H23736007   4.599   1.371   0.565 -1.2778  0.5210 -1.9954
   36MOL   H23836008   4.667   1.320   0.337  0.4045 -0.1715 -0.3189
   36MOL   H23936009   4.745   1.295   0.099 -1.5595  4.7212 -0.7951
   36MOL   H24036010   4.930   1.230   7.949 -2.8653 -0.9478  0.6225
   36MOL   H24136011   5.282   1.307   0.077  0.5545  0.8440 -0.1120
   36MOL   H24236012   5.377   1.277   7.833  2.6543 -1.5178  1.8828
   36MOL   H24336013   5.407   1.131   7.637 -0.4936  0.3080 -0.7973
   36MOL   H24436014   5.366   0.892   7.589  0.1930  0.6375  2.0955
   36MOL   H24536015   4.993   0.927   7.549 -0.4354 -0.9361  1.5644
   36MOL   H24636016   4.885   0.877   7.340 -0.6864 -0.9899  0.0432
   36MOL   H24736017   4.896   0.807   7.117  0.4695  0.4650 -1.6154
   36MOL   H24836018   4.948   0.658   7.159  0.4561  0.9618  2.0363
   36MOL   H24936019   5.265   0.764   7.173  0.7518 -0.8463  1.4506
   36MOL   H25036020   5.373   0.812   7.383  0.2235 -1.4583 -0.7471
   36MOL   H25136021   5.073   0.891   7.761 -1.4105  1.2911  1.5573
   36MOL   H25236022   5.045   1.043   7.968 -1.4046  1.1337 -0.7210
   36MOL   H25336023   5.190   1.385   0.283 -0.6712  0.2169  0.6764
   36MOL   H25436024   5.006   1.458   0.399 -2.9568  0.9328  1.0646
   36MOL   H25536025   4.832   1.638   0.327 -0.7754 -0.8832 -0.6687
   36MOL   H25636026   4.792   1.817   0.479 -0.0423  0.9221  1.4512
   36MOL   N25736027   5.074   0.746   7.006 -0.2627  0.6216 -0.2242
   36MOL   C25836028   5.027   0.676   6.894 -0.3397  1.1961  0.5553
   36MOL   C25936029   4.937   0.561   6.914 -0.7751 -0.0044  0.8868
   36MOL   C26036030   4.889   0.494   6.807  0.5184 -0.6502 -0.1233
   36MOL   C26136031   4.940   0.532   6.677  0.2778  0.0666 -0.1396
   36MOL   N26236032   4.887   0.467   6.564  0.0984  0.0646  0.2224
   36MOL   C26336033   4.751   0.437   6.558  0.4764  0.6712  0.0091
   36MOL   C26436034   4.705   0.306   6.589 -0.0729 -1.3103 -0.2278
   36MOL   C26536035   4.562   0.279   6.595 -0.0679  0.4322  0.3832
   36MOL   C26636036   4.473   0.376   6.563 -0.0186 -0.2582 -0.0887
   36MOL   N26736037   4.335   0.362   6.575 -0.0894  0.2319  0.0582
   36MOL   C26836038   4.260   0.257   6.625  0.3658 -0.3165  0.1538
   36MOL   C26936039   4.296   0.182   6.742  0.2127 -0.0460 -0.2673
   36MOL   C27036040   4.232   0.067   6.768 -0.2593  0.8304 -0.2539
   36MOL   C27136041   4.123   0.027   6.692 -0.3955  0.2286 -0.4330
   36MOL   N27236042   4.066   7.891   6.727  0.1818 -0.4233  0.0549
   36MOL   C27336043   3.983   7.802   6.656  0.0857  1.1330 -0.4926
   36MOL   C27436044   3.864   7.852   6.600  0.4841  1.0980  0.3915
   36MOL   C27536045   3.773   7.770   6.525 -0.3427  0.2497 -0.5367
   36MOL   C27636046   3.807   7.639   6.500  0.3581  0.3594  0.4034
   36MOL   C27736047   3.719   7.548   6.423  0.0602  0.2525 -0.0065
   36MOL   C27836048   3.922   7.583   6.555 -0.3650  0.3084 -0.7567
   36MOL   C27936049   4.012   7.663   6.635 -0.4672  0.1987  0.0747
   36MOL   C28036050   4.075   0.104   6.585  0.0228 -0.0921  0.3025
   36MOL   C28136051   4.151   0.217   6.546 -0.6852 -0.8097 -0.1634
   36MOL   C28236052   4.519   0.503   6.524  0.3019  0.3625 -0.1097
   36MOL   C28336053   4.658   0.527   6.520  0.1943 -0.5143  0.1000
   36MOL   C28436054   5.027   0.641   6.662 -0.0164  0.1353  0.4756
   36MOL   C28536055   5.066   0.720   6.764  0.6409 -0.6276 -0.9011
   36MOL   H28636056   5.137   0.824   6.993  0.8257 -0.2814 -0.4777
   36MOL   H28736057   4.902   0.525   7.010 -1.4503  3.0724  1.8540
   36MOL   H28836058   4.809   0.424   6.823 -1.3942  1.2384 -1.0791
   36MOL   H28936059   4.929   0.503   6.480 -1.0010  0.4107 -0.1895
   36MOL   H29036060   4.773   0.223   6.597  2.9953  1.0367 -1.0017
   36MOL   H29136061   4.523   0.182   6.621  0.6876 -0.5560 -1.9915
   36MOL   H29236062   4.289   0.409   6.499  1.2399 -0.4339 -1.1777
   36MOL   H29336063   4.379   0.203   6.808 -1.2149 -1.5460  2.1182
   36MOL   H29436064   4.269   0.010   6.852  0.8568  1.9100 -0.0060
   36MOL   H29536065   4.126   7.853   6.798  0.2153  3.1339  2.0489
   36MOL   H29636066   3.839   7.955   6.624 -0.8832  0.9750 -0.4121
   36MOL   H29736067   3.678   7.800   6.483  0.2936  0.7719 -1.6418
   36MOL   H29836068   3.618   7.560   6.463 -1.0403 -2.5717 -1.8173
   36MOL   H29936069   3.754   7.446   6.436  1.0665  0.5041 -0.6764
   36MOL   H30036070   3.926   7.476   6.559  0.5373  0.2737 -2.0941
   36MOL   H30136071   4.094   7.620   6.690 -2.5081 -3.6958  0.2259
   36MOL   H30236072   3.993   0.072   6.523  0.9546  0.1452 -1.0837
   36MOL   H30336073   4.120   0.271   6.457  2.3758  2.2419  0.5238
   36MOL   H30436074   4.449   0.585   6.521 -2.2877 -1.6631  2.3058
   36MOL   H30536075   4.700   0.623   6.491 -1.6070  0.0528 -0.7299
   36MOL   H30636076   5.060   0.677   6.565 -0.0399  1.5046  0.9661
   36MOL   H30736077   5.128   0.807   6.751  2.0032 -1.4733 -0.2437
   36MOL   N30836078   3.731   7.570   6.283  0.2105 -0.0327  0.1762
   36MOL   C30936079   3.718   7.705   6.238 -0.3340 -0.1854 -0.5857
   36MOL   C31036080   3.597   7.773   6.220 -0.1701  0.0645 -0.5739
   36MOL   C31136081   3.588   7.903   6.166 -0.2799 -0.1201 -0.7241
   36MOL   C31236082   3.703   7.972   6.140 -0.6820 -0.4882 -0.0976
   36MOL   N31336083   3.686   0.122   6.093 -0.2568  0.2794 -0.6058
   36MOL   C31436084   3.792   0.210   6.089  0.0024  0.1904 -0.3310
   36MOL   C31536085   3.848   0.272   6.201 -0.7994 -0.2975  0.4587
   36MOL   C31636086   3.957   0.362   6.198  0.6275  0.2598 -0.2211
   36MOL   C31736087   4.002   0.396   6.066 -0.3052 -0.1737 -0.1139
   36MOL   N31836088   4.092   0.499   6.044 -0.3316  0.7495 -0.4147
   36MOL   C31936089   4.167   0.574   6.139 -0.0527  0.1194  0.8263
   36MOL   C32036090   4.103   0.671   6.220 -0.5122 -0.1625  0.0361
   36MOL   C32136091   4.175   0.747   6.308 -0.0266  0.1388 -0.5229
   36MOL   C32236092   4.313   0.736   6.310  0.5210 -0.3486 -1.2160
   36MOL   N32336093   4.387   0.830   6.376 -0.5536  0.7572  0.9894
   36MOL   C32436094   4.354   0.923   6.477  0.8611 -0.2437  0.1222
   36MOL   C32536095   4.274   0.877   6.577 -0.6374  0.3111 -0.0131
   36MOL   C32636096   4.226   0.961   6.680  0.5026 -0.3013 -0.0642
   36MOL   C32736097   4.281   1.088   6.695 -0.0686 -0.5076 -0.3264
   36MOL   C32836098   4.249   1.174   6.809 -0.3981  0.0465  0.2111
   36MOL   C32936099   4.362   1.136   6.591 -0.2399  0.5525  0.1119
   36MOL   C33036100   4.397   1.057   6.479  0.3855  0.1656  0.2480
   36MOL   C33136101   4.381   0.641   6.233 -0.5255  0.4011  0.4015
   36MOL   C33236102   4.309   0.558   6.151 -0.1221  0.3533  0.9476
   36MOL   C33336103   3.946   0.338   5.950 -0.0812 -0.0722  0.2910
   36MOL   C33436104   3.846   0.237   5.965 -0.3036  0.1508  0.6981
   36MOL   C33536105   3.824   7.909   6.159 -0.0182  0.4966 -0.0846
   36MOL   C33636106   3.836   7.773   6.197  1.2896  0.2265  0.3766
   36MOL   H33736107   3.823   7.547   6.250 -0.4709 -1.5185 -0.7149
   36MOL   H33836108   3.508   7.713   6.232  0.7546 -1.3433 -0.5711
   36MOL   H33936109   3.491   7.948   6.157 -0.2892  0.5193  2.0229
   36MOL   H34036110   3.608   0.164   6.142  1.6664  1.0502  1.9446
   36MOL   H34136111   3.805   0.245   6.296 -1.6106  1.9151  0.7348
   36MOL   H34236112   3.973   0.415   6.291  0.0454 -0.6286  0.3980
   36MOL   H34336113   4.106   0.524   5.947  0.5059 -0.0321 -0.5021
   36MOL   H34436114   3.995   0.677   6.218 -0.5810 -1.6473 -1.2088
   36MOL   H34536115   4.127   0.828   6.362 -0.8916 -1.0265  0.4732
   36MOL   H34636116   4.470   0.853   6.323 -0.1800  0.1754  1.3095
   36MOL   H34736117   4.232   0.778   6.574  1.1053 -0.5494  2.3617
   36MOL   H34836118   4.163   0.925   6.759  0.7940  0.3346  0.4639
   36MOL   H34936119   4.169   1.126   6.865  0.5097  0.3229  1.7691
   36MOL   H35036120   4.218   1.273   6.775 -1.0617 -0.1668  0.1998
   36MOL   H35136121   4.403   1.235   6.603  0.1909  0.3569  0.2777
   36MOL   H35236122   4.472   1.097   6.413  0.7337 -1.3065 -0.2650
   36MOL   H35336123   4.489   0.632   6.238 -0.6487 -0.1607  4.4486
   36MOL   H35436124   4.360   0.498   6.077  0.1410 -1.5168  2.6028
   36MOL   H35536125   3.992   0.358   5.854 -2.8568 -2.1096 -1.5379
   36MOL   H35636126   3.808   0.189   5.876  0.8965 -1.3541  0.9799
   36MOL   H35736127   3.911   7.969   6.137  0.0807  0.4122  0.0813
   36MOL   H35836128   3.929   7.720   6.213  1.2671 -0.5709 -1.9826
   36MOL   N35936129   4.361   1.181   6.897 -0.6922  0.9656  0.1253
   36MOL   C36036130   4.399   1.070   6.975  0.3734 -0.0352 -0.4553
   36MOL   C36136131   4.433   0.947   6.919 -0.2041  0.1640 -0.4641
   36MOL   C36236132   4.474   0.835   7.001 -0.3878  0.5192 -0.3138
   36MOL   C36336133   4.483   0.854   7.142  0.4493  0.2074 -0.1957
   36MOL   N36436134   4.521   0.750   7.237  0.0296  0.2193 -0.6466
   36MOL   C36536135   4.552   0.616   7.217  0.5077 -0.0643  0.1094
   36MOL   C36636136   4.673   0.571   7.272 -0.0359 -0.7555  0.5617
   36MOL   C36736137   4.712   0.438   7.247 -0.0167  0.5202  0.2093
   36MOL   C36836138   4.639   0.351   7.163 -0.7633  0.2958  0.2661
   36MOL   N36936139   4.701   0.225   7.141  0.3540  0.0041  0.5327
   36MOL   C37036140   4.645   0.111   7.090  0.4555 -0.2004  0.0675
   36MOL   C37136141   4.624   0.110   6.951 -0.0106  0.3243 -0.0439
   36MOL   C37236142   4.558   0.002   6.891 -0.0486 -0.5461 -0.5847
   36MOL   C37336143   4.510   7.882   6.977  0.3077 -0.1096  0.0217
   36MOL   N37436144   4.438   7.776   6.918 -0.3641 -0.0400 -0.0360
   36MOL   C37536145   4.306   7.736   6.950  0.5535 -0.0900  1.5434
   36MOL   C37636146   4.221   7.813   7.024 -0.6191  0.4528  0.2256
   36MOL   C37736147   4.092   7.775   7.055  0.2476 -0.1418  0.3657
   36MOL   C37836148   4.045   7.643   7.018  0.6927  0.5952 -0.4299
   36MOL   C37936149   3.899   7.597   7.060  0.0621 -0.7520 -0.3421
   36MOL   C38036150   4.122   7.559   6.933  0.9056 -0.4613 -0.0584
   36MOL   C38136151   4.252   7.607   6.899  0.6218  0.4027 -0.4960
   36MOL   C38236152   4.534   7.878   7.117  0.2833 -0.0869 -0.0307
   36MOL   C38336153   4.613   7.982   7.172 -0.5037 -0.3373 -0.1575
   36MOL   C38436154   4.526   0.406   7.095  0.2119 -1.1006  0.4579
   36MOL   C38536155   4.487   0.540   7.124  0.5163 -0.4506  0.6226
   36MOL   C38636156   4.445   0.981   7.198  0.4967 -0.4394 -0.3488
   36MOL   C38736157   4.413   1.091   7.114 -0.6017  0.1620 -0.3013
   36MOL   H38836158   4.364   1.257   6.963 -1.0307  1.5701 -0.5524
   36MOL   H38936159   4.426   0.913   6.817 -3.3827 -3.5599  0.8302
   36MOL   H39036160   4.489   0.737   6.956  0.0979  0.6322 -0.3983
   36MOL   H39136161   4.495   0.769   7.333 -0.6866 -0.8220 -0.6216
   36MOL   H39236162   4.736   0.634   7.333  2.2359 -2.5600  0.1348
   36MOL   H39336163   4.801   0.403   7.298 -0.6581 -0.7226  0.4944
   36MOL   H39436164   4.774   0.211   7.210 -1.5946 -1.5878  2.3233
   36MOL   H39536165   4.660   0.190   6.888 -0.1824 -0.7939 -1.5832
   36MOL   H39636166   4.542   0.000   6.784 -0.7744  1.8107 -0.5395
   36MOL   H39736167   4.481   7.732   6.838 -1.8063 -1.7302  0.0976
   36MOL   H39836168   4.251   7.913   7.051  2.0908  0.1690 -1.5762
   36MOL   H39936169   4.025   7.837   7.112  2.7715  1.8325  1.2568
   36MOL   H40036170   3.832   7.627   6.979 -0.7663  1.5371  1.1471
   36MOL   H40136171   3.872   7.658   7.146 -0.3143 -0.2432 -0.8136
   36MOL   H40236172   4.079   7.468   6.894 -1.9660  0.1942  1.4287
   36MOL   H40336173   4.311   7.548   6.832 -2.6465 -1.4563 -1.8476
   36MOL   H40436174   4.495   7.804   7.185  0.2251  0.5602  0.6480
   36MOL   H40536175   4.633   7.981   7.278 -1.9546  1.8455  0.1698
   36MOL   H40636176   4.469   0.339   7.033  0.8455  0.1137 -1.4741
   36MOL   H40736177   4.395   0.569   7.074 -0.7336 -2.2722  1.7963
   36MOL   H40836178   4.456   1.002   7.303 -0.3315 -0.7599 -0.1971
   36MOL   H40936179   4.398   1.189   7.158  3.4483  1.3044 -1.2627
   36MOL   N41036180   3.881   7.459   7.096  0.6336 -0.4554  0.3813
   36MOL   C41136181   3.935   7.410   7.213  0.3601  0.7423 -0.5370
   36MOL   C41236182   3.969   7.489   7.329  0.6076  0.3510 -0.2695
   36MOL   C41336183   4.023   7.430   7.446  0.4872  0.1886 -0.2629
   36MOL   C41436184   4.039   7.294   7.450 -0.1077  0.0890 -0.1334
   36MOL   N41536185   4.076   7.229   7.568  0.2816  0.2280 -0.5469
   36MOL   C41636186   4.185   7.256   7.650 -0.4456  0.1781  0.1665
   36MOL   C41736187   4.292   7.332   7.605  0.0575  0.2846  0.0858
   36MOL   C41836188   4.399   7.366   7.686 -0.3940  0.1199  0.8827
   36MOL   C41936189   4.405   7.321   7.822  0.0596 -0.4521  0.2504
   36MOL   N42036190   4.516   7.361   7.898  0.1994  0.2522 -0.3184
   36MOL   C42136191   4.583   7.485   7.896  0.1422 -0.0725 -0.3834
   36MOL   C42236192   4.722   7.498   7.913 -0.1454  0.9699  0.2944
   36MOL   C42336193   4.784   7.624   7.897  0.0746 -0.0926 -0.6615
   36MOL   C42436194   4.703   7.738   7.870 -0.7390  0.6758 -0.4095
   36MOL   N42536195   4.772   7.859   7.840  0.2790 -0.2874  0.3780
   36MOL   C42636196   4.718   0.004   7.807 -0.2484  0.6152 -0.1252
   36MOL   C42736197   4.769   0.067   7.693 -0.1192  0.2403  0.6931
   36MOL   C42836198   4.714   0.192   7.650  0.6555  0.3365  0.3774
   36MOL   C42936199   4.615   0.259   7.729  0.3334  1.2978  0.1285
   36MOL   C43036200   4.550   0.390   7.686 -0.1343 -0.0628  0.3806
   36MOL   C43136201   4.576   0.197   7.849 -0.5149 -0.2782 -1.2757
   36MOL   C43236202   4.624   0.072   7.886 -0.4485  0.7711 -0.1488
   36MOL   C43336203   4.563   7.727   7.857  0.0754  0.5997  0.2570
   36MOL   C43436204   4.504   7.599   7.868 -0.4669  0.2122  0.5360
   36MOL   C43536205   4.313   7.224   7.868  0.4457  0.5133  0.6539
   36MOL   C43636206   4.208   7.190   7.775 -0.0366  0.0232 -0.0248
   36MOL   C43736207   4.010   7.214   7.340  0.2253 -0.4684  0.0903
   36MOL   C43836208   3.954   7.270   7.223  0.6937 -0.1454  0.4509
   36MOL   H43936209   3.845   7.398   7.024 -1.5384  1.6439 -0.3760
   36MOL   H44036210   3.965   7.597   7.335  2.9691  0.4168  0.5549
   36MOL   H44136211   4.057   7.485   7.533 -0.5720  0.5172 -0.0412
   36MOL   H44236212   4.045   7.133   7.565 -0.7152  0.5882 -4.6799
   36MOL   H44336213   4.280   7.371   7.505  0.5547  0.2108 -0.0033
   36MOL   H44436214   4.474   7.428   7.639  0.4544 -2.5393 -1.4149
   36MOL   H44536215   4.526   7.305   7.982  1.5461  0.4057 -0.3663
   36MOL   H44636216   4.784   7.412   7.933 -0.8439  1.0211  2.9217
   36MOL   H44736217   4.891   7.628   7.901  0.1529 -1.2988 -1.5789
   36MOL   H44836218   4.848   7.838   7.776 -1.1711 -3.8313 -0.3230
   36MOL   H44936219   4.855   0.037   7.634 -1.0430  1.3279 -1.2628
   36MOL   H45036220   4.748   0.239   7.559  0.3571  4.0091  2.0726
   36MOL   H45136221   4.618   0.440   7.618 -1.7052  1.3348 -0.1958
   36MOL   H45236222   4.525   0.455   7.770 -1.8694  1.5096 -1.3112
   36MOL   H45336223   4.500   0.237   7.914 -0.4948 -1.2312 -0.6497
   36MOL   H45436224   4.581   0.018   7.969 -2.1836 -1.3248 -2.3164
   36MOL   H45536225   4.501   7.811   7.830 -1.3104 -0.6906 -0.6598
   36MOL   H45636226   4.400   7.598   7.841 -0.6924  2.3404  1.2432
   36MOL   H45736227   4.319   7.181   7.967 -0.1012 -0.9887  0.0537
   36MOL   H45836228   4.124   7.132   7.808  0.9907 -1.5941 -0.2057
   36MOL   H45936229   4.021   7.107   7.349 -2.3542 -0.9639 -1.8575
   36MOL   H46036230   3.929   7.192   7.152  2.2920 -0.6457  0.4066
   36MOL   N46136231   4.423   0.375   7.612  0.0108  0.4734  0.5420
   36MOL   C46236232   4.366   0.486   7.552  0.1146 -0.2452  0.9592
   36MOL   C46336233   4.273   0.462   7.446  0.4217 -0.1034 -0.1051
   36MOL   C46436234   4.221   0.573   7.373 -0.0491  0.2759 -0.1895
   36MOL   C46536235   4.244   0.706   7.406 -0.2867 -0.3041 -0.0423
   36MOL   N46636236   4.177   0.815   7.346  0.1121  0.0653 -0.4774
   36MOL   C46736237   4.132   0.933   7.410 -1.0556 -0.2768 -0.2757
   36MOL   C46836238   4.117   0.935   7.551 -0.0372  0.3114 -0.5927
   36MOL   C46936239   4.069   1.052   7.615 -0.2058  0.1295 -0.4295
   36MOL   C47036240   4.037   1.163   7.535  0.0716 -0.1166  0.2830
   36MOL   N47136241   3.973   1.269   7.600 -0.1208  1.2715 -0.1146
   36MOL   C47236242   3.939   1.395   7.560 -0.2577 -0.2608 -0.0614
   36MOL   C47336243   3.841   1.455   7.638  0.7281 -0.2818 -0.3269
   36MOL   C47436244   3.796   1.589   7.615 -0.0978  0.2215 -0.0619
   36MOL   C47536245   3.852   1.660   7.506 -0.0923  0.2040 -0.2409
   36MOL   N47636246   3.811   1.793   7.491 -0.8211 -0.4954 -0.1591
   36MOL   C47736247   3.818   1.874   7.375 -0.5010  0.6344  0.0427
   36MOL   C47836248   3.784   2.010   7.394  0.1464 -0.1187  0.5504
   36MOL   C47936249   3.786   2.102   7.281 -0.0599  0.0626 -0.1000
   36MOL   C48036250   3.811   2.048   7.156  0.4506 -0.0203 -0.3066
   36MOL   C48136251   3.806   2.133   7.038 -0.1946 -0.1326  0.8868
   36MOL   C48236252   3.825   1.907   7.135 -0.3476  0.8036  0.2767
   36MOL   C48336253   3.827   1.818   7.246 -0.1252  0.0814 -0.1061
   36MOL   C48436254   3.960   1.602   7.428  0.1803  0.1636 -0.1599
   36MOL   C48536255   3.998   1.468   7.453 -0.0476 -0.0642  0.0219
   36MOL   C48636256   4.052   1.155   7.396 -0.3425 -0.1521 -0.7042
   36MOL   C48736257   4.114   1.047   7.331 -0.0201 -0.0340 -0.3986
   36MOL   C48836258   4.339   0.726   7.512  0.5775 -0.6941  0.6244
   36MOL   C48936259   4.400   0.621   7.576 -0.1044  0.1249 -0.2456
   36MOL   H49036260   4.412   0.290   7.559  0.8578  2.6173 -3.2349
   36MOL   H49136261   4.234   0.362   7.436 -2.0608  1.0537 -2.7071
   36MOL   H49236262   4.142   0.550   7.304  0.3511 -0.8682 -0.2687
   36MOL   H49336263   4.160   0.802   7.247  0.9302  2.1869 -0.9288
   36MOL   H49436264   4.134   0.847   7.613 -0.6584  1.2218  0.8978
   36MOL   H49536265   4.063   1.064   7.723 -2.1002  0.2370 -0.5434
   36MOL   H49636266   3.923   1.245   7.684 -1.2073  1.7794 -0.6119
   36MOL   H49736267   3.799   1.401   7.722  0.3745  1.4361  0.6265
   36MOL   H49836268   3.722   1.628   7.682  0.8359  0.6245  0.7525
   36MOL   H49936269   3.763   1.832   7.571 -2.8318 -1.4042 -0.8836
   36MOL   H50036270   3.768   2.049   7.493  0.0046  2.4160 -0.4103
   36MOL   H50136271   3.764   2.208   7.280  0.7639  0.2480 -2.3271
   36MOL   H50236272   3.706   2.175   7.049 -1.6507 -2.8205 -1.1834
   36MOL   H50336273   3.802   2.085   6.940 -0.1133 -2.2118  1.8593
   36MOL   H50436274   3.837   1.862   7.037 -0.2181  0.8806  0.2574
   36MOL   H50536275   3.835   1.713   7.226  4.0054  0.8542 -3.1210
   36MOL   H50636276   4.010   1.653   7.347 -0.2399 -0.2025 -0.6498
   36MOL   H50736277   4.080   1.430   7.393  0.5012  3.0078 -1.2472
   36MOL   H50836278   4.019   1.240   7.337 -0.3436 -1.6616 -2.9441
   36MOL   H50936279   4.128   1.052   7.224 -0.7820  0.0789 -0.4932
   36MOL   H51036280   4.360   0.824   7.551  2.1899 -1.7741  2.5471
   36MOL   H51136281   4.462   0.642   7.662  0.8986 -1.6641 -0.5155
   36MOL   N51236282   3.907   2.233   7.039 -0.1974  0.3935 -0.4211
   36MOL   C51336283   3.909   2.329   6.939 -0.4126 -0.3605 -0.4457
   36MOL   C51436284   4.030   2.390   6.909  0.2614  0.2597  0.3224
   36MOL   C51536285   4.042   2.492   6.808 -0.3381  0.3809 -0.0955
   36MOL   C51636286   3.933   2.526   6.729  0.2191 -0.0505  0.3424
   36MOL   N51736287   3.947   2.625   6.629  0.3542 -0.3282  0.1452
   36MOL   C51836288   3.879   2.643   6.508  0.3557  0.4232 -1.0479
   36MOL   C51936289   3.824   2.533   6.436  0.2375  0.0766 -0.3585
   36MOL   C52036290   3.760   2.546   6.311  0.4772 -0.2258  0.0357
   36MOL   C52136291   3.736   2.682   6.264 -0.7646  0.1956  0.3995
   36MOL   N52236292   3.674   2.698   6.144  0.0448 -0.7722  0.4498
   36MOL   C52336293   3.588   2.614   6.074 -0.2045  0.7923  0.4152
   36MOL   C52436294   3.602   2.592   5.936 -0.4883  0.8009  0.0489
   36MOL   C52536295   3.509   2.521   5.867  0.3999 -0.2556 -1.2456
   36MOL   C52636296   3.404   2.451   5.935 -0.3417  0.5542  0.4903
   36MOL   N52736297   3.304   2.377   5.864  0.1243 -0.0585 -0.4492
   36MOL   C52836298   3.176   2.347   5.910 -0.0917 -0.0160  0.4219
   36MOL   C52936299   3.099   2.428   5.996  0.2206 -0.2998 -0.2049
   36MOL   C53036300   2.973   2.383   6.045  0.7928 -0.0015  0.8991
   36MOL   C53136301   2.926   2.260   5.997  0.1888  0.2811  0.4254
   36MOL   C53236302   2.789   2.216   6.043 -0.1988 -0.2485 -0.3510
   36MOL   C53336303   3.003   2.183   5.907 -0.5489 -0.0129 -0.4588
   36MOL   C53436304   3.131   2.219   5.874 -0.5486  0.0906  0.3956
   36MOL   C53536305   3.404   2.455   6.074  0.6097 -0.4835  0.2809
   36MOL   C53636306   3.494   2.536   6.142  0.0507 -0.9116 -0.8991
   36MOL   C53736307   3.803   2.792   6.327  0.1160  0.6627  0.1110
   36MOL   C53836308   3.866   2.772   6.446 -0.7313  0.4988 -0.8776
   36MOL   C53936309   3.808   2.458   6.749  0.1629  0.2940 -0.3604
   36MOL   C54036310   3.798   2.367   6.860 -0.0431  0.2558  0.0076
   36MOL   H54136311   3.980   2.242   7.109  1.6085 -0.3394 -2.1620
   36MOL   H54236312   4.120   2.368   6.965  0.7506 -0.9724 -0.9305
   36MOL   H54336313   4.141   2.536   6.804  0.2990 -0.7627  2.3923
   36MOL   H54436314   4.019   2.692   6.652 -0.9657  0.3540  2.4028
   36MOL   H54536315   3.842   2.434   6.476  0.4835  0.4804  0.5407
   36MOL   H54636316   3.724   2.458   6.260  0.2313 -0.9742  1.4793
   36MOL   H54736317   3.681   2.789   6.101 -0.6146 -0.6161  0.6723
   36MOL   H54836318   3.674   2.641   5.872 -0.5642 -1.5734 -1.9455
   36MOL   H54936319   3.505   2.525   5.759 -0.3174  2.2475 -1.1566
   36MOL   H55036320   3.341   2.307   5.801 -0.1769  2.7690 -3.8880
   36MOL   H55136321   3.137   2.526   6.021 -0.8529  0.4975 -1.6295
   36MOL   H55236322   2.915   2.444   6.112 -2.0487 -0.5046 -1.0664
   36MOL   H55336323   2.803   2.192   6.149 -0.8218  0.5374 -0.0902
   36MOL   H55436324   2.753   2.125   5.996 -1.6560  0.1340 -0.0042
   36MOL   H55536325   2.962   2.094   5.861  0.2366 -0.6866  0.1112
   36MOL   H55636326   3.192   2.156   5.812 -0.3058  0.4912  0.2277
   36MOL   H55736327   3.321   2.410   6.126 -0.8008  2.0134  0.2453
   36MOL   H55836328   3.491   2.539   6.250 -0.6771 -1.7323 -0.8939
   36MOL   H55936329   3.797   2.892   6.287  1.5167  1.7206  2.4440
   36MOL   H56036330   3.909   2.857   6.497  1.5490 -1.3787  0.4289
   36MOL   H56136331   3.721   2.477   6.687 -0.6443 -3.5736 -0.5597
   36MOL   H56236332   3.701   2.330   6.890 -0.2285  0.2576 -0.5822
   36MOL   N56336333   2.680   2.313   6.036  0.5805 -0.4564  0.0087
   36MOL   C56436334   2.626   2.346   5.914  0.1060 -0.3532  0.3511
   36MOL   C56536335   2.703   2.368   5.803  0.3506  0.1233  0.1946
   36MOL   C56636336   2.641   2.393   5.684  0.0754 -0.2690  0.5960
   36MOL   C56736337   2.499   2.396   5.677  0.3561 -0.0088  0.1697
   36MOL   N56836338   2.435   2.420   5.551  0.0846 -0.3303 -0.4993
   36MOL   C56936339   2.307   2.380   5.525 -1.1169 -0.8150  0.1583
   36MOL   C57036340   2.276   2.240   5.529  0.6381  0.1520  0.1584
   36MOL   C57136341   2.143   2.199   5.493  0.1919  0.2927 -0.4112
   36MOL   C57236342   2.047   2.292   5.462  0.0754 -0.1725  0.3886
   36MOL   N57336343   1.911   2.259   5.447 -0.2990  0.1878 -0.2800
   36MOL   C57436344   1.818   2.230   5.551 -0.1811 -0.3345  0.4045
   36MOL   C57536345   1.844   2.218   5.692 -0.4550 -0.4738  0.1695
   36MOL   C57636346   1.746   2.169   5.778 -0.2919  0.6112 -0.0092
   36MOL   C57736347   1.620   2.142   5.731 -0.3156  0.2631 -0.6894
   36MOL   N57836348   1.533   2.089   5.828  0.1505  0.5414  0.0502
   36MOL   C57936349   1.421   2.007   5.816  0.5957 -0.0861 -0.1305
   36MOL   C58036350   1.383   1.933   5.701 -0.3062 -0.3956 -0.5790
   36MOL   C58136351   1.272   1.846   5.703  0.4199 -0.4679  0.4573
   36MOL   C58236352   1.189   1.849   5.820 -0.0622 -0.4159 -0.7198
   36MOL   C58336353   1.063   1.770   5.817 -0.1117 -0.1644  0.2338
   36MOL   C58436354   1.234   1.914   5.933 -0.7661 -0.2951  0.2633
   36MOL   C58536355   1.344   2.005   5.935  0.9093 -0.1294 -0.1990
   36MOL   C58636356   1.584   2.172   5.596 -0.0601  0.2262 -0.2370
   36MOL   C58736357   1.686   2.215   5.511  0.2827 -0.5200  0.3414
   36MOL   C58836358   2.087   2.432   5.450 -0.2046 -0.5696 -0.3029
   36MOL   C58936359   2.219   2.475   5.479  0.1264 -0.4391 -0.4586
   36MOL   C59036360   2.422   2.384   5.795  1.0840  0.3508 -0.3232
   36MOL   C59136361   2.487   2.360   5.918 -0.2917  0.3102 -0.8865
   36MOL   H59236362   2.619   2.306   6.116  0.2508 -1.6868 -0.3432
   36MOL   H59336363   2.811   2.371   5.803  0.4799 -2.5023 -2.0629
   36MOL   H59436364   2.702   2.408   5.596 -1.9408  0.1905 -0.7607
   36MOL   H59536365   2.485   2.471   5.480 -0.3058 -2.6582 -2.5061
   36MOL   H59636366   2.356   2.174   5.558  0.3918  0.0715  0.6570
   36MOL   H59736367   2.124   2.094   5.505 -2.4634  0.7226 -0.5375
   36MOL   H59836368   1.868   2.283   5.359  0.9364  0.0860 -0.9302
   36MOL   H59936369   1.937   2.254   5.734 -2.6527  2.9970  2.2681
   36MOL   H60036370   1.778   2.148   5.880 -0.8675  2.1974  0.5168
   36MOL   H60136371   1.544   2.117   5.924  0.0469 -0.1546  0.2691
   36MOL   H60236372   1.443   1.931   5.611 -0.5793 -0.1874 -0.7659
   36MOL   H60336373   1.232   1.796   5.616  0.2654 -0.2884  0.4242
   36MOL   H60436374   1.047   1.715   5.909  0.6405 -0.3285  0.2624
   36MOL   H60536375   1.043   1.713   5.726  0.4614 -1.2593  0.8002
   36MOL   H60636376   1.171   1.909   6.021 -2.7976 -1.8611 -1.2555
   36MOL   H60736377   1.362   2.062   6.024 -0.8898  0.4345 -0.1616
   36MOL   H60836378   1.484   2.154   5.559  0.1881 -1.1200 -0.2688
   36MOL   H60936379   1.660   2.223   5.407 -0.4933 -0.3556  0.5450
   36MOL   H61036380   2.015   2.504   5.415  1.1351  0.3292 -1.2967
   36MOL   H61136381   2.252   2.578   5.474  3.1969 -1.3623 -0.6149
   36MOL   H61236382   2.315   2.396   5.786  0.9041 -0.1351  0.9709
   36MOL   H61336383   2.429   2.342   6.007  1.1217 -0.7400 -0.1505
   36MOL   N61436384   0.950   1.868   5.824  0.4652  0.7448  1.0542
   36MOL   C61536385   0.826   1.809   5.857  0.0257 -0.7457 -1.0388
   36MOL   C61636386   0.755   1.858   5.970  0.5978 -0.1859 -0.0007
   36MOL   C61736387   0.634   1.805   6.007  0.2007 -0.2701  0.4102
   36MOL   C61836388   0.581   1.691   5.935 -0.1204 -0.1364  0.1348
   36MOL   N61936389   0.472   1.631   5.993  0.0719  0.5919  0.6271
   36MOL   C62036390   0.364   1.581   5.925 -0.9347  0.0040 -0.0116
   36MOL   C62136391   0.327   1.639   5.806 -0.3598 -0.2981 -0.4272
   36MOL   C62236392   0.222   1.583   5.728  0.2201 -0.4429  0.1145
   36MOL   C62336393   0.149   1.470   5.774 -0.2757 -0.0768 -0.7651
   36MOL   N62436394   0.047   1.407   5.706 -1.0002 -0.3721 -0.5728
   36MOL   C62536395   7.980   1.466   5.589  0.0736 -0.2699 -0.3449
   36MOL   C62636396   0.040   1.418   5.461 -0.5496  0.0254 -0.8700
   36MOL   C62736397   7.979   1.484   5.341  0.2144  0.0221  0.0118
   36MOL   C62836398   7.879   1.588   5.353  0.2734  0.2991  0.7068
   36MOL   N62936399   7.824   1.650   5.244  0.0520  1.3860 -0.0211
   36MOL   C63036400   7.874   1.642   5.114 -0.1014 -0.2637  0.3204
   36MOL   C63136401   7.815   1.553   5.022 -1.0698  0.5308  0.1085
   36MOL   C63236402   7.866   1.544   4.894 -0.0995 -0.1439  0.0177
   36MOL   C63336403   7.977   1.622   4.856  0.0672  1.0346 -0.3541
   36MOL   C63436404   0.028   1.636   4.707  0.4602  0.3738 -0.3371
   36MOL   C63536405   0.066   1.694   4.956 -0.0513 -0.4285  0.4492
   36MOL   C63636406   0.005   1.714   5.079  0.2339 -0.3194  1.0888
   36MOL   C63736407   7.841   1.626   5.483 -0.3721  0.8712 -0.3826
   36MOL   C63836408   7.896   1.572   5.603  0.4196  1.5300  0.2159
   36MOL   C63936409   0.195   1.412   5.892 -0.5144  0.1779 -0.4804
   36MOL   C64036410   0.289   1.470   5.969 -0.4665 -0.6587 -0.4822
   36MOL   C64136411   0.648   1.649   5.818 -0.2444  0.4935  0.0916
   36MOL   C64236412   0.771   1.703   5.779 -0.1188  0.4860 -0.4106
   36MOL   H64336413   0.980   1.941   5.887  1.1809 -0.1031  1.7174
   36MOL   H64436414   0.803   1.933   6.032 -2.5983  2.1064 -0.1896
   36MOL   H64536415   0.588   1.851   6.093 -0.5299  2.0801 -1.1807
   36MOL   H64636416   0.436   1.667   6.081 -1.7771 -1.6767  0.8656
   36MOL   H64736417   0.379   1.725   5.764 -3.4985  1.7679 -0.2929
   36MOL   H64836418   0.196   1.631   5.635  1.1969 -0.2221 -0.0473
   36MOL   H64936419   0.022   1.317   5.743 -1.3153  0.5894  1.6356
   36MOL   H65036420   0.107   1.335   5.447 -0.8103 -0.7146  2.0248
   36MOL   H65136421   0.035   1.452   5.246  1.6050 -0.8004  0.8239
   36MOL   H65236422   7.725   1.665   5.255 -0.4652  0.2187 -2.7512
   36MOL   H65336423   7.726   1.500   5.052  0.5411 -2.1770  0.2346
   36MOL   H65436424   7.815   1.481   4.823 -1.9070  0.9625  0.2974
   36MOL   H65536425   7.980   1.734   4.668  0.0560  0.0999 -0.7213
   36MOL   H65636426   7.958   1.565   4.643  1.7808 -0.1153 -0.8961
   36MOL   H65736427   0.161   1.740   4.932  1.0005 -2.1818  1.1730
   36MOL   H65836428   0.055   1.777   5.151  2.8178  1.7281 -2.3196
   36MOL   H65936429   7.773   1.710   5.488 -0.9168  0.5179 -1.4787
   36MOL   H66036430   7.865   1.617   5.696 -2.1138  2.3823 -0.9910
   36MOL   H66136431   0.144   1.328   5.938  0.0084 -0.8207 -1.6881
   36MOL   H66236432   0.314   1.420   6.061  1.9603 -2.8896 -2.2750
   36MOL   H66336433   0.601   1.569   5.763 -0.1850  1.2814 -1.1290
   36MOL   H66436434   0.813   1.660   5.689 -0.2676  0.9310 -0.6950
   36MOL   N66536435   0.173   1.612   4.681 -0.0112 -0.0698 -0.5257
   36MOL   C66636436   0.231   1.687   4.584  0.5073  0.2651 -0.4214
   36MOL   C66736437   0.357   1.738   4.609  0.2115 -0.1319 -0.4217
   36MOL   C66836438   0.420   1.826   4.518  0.1078  0.8302 -0.0145
   36MOL   C66936439   0.367   1.848   4.392 -0.4704 -0.4035 -0.0479
   36MOL   N67036440   0.433   1.914   4.286  0.4054  0.0237 -0.3186
   36MOL   C67136441   0.534   2.011   4.274  0.0322 -0.4055 -0.6867
   36MOL   C67236442   0.616   2.060   4.381  1.0369 -0.2509 -1.2513
   36MOL   C67336443   0.711   2.159   4.351 -0.4410 -0.2812  0.3216
   36MOL   C67436444   0.711   2.217   4.222  0.3518 -0.5295 -0.3206
   36MOL   N67536445   0.795   2.333   4.197 -0.2076  0.4844 -0.0270
   36MOL   C67636446   0.915   2.371   4.260  0.3225 -0.1089  0.0861
   36MOL   C67736447   1.001   2.266   4.305  0.4479 -0.0584 -0.2129
   36MOL   C67836448   1.127   2.309   4.357 -0.2947 -0.6038 -0.1955
   36MOL   C67936449   1.155   2.444   4.368 -0.6507  0.0828 -1.3023
   36MOL   N68036450   1.284   2.481   4.416  0.2450  0.0581  0.0999
   36MOL   C68136451   1.338   2.450   4.544 -0.2643  0.4537 -0.3071
   36MOL   C68236452   1.279   2.349   4.631  0.4376 -0.4487 -0.6880
   36MOL   C68336453   1.321   2.341   4.763  0.2444 -0.0943 -0.5184
   36MOL   C68436454   1.433   2.405   4.810  0.6332 -0.1840  0.1211
   36MOL   C68536455   1.492   2.379   4.950  0.0486  0.2890  0.7492
   36MOL   C68636456   1.499   2.492   4.722 -0.2180 -0.6096 -0.2792
   36MOL   C68736457   1.450   2.519   4.594  0.5038  0.2101 -0.1733
   36MOL   C68836458   1.063   2.541   4.341 -0.5283  0.4154  0.5165
   36MOL   C68936459   0.937   2.504   4.280 -0.0251 -0.4794  0.0940
   36MOL   C69036460   0.626   2.167   4.122 -0.0555 -1.0544 -0.0728
   36MOL   C69136461   0.534   2.069   4.151 -0.0308  0.0035 -0.1111
   36MOL   C69236462   0.251   1.786   4.356  0.5146  0.7164 -0.1340
   36MOL   C69336463   0.178   1.716   4.453 -0.1780  0.2475  0.3952
   36MOL   H69436464   0.219   1.631   4.769 -1.7569 -0.1546  0.4118
   36MOL   H69536465   0.396   1.727   4.709 -0.6673 -2.7634 -0.3337
   36MOL   H69636466   0.515   1.862   4.556 -1.1013  2.2490  1.7698
   36MOL   H69736467   0.382   1.893   4.201  2.4222 -2.6691 -0.9365
   36MOL   H69836468   0.593   2.023   4.479 -2.1653  1.9372 -1.1156
   36MOL   H69936469   0.770   2.199   4.432 -0.3188  0.0875  0.0549
   36MOL   H70036470   0.768   2.388   4.116  1.4220  0.5804 -0.5090
   36MOL   H70136471   0.968   2.164   4.293  0.8378 -0.4098  1.5940
   36MOL   H70236472   1.199   2.237   4.394 -2.3204 -0.8606  3.4946
   36MOL   H70336473   1.341   2.536   4.353 -0.5596 -0.1338 -0.8097
   36MOL   H70436474   1.188   2.292   4.617  1.0589 -1.9578  1.2165
   36MOL   H70536475   1.278   2.268   4.830 -1.0108  1.4245  0.3481
   36MOL   H70636476   1.600   2.380   4.934 -0.1531 -1.1263 -0.8423
   36MOL   H70736477   1.476   2.278   4.988 -1.0408  0.2745  0.2867
   36MOL   H70836478   1.578   2.543   4.775 -0.4356 -0.9602  0.3868
   36MOL   H70936479   1.498   2.595   4.534  0.2180  0.0881 -0.5623
   36MOL   H71036480   1.089   2.645   4.355  1.4662  0.2014 -1.3332
   36MOL   H71136481   0.868   2.581   4.249  0.7993  0.0343 -0.4666
   36MOL   H71236482   0.631   2.201   4.020 -0.4810 -0.2052  0.1901
   36MOL   H71336483   0.462   2.043   4.074 -1.0835  0.1428  0.8198
   36MOL   H71436484   0.204   1.794   4.259  1.0690  0.3285 -0.4383
   36MOL   H71536485   0.085   1.670   4.420  0.0114  0.0576  0.1220
   36MOL   N71636486   1.450   2.483   5.047 -0.1446 -0.6932 -0.4561
   36MOL   C71736487   1.507   2.506   5.173  0.5796 -0.1276  0.5556
   36MOL   C71836488   1.641   2.489   5.194 -0.3394 -0.2727 -0.1646
   36MOL   C71936489   1.704   2.543   5.307 -0.6375  0.3411 -0.3342
   36MOL   C72036490   1.630   2.600   5.409  0.7076 -0.3552 -0.1527
   36MOL   N72136491   1.694   2.639   5.526  0.7152 -0.5136 -0.4668
   36MOL   C72236492   1.647   2.751   5.606  0.9668  0.2479 -0.0544
   36MOL   C72336493   1.643   2.744   5.749  0.4628 -0.1664 -0.4936
   36MOL   C72436494   1.620   2.863   5.816  0.0571 -0.4066 -0.0303
   36MOL   C72536495   1.600   2.979   5.747 -0.1812  0.1616 -0.6093
   36MOL   N72636496   1.564   3.099   5.806 -0.4640  0.3095 -0.2110
   36MOL   C72736497   1.555   3.148   5.932 -0.1212  0.6487 -0.3749
   36MOL   C72836498   1.463   3.243   5.966  0.1161 -0.4209  0.0903
   36MOL   C72936499   1.439   3.274   6.098  0.2182 -0.2835 -0.4594
   36MOL   C73036500   1.521   3.218   6.204 -0.2792 -0.8541 -0.1665
   36MOL   N73136501   1.505   3.244   6.342 -0.2514 -0.0685 -0.3457
   36MOL   C73236502   1.385   3.274   6.403 -0.0276 -0.6257  0.2608
   36MOL   C73336503   1.256   3.227   6.359  0.4991  0.6619  0.3141
   36MOL   C73436504   1.133   3.267   6.418 -0.1463 -0.2835 -0.2129
   36MOL   C73536505   1.138   3.352   6.535  0.0798  0.0888 -0.1565
   36MOL   C73636506   1.010   3.395   6.601  1.1065 -0.2311  0.2157
   36MOL   C73736507   1.262   3.397   6.578 -0.5510 -0.0889 -0.6849
   36MOL   C73836508   1.383   3.364   6.511 -0.3307 -0.2229  0.1594
   36MOL   C73936509   1.621   3.122   6.170  0.4773 -0.2788  0.4491
   36MOL   C74036510   1.633   3.088   6.036 -0.4038  0.4441 -0.4187
   36MOL   C74136511   1.605   2.982   5.611  0.1825  0.3159 -0.3849
   36MOL   C74236512   1.631   2.868   5.537  0.1046  0.5422 -0.0466
   36MOL   C74336513   1.487   2.601   5.399 -0.0204  0.1875  0.4913
   36MOL   C74436514   1.432   2.558   5.277  0.0048  0.7850 -0.0926
   36MOL   H74536515   1.351   2.502   5.046 -0.3911 -1.8464  0.3872
   36MOL   H74636516   1.700   2.456   5.110 -0.4893 -1.5722  0.2375
   36MOL   H74736517   1.811   2.532   5.312 -0.6965  0.1215  0.7176
   36MOL   H74836518   1.756   2.571   5.567  0.6974 -0.0674  0.3250
   36MOL   H74936519   1.646   2.647   5.798  2.6834  0.1558  0.0697
   36MOL   H75036520   1.600   2.850   5.921 -0.1501  0.2718  0.0139
   36MOL   H75136521   1.540   3.167   5.736  1.2753  1.7299  0.5480
   36MOL   H75236522   1.400   3.294   5.894  1.3930  0.7854 -0.1997
   36MOL   H75336523   1.366   3.352   6.119 -0.0104 -0.5492 -0.2684
   36MOL   H75436524   1.572   3.224   6.414  0.6945 -0.5786 -1.3540
   36MOL   H75536525   1.251   3.165   6.271 -0.4281  0.3967  0.5499
   36MOL   H75636526   1.036   3.255   6.373 -0.1997 -0.6206 -0.0113
   36MOL   H75736527   1.006   3.373   6.708 -1.2667 -2.8930 -0.3614
   36MOL   H75836528   0.922   3.349   6.555 -1.5487  0.8624  3.9589
   36MOL   H75936529   1.263   3.459   6.666  0.8744  0.8318 -1.3251
   36MOL   H76036530   1.476   3.409   6.543 -1.2147  0.7084  1.4661
   36MOL   H76136531   1.682   3.075   6.246 -0.4623 -0.0812  1.3319
   36MOL   H76236532   1.698   3.006   6.011 -0.8133  0.2759 -0.9368
   36MOL   H76336533   1.595   3.075   5.557  2.6702 -0.3689 -2.1277
   36MOL   H76436534   1.632   2.866   5.429  0.9004  0.8078 -0.0460
   36MOL   H76536535   1.428   2.643   5.479  0.6944 -1.0807  1.6978
   36MOL   H76636536   1.324   2.565   5.277 -0.0865 -0.5413  0.2231
   36MOL   N76736537   0.979   3.536   6.574 -0.1700  0.5261  0.7139
   36MOL   C76836538   0.867   3.591   6.630 -0.6924 -1.2230 -0.4044
   36MOL   C76936539   0.849   3.733   6.612  0.1675  0.4871  0.3797
   36MOL   C77036540   0.725   3.790   6.630  1.0588  0.1425 -0.7470
   36MOL   C77136541   0.624   3.717   6.703  0.4074  0.5847  0.2018
   36MOL   N77236542   0.506   3.784   6.731  0.5294 -0.0437  0.3379
   36MOL   C77336543   0.405   3.747   6.815  0.2479 -0.1173  0.5391
   36MOL   C77436544   0.428   3.696   6.942 -0.1615 -0.3690 -0.5171
   36MOL   C77536545   0.320   3.653   7.022 -0.1325 -0.2081  0.4405
   36MOL   C77636546   0.187   3.651   6.971  0.2034 -0.8325 -0.8175
   36MOL   N77736547   0.085   3.595   7.048  0.3019  0.0913  0.5040
   36MOL   C77836548   7.947   3.578   6.998  1.0112  0.4358 -0.1283
   36MOL   C77936549   7.927   3.463   6.919  0.2328  0.4310 -0.6438
   36MOL   C78036550   7.799   3.446   6.859 -1.0589  0.3763  0.3197
   36MOL   C78136551   7.700   3.545   6.869  0.1258  0.1014 -0.3017
   36MOL   N78236552   7.570   3.530   6.822 -0.3847 -1.0760  0.3997
   36MOL   C78336553   7.541   3.482   6.694  0.2328  0.1435 -0.1494
   36MOL   C78436554   7.637   3.459   6.596  0.0650  0.5478 -0.1312
   36MOL   C78536555   7.597   3.395   6.472 -0.3824  0.5660 -0.8329
   36MOL   C78636556   7.461   3.368   6.446 -0.5877  0.7698 -0.5283
   36MOL   C78736557   7.410   3.305   6.321 -0.0094  0.3457  0.9886
   36MOL   C78836558   7.364   3.398   6.541 -0.1725 -0.0756 -0.0764
   36MOL   C78936559   7.407   3.452   6.666 -1.0564  0.2365  0.4101
   36MOL   C79036560   7.719   3.660   6.947 -1.0332  0.0530 -0.4227
   36MOL   C79136561   7.843   3.677   7.007  0.0100 -0.6207 -0.3287
   36MOL   C79236562   0.167   3.710   6.845 -0.0560 -0.1928 -0.6554
   36MOL   C79336563   0.274   3.763   6.772 -0.1508  0.2207 -0.3938
   36MOL   C79436564   0.644   3.578   6.728 -0.2453  0.1257 -0.2434
   36MOL   C79536565   0.763   3.515   6.689 -0.4178  0.0379 -1.1846
   36MOL   H79636566   1.042   3.574   6.505  0.5141  1.4267  1.8092
   36MOL   H79736567   0.920   3.803   6.570  0.0450 -0.3783 -1.3466
   36MOL   H79836568   0.708   3.891   6.596  2.7220  0.7296  0.1328
   36MOL   H79936569   0.493   3.879   6.699 -2.4891 -0.2913  0.6698
   36MOL   H80036570   0.527   3.680   6.984 -0.9406  0.8763  1.8641
   36MOL   H80136571   0.348   3.613   7.118  0.3991 -1.1515 -0.1077
   36MOL   H80236572   0.098   3.566   7.144 -0.2492 -2.1809 -0.0841
   36MOL   H80336573   0.023   3.391   6.899  0.7748  1.0675 -0.8211
   36MOL   H80436574   7.778   3.361   6.796  0.6857 -0.7475  1.2048
   36MOL   H80536575   7.497   3.592   6.855  1.1541  0.8643  0.2426
   36MOL   H80636576   7.737   3.491   6.621 -0.8964  1.4918  2.6558
   36MOL   H80736577   7.673   3.385   6.396  0.3807 -1.3833  0.1381
   36MOL   H80836578   7.351   3.382   6.271  1.9278  1.2364  0.0306
   36MOL   H80936579   7.342   3.223   6.345  1.6238 -1.2583  0.2414
   36MOL   H81036580   7.259   3.375   6.533 -0.2096  0.3471 -0.8253
   36MOL   H81136581   7.319   3.476   6.722 -1.5633  0.5221 -0.5004
   36MOL   H81236582   7.653   3.744   6.955 -0.6745  0.3041 -0.0934
   36MOL   H81336583   7.865   3.770   7.059 -0.3698 -1.9102  2.1836
   36MOL   H81436584   0.069   3.701   6.801 -0.6488 -0.1943  0.6497
   36MOL   H81536585   0.265   3.811   6.676 -0.3594 -1.0929 -1.0523
   36MOL   H81636586   0.562   3.513   6.756  1.0911 -1.2432  0.6032
   36MOL   H81736587   0.784   3.409   6.697 -3.0669 -0.7624 -3.7525
   36MOL   N81836588   7.512   3.248   6.232 -0.3876 -0.3602 -0.3907
   36MOL   C81936589   7.524   3.289   6.100  0.0181 -0.2891  0.9711
   36MOL   C82036590   7.566   3.190   6.003 -0.0629  0.7924  0.2334
   36MOL   C82136591   7.581   3.226   5.870 -0.0189 -0.1393  0.4254
   36MOL   C82236592   7.581   3.363   5.828 -0.0859 -0.0527  0.0523
   36MOL   N82336593   7.605   3.406   5.698 -0.5831  0.3907  0.7637
   36MOL   C82436594   7.581   3.342   5.577  0.3442  0.0088 -0.2084
   36MOL   C82536595   7.532   3.210   5.555 -0.6411  0.2173 -0.0469
   36MOL   C82636596   7.523   3.153   5.429  0.4182 -1.2544  0.0387
   36MOL   C82736597   7.569   3.221   5.319  0.4440 -0.1421 -0.7800
   36MOL   N82836598   7.580   3.151   5.201  0.0985  0.4560  0.4075
   36MOL   C82936599   7.511   3.039   5.150  0.1457 -0.6223  0.1141
   36MOL   C83036600   7.572   2.963   5.049 -0.2692 -0.4663 -0.3720
   36MOL   C83136601   7.510   2.850   5.002  0.5835  0.4258  0.2438
   36MOL   C83236602   7.376   2.823   5.039 -0.4388 -0.1772  0.3868
   36MOL   N83336603   7.323   2.705   4.975 -0.0776 -0.3759  0.2564
   36MOL   C83436604   7.200   2.639   4.988 -1.1748  0.5686 -0.7672
   36MOL   C83536605   7.144   2.571   4.876 -0.3904 -0.4779 -0.2557
   36MOL   C83636606   7.027   2.495   4.884 -0.9695 -0.1774 -0.1537
   36MOL   C83736607   6.955   2.488   5.000 -0.0067 -0.0010  0.0964
   36MOL   C83836608   6.823   2.406   5.004 -0.4943 -0.1201  0.1927
   36MOL   C83936609   7.008   2.537   5.122  0.3832 -0.5240 -0.0001
   36MOL   C84036610   7.128   2.619   5.114 -0.2577 -0.2001 -0.1144
   36MOL   C84136611   7.306   2.904   5.123  0.8251  0.1984  0.0770
   36MOL   C84236612   7.376   3.001   5.186 -0.5027 -0.0149  0.4512
   36MOL   C84336613   7.612   3.359   5.337  0.2972  0.9128  0.2541
   36MOL   C84436614   7.610   3.419   5.464  0.1982  0.0371  0.3649
   36MOL   C84536615   7.568   3.463   5.932 -0.3708 -0.2826  0.0925
   36MOL   C84636616   7.519   3.427   6.060 -0.4022 -0.5658 -0.0317
   36MOL   H84736617   7.541   3.154   6.256  0.8996  0.5924  1.8500
   36MOL   H84836618   7.564   3.088   6.039  1.3553  1.2658  1.6819
   36MOL   H84936619   7.609   3.153   5.796  2.4614 -0.8318  1.9796
   36MOL   H85036620   7.620   3.506   5.693  2.0973 -0.0389 -0.6249
   36MOL   H85136621   7.489   3.137   5.622  0.4074 -0.7918 -0.4618
   36MOL   H85236622   7.495   3.049   5.417  0.0877 -1.0590 -0.8603
   36MOL   H85336623   7.635   3.198   5.130  0.4435  0.1672  0.4808
   36MOL   H85436624   7.675   2.979   5.020 -0.1035  0.5191  0.7106
   36MOL   H85536625   7.562   2.789   4.929 -0.0647  0.5572 -0.3412
   36MOL   H85636626   7.384   2.660   4.909  1.1962  0.5080  0.8060
   36MOL   H85736627   7.183   2.580   4.776  1.8048  0.0124  0.5977
   36MOL   H85836628   6.984   2.445   4.799 -1.3851 -1.8515  1.0097
   36MOL   H85936629   6.748   2.463   4.950 -0.4829  0.1450  0.4538
   36MOL   H86036630   6.795   2.389   5.108  0.5997 -1.2450  0.3186
   36MOL   H86136631   6.946   2.524   5.210  0.8359 -0.1634  0.3731
   36MOL   H86236632   7.152   2.668   5.208  1.9571 -1.4204 -0.0279
   36MOL   H86336633   7.201   2.886   5.144  0.2533  1.6238 -1.5187
   36MOL   H86436634   7.322   3.058   5.260 -1.4635 -2.4631  1.6906
   36MOL   H86536635   7.629   3.408   5.242 -0.3954 -0.8394 -0.8028
   36MOL   H86636636   7.638   3.523   5.466 -0.9279  0.3874 -1.1182
   36MOL   H86736637   7.571   3.566   5.900  2.8629 -0.6987 -1.0681
   36MOL   H86836638   7.501   3.509   6.127  0.3638 -0.0522 -0.4532
   36MOL   N86936639   6.835   2.275   4.936 -0.1855  0.2630 -0.2102
   36MOL   C87036640   6.755   2.172   4.983 -0.0257 -0.1677  0.8834
   36MOL   C87136641   6.627   2.197   5.036  0.4461  0.0270  0.8215
   36MOL   C87236642   6.552   2.093   5.089  0.9621 -0.0154  0.8489
   36MOL   C87336643   6.602   1.963   5.095  0.2694  0.1866  0.1711
   36MOL   N87436644   6.528   1.863   5.146 -0.2999  0.2231 -0.1339
   36MOL   C87536645   6.451   1.870   5.259  0.0183 -0.3865  0.0145
   36MOL   C87636646   6.497   1.921   5.379  0.0951 -0.0506 -0.2778
   36MOL   C87736647   6.417   1.918   5.493  0.2764  0.4617  0.0536
   36MOL   C87836648   6.288   1.869   5.492 -0.5162 -0.2160 -0.6256
   36MOL   N87936649   6.211   1.858   5.610 -0.5935  0.2827  0.0406
   36MOL   C88036650   6.207   1.955   5.712 -0.0066  0.4300 -1.2645
   36MOL   C88136651   6.262   1.923   5.837 -0.1975 -0.4371 -0.3934
   36MOL   C88236652   6.250   2.019   5.940  0.1709 -0.5131 -0.5011
   36MOL   C88336653   6.194   2.152   5.922 -0.6016 -0.7285  0.4449
   36MOL   N88436654   6.195   2.245   6.026  0.2669 -0.0322 -0.3877
   36MOL   C88536655   6.289   2.273   6.127  0.9167  0.0103  0.3681
   36MOL   C88636656   6.250   2.363   6.229  0.6499  0.3008 -0.5479
   36MOL   C88736657   6.349   2.415   6.322  0.1322  0.1013  0.0745
   36MOL   C88836658   6.479   2.372   6.309  0.0173 -0.2805 -0.0576
   36MOL   C88936659   6.587   2.422   6.405  0.4353  0.3707 -0.2315
   36MOL   C89036660   6.512   2.269   6.218  0.0079  0.2845  0.6984
   36MOL   C89136661   6.415   2.226   6.124 -0.0456 -0.5526 -0.2834
   36MOL   C89236662   6.141   2.179   5.795 -0.7867 -0.3607 -0.1577
   36MOL   C89336663   6.153   2.085   5.693  0.0737  0.6952 -0.2238
   36MOL   C89436664   6.234   1.810   5.370 -0.2339 -0.5705  0.1070
   36MOL   C89536665   6.324   1.810   5.259  0.2072 -0.1830  0.1568
   36MOL   C89636666   6.739   1.940   5.057  0.4235 -0.2135  0.2010
   36MOL   C89736667   6.818   2.043   5.005 -0.1284  0.0824  0.6185
   36MOL   H89836668   6.927   2.244   4.909 -0.9788 -2.2471 -0.1471
   36MOL   H89936669   6.578   2.292   5.022 -0.5994 -0.6571 -0.2293
   36MOL   H90036670   6.456   2.124   5.128  0.5227 -2.1925  1.5797
   36MOL   H90136671   6.577   1.775   5.145  1.3995  1.1194  1.1215
   36MOL   H90236672   6.594   1.968   5.385  0.6899 -1.0920 -1.5254
   36MOL   H90336673   6.461   1.955   5.584 -1.1548  2.9146 -0.1881
   36MOL   H90436674   6.126   1.804   5.603  0.0555 -0.6675 -0.6365
   36MOL   H90536675   6.318   1.831   5.846  0.4455  0.1465  1.8095
   36MOL   H90636676   6.289   1.990   6.037 -2.5976 -0.1535  0.7727
   36MOL   H90736677   6.103   2.279   6.049  0.9850  1.4938  0.2880
   36MOL   H90836678   6.147   2.393   6.239  0.3565 -0.2738 -1.7727
   36MOL   H90936679   6.315   2.485   6.397  0.7670  0.3235  0.1537
   36MOL   H91036680   6.626   2.342   6.468 -0.4220 -0.2189 -0.4357
   36MOL   H91136681   6.548   2.494   6.476  2.0847  0.4175  0.6550
   36MOL   H91236682   6.613   2.231   6.208 -0.5436 -0.6063 -1.8393
   36MOL   H91336683   6.451   2.159   6.047 -0.3134 -1.7241  0.6075
   36MOL   H91436684   6.096   2.276   5.782 -0.1508  0.3940  2.9026
   36MOL   H91536685   6.108   2.107   5.597  0.7623 -1.1796 -0.9793
   36MOL   H91636686   6.143   1.752   5.371 -0.7825  0.2699 -0.1645
   36MOL   H91736687   6.300   1.762   5.165 -0.0076  1.7202 -0.7801
   36MOL   H91836688   6.784   1.842   5.064  3.0298  1.0427  1.7492
   36MOL   H91936689   6.922   2.030   4.977 -0.1634  0.0718  0.4906
   36MOL   N92036690   6.700   2.479   6.342 -0.1394  0.2600 -0.2045
   36MOL   C92136691   6.814   2.526   6.413 -0.5876 -0.5990  0.3727
   36MOL   C92236692   6.836   2.509   6.553 -0.4387  0.5710  0.4077
   36MOL   C92336693   6.949   2.562   6.614  1.0215  0.0499  0.1577
   36MOL   C92436694   7.054   2.615   6.537 -0.2349 -0.2906  0.1034
   36MOL   N92536695   7.181   2.633   6.589  0.8265  0.3457  0.3863
   36MOL   C92636696   7.217   2.679   6.717 -0.0653 -0.7907  0.4100
   36MOL   C92736697   7.141   2.764   6.793  0.5279 -0.6368 -0.4991
   36MOL   C92836698   7.196   2.822   6.907 -0.3133  0.3631  0.0951
   36MOL   C92936699   7.331   2.800   6.946  0.7135  1.0881 -1.3220
   36MOL   N93036700   7.390   2.878   7.051 -0.0573 -1.3652  0.2644
   36MOL   C93136701   7.322   2.946   7.159 -0.0041 -0.1464 -0.3837
   36MOL   C93236702   7.212   2.888   7.221  0.1053 -0.1676 -0.8961
   36MOL   C93336703   7.154   2.949   7.341 -0.0049  0.5202  0.8216
   36MOL   C93436704   7.212   3.064   7.400 -0.1196 -0.1251 -0.0920
   36MOL   N93536705   7.152   3.125   7.510 -0.3649 -0.1095  0.2804
   36MOL   C93636706   7.211   3.192   7.616  0.8145  0.3138  0.2063
   36MOL   C93736707   7.319   3.137   7.678  0.1884 -1.2444 -0.3813
   36MOL   C93836708   7.385   3.218   7.776 -0.1879  0.2407 -0.0094
   36MOL   C93936709   7.332   3.345   7.819 -0.2566 -0.9385  0.3687
   36MOL   C94036710   7.414   3.444   7.900 -0.3005 -0.3636 -0.1823
   36MOL   C94136711   7.207   3.390   7.764 -0.2664 -0.2553 -1.0421
   36MOL   C94236712   7.151   3.315   7.658 -0.8130  0.8798 -0.5015
   36MOL   C94336713   7.323   3.120   7.334  0.1052  0.1670 -0.6763
   36MOL   C94436714   7.379   3.067   7.212  0.1585  0.6986  0.0039
   36MOL   C94536715   7.403   2.697   6.878  0.1223  0.2522 -0.3195
   36MOL   C94636716   7.340   2.635   6.766 -1.0071 -0.0272 -0.2283
   36MOL   C94736717   7.031   2.622   6.400 -0.3283 -0.2328  0.1295
   36MOL   C94836718   6.915   2.584   6.334  0.6975 -0.7734  0.1876
   36MOL   H94936719   6.693   2.514   6.248 -0.9512  2.8943  0.7878
   36MOL   H95036720   6.772   2.438   6.602 -0.6199  0.7202  0.3885
   36MOL   H95136721   6.977   2.542   6.717  2.5438 -1.3635 -0.5091
   36MOL   H95236722   7.259   2.608   6.530  1.2910 -0.5475  1.3584
   36MOL   H95336723   7.045   2.796   6.758  0.1463  1.1040  2.0257
   36MOL   H95436724   7.135   2.887   6.968 -1.6100  0.1606 -0.9629
   36MOL   H95536725   7.478   2.924   7.031  0.2902 -0.4768  3.5679
   36MOL   H95636726   7.168   2.794   7.191  0.7709 -0.9358  0.5082
   36MOL   H95736727   7.068   2.906   7.390 -0.7608  0.5097 -0.4752
   36MOL   H95836728   7.073   3.180   7.478  2.3044  4.7690  1.7006
   36MOL   H95936729   7.352   3.036   7.658 -0.8451 -1.6576 -0.0390
   36MOL   H96036730   7.474   3.188   7.829  0.5219  0.8559 -0.8314
   36MOL   H96136731   7.483   3.385   7.961 -2.2510 -1.8864  0.5970
   36MOL   H96236732   7.355   3.501   7.971 -0.5509  1.5139 -1.8593
   36MOL   H96336733   7.162   3.483   7.794 -0.6613 -0.3698 -1.2876
   36MOL   H96436734   7.061   3.352   7.612 -1.2708  1.7977  1.1285
   36MOL   H96536735   7.382   3.200   7.375 -1.2362  0.3287  0.9389
   36MOL   H96636736   7.469   3.114   7.177 -0.6455  0.6430 -2.2260
   36MOL   H96736737   7.504   2.673   6.910  0.2750  0.6564 -0.4868
   36MOL   H96836738   7.385   2.563   6.699  0.3088  1.6841 -1.2375
   36MOL   H96936739   7.098   2.682   6.339 -1.0402  0.8996  0.4406
   36MOL   H97036740   6.897   2.575   6.228  1.0994 -0.4134  0.0866
   36MOL   N97136741   7.481   3.534   7.811  0.1708 -0.2665  0.4594
   36MOL   C97236742   7.573   3.633   7.852  0.1014 -0.3318 -0.1225
   36MOL   C97336743   7.601   3.663   0.003 -0.0290  0.0271 -0.4624
   36MOL   C97436744   7.680   3.773   0.037 -0.2555  0.6092  0.1038
   36MOL   C97536745   7.730   3.857   7.916 -0.5242  0.5763 -0.4107
   36MOL   N97636746   7.797   3.973   7.965 -0.0762 -0.3955 -0.2394
   36MOL   C97736747   7.894   4.045   7.895 -0.8199  0.0295 -0.5686
   36MOL   C97836748   7.904   4.181   7.910 -0.6384 -0.1838 -0.0411
   36MOL   C97936749   0.023   4.252   7.847  0.0820  0.5000 -0.1171
   36MOL   C98036750   0.122   4.189   7.770 -0.6973 -0.7542  0.4683
   36MOL   N98136751   0.230   4.262   7.728 -0.6366  0.1151 -0.2261
   36MOL   C98236752   0.358   4.211   7.693 -0.1421 -0.4730 -0.2498
   36MOL   C98336753   0.424   4.106   7.757  0.4229 -1.1004 -0.1495
   36MOL   C98436754   0.537   4.045   7.702  0.8036  0.1937 -0.5873
   36MOL   C98536755   0.602   4.112   7.594  0.5843 -0.1741  0.6753
   36MOL   N98636756   0.721   4.066   7.543  0.6868 -0.8435 -0.1924
   36MOL   C98736757   0.745   4.015   7.408 -0.1486 -0.4689 -0.3754
   36MOL   C98836758   0.879   4.004   7.357  0.4935  0.6415 -0.4019
   36MOL   C98936759   0.900   3.944   7.236 -0.2353  0.0653  0.8085
   36MOL   C99036760   0.788   3.899   7.157 -0.9450  0.5865 -0.8613
   36MOL   C99136761   0.813   3.835   7.022 -0.6995 -0.0870 -0.4003
   36MOL   C99236762   0.657   3.922   7.202 -0.2638 -0.2554 -0.5259
   36MOL   C99336763   0.637   3.974   7.331  0.2457  0.1527  0.6062
   36MOL   C99436764   0.540   4.223   7.535 -1.2628  0.3931  0.4558
   36MOL   C99536765   0.420   4.278   7.584  0.2288 -0.0174 -0.6570
   36MOL   C99636766   0.109   4.049   7.753 -0.4257 -0.2427  0.1233
   36MOL   C99736767   0.003   3.978   7.810 -0.9158  0.3706 -0.2181
   36MOL   C99836768   7.696   3.837   7.785 -0.2290 -0.0609  0.0430
   36MOL   C99936769   7.626   3.716   7.752 -0.7857  0.4134  0.2063
   36MOL     H136770   7.429   3.543   7.725  1.2937  1.9540 -0.0388
   36MOL     H236771   7.585   3.592   0.083  2.3380 -2.3771 -2.0469
   36MOL     H336772   7.716   3.785   0.138  1.4522 -1.5982 -0.1750
   36MOL     H436773   7.790   3.985   0.083 -0.9688 -3.3659  0.1151
   36MOL     H536774   7.833   4.234   7.972 -0.5910 -1.6856  1.3543
   36MOL     H636775   0.015   4.357   7.869 -1.0547  0.1029  1.4395
   36MOL     H736776   0.229   4.362   7.742 -0.2457  0.0436  0.3579
   36MOL     H836777   0.379   4.044   7.832  0.6329 -1.1202 -0.0393
   36MOL     H936778   0.582   3.958   7.748  1.4268  1.9091  2.1867
   36MOL    H1036779   0.789   4.028   7.607  0.1701 -1.1449  0.1826
   36MOL    H1136780   0.965   4.034   7.414  0.9338  4.1243 -2.7577
   36MOL    H1236781   0.999   3.945   7.194 -0.0814 -4.1161  0.8387
   36MOL    H1336782   0.755   3.890   6.947 -2.4421  1.3597  1.9168
   36MOL    H1436783   0.783   3.732   7.005  0.5738 -0.3161 -1.2816
   36MOL    H1536784   0.574   3.885   7.143 -1.0121  1.2152 -0.4219
   36MOL    H1636785   0.538   3.972   7.374 -0.7633  0.4933 -1.6453
   36MOL    H1736786   0.573   4.254   7.437  0.1341 -0.0745  0.7655
   36MOL    H1836787   0.370   4.363   7.539  0.5180 -0.1786 -1.2895
   36MOL    H1936788   0.173   3.989   7.690 -1.0235  0.3074 -1.0332
   36MOL    H2036789   7.973   3.872   7.795 -0.8929  0.3926 -0.3821
   36MOL    H2136790   7.718   3.907   7.705 -1.3599  0.5921  0.2985
   36MOL    H2236791   7.610   3.702   7.647  1.9863  1.8743 -0.4700
   36MOL    H2336792   0.917   3.842   6.993 -0.3113 -1.5569  0.5700
   37MOL     N136793   2.442   0.213   1.081  0.0344 -0.4125  0.3673
   37MOL     C236794   2.491   0.291   1.184 -0.0226  0.5860  0.6722
   37MOL     C336795   2.440   0.420   1.214 -0.1409 -0.3830 -0.0296
   37MOL     C436796   2.514   0.502   1.300 -0.1298 -0.8361 -0.3621
   37MOL     C536797   2.633   0.462   1.361  0.4246 -0.0843 -0.8950
   37MOL     N636798   2.710   0.553   1.436 -0.4028  0.3071  0.0117
   37MOL     C736799   2.657   0.645   1.527 -0.3536 -0.0312  0.8158
   37MOL     C836800   2.733   0.760   1.561  0.0390  0.1087 -0.4223
   37MOL     C936801   2.691   0.839   1.668  0.5952  0.5836  0.2993
   37MOL    C1036802   2.564   0.817   1.728 -0.3099 -0.2784 -1.1670
   37MOL    N1136803   2.520   0.896   1.832 -0.6508 -0.2691  0.3270
   37MOL    C1236804   2.497   0.857   1.963  0.5321  0.5719 -0.1229
   37MOL    C1336805   2.528   0.725   2.006 -0.4068  0.6692 -0.1775
   37MOL    C1436806   2.501   0.677   2.137 -0.3012 -0.3927  0.7426
   37MOL    C1536807   2.409   0.753   2.218 -0.1887 -0.1492  0.1331
   37MOL    N1636808   2.366   0.717   2.345 -0.6254 -0.6228  0.1944
   37MOL    C1736809   2.388   0.594   2.412  0.1881 -0.2490 -0.2760
   37MOL    C1836810   2.370   0.475   2.352 -0.4480 -0.1397  0.4837
   37MOL    C1936811   2.398   0.360   2.420  0.2123  0.1809 -0.7316
   37MOL    C2036812   2.435   0.365   2.553  0.2320 -0.0656  0.1763
   37MOL    C2136813   2.461   0.237   2.633  0.4408  0.0010 -0.6670
   37MOL    C2236814   2.440   0.490   2.618 -0.2252  0.0237 -0.4400
   37MOL    C2336815   2.415   0.609   2.546 -0.3659 -0.7413  0.3786
   37MOL    C2436816   2.391   0.890   2.172 -0.6531  0.2924  0.0805
   37MOL    C2536817   2.435   0.945   2.049 -0.0077  0.5766  0.4982
   37MOL    C2636818   2.485   0.713   1.683 -0.1101 -0.2935 -0.1971
   37MOL    C2736819   2.531   0.622   1.590  0.4549 -0.3513  0.7186
   37MOL    C2836820   2.685   0.333   1.337  0.1267 -0.1557  0.1556
   37MOL    C2936821   2.618   0.248   1.244 -0.5299  0.0397 -0.4252
   37MOL    H3036822   2.496   0.129   1.063  0.0822  0.3101 -3.3510
   37MOL    H3136823   2.346   0.455   1.175 -0.7052 -3.9119 -2.0563
   37MOL    H3236824   2.494   0.608   1.305 -0.7506 -0.9145 -1.0627
   37MOL    H3336825   2.811   0.544   1.432 -0.3557  1.2065 -1.2181
   37MOL    H3436826   2.828   0.786   1.517 -0.3841  0.6375 -1.0315
   37MOL    H3536827   2.751   0.917   1.712  0.8733 -0.1483  1.2375
   37MOL    H3636828   2.577   0.979   1.841 -0.0551 -0.8024  1.5180
   37MOL    H3736829   2.590   0.659   1.948  0.0785 -1.5788  2.7598
   37MOL    H3836830   2.538   0.581   2.170  3.5902  0.9318  0.4718
   37MOL    H3936831   2.316   0.789   2.396  0.2371  0.6477 -0.7489
   37MOL    H4036832   2.327   0.477   2.253  0.7565  0.9567 -0.0310
   37MOL    H4136833   2.389   0.265   2.370  2.5262  0.1023 -1.0438
   37MOL    H4236834   2.442   0.260   2.738 -1.4209  0.9657 -1.1894
   37MOL    H4336835   2.565   0.210   2.616  0.6167  0.6228 -0.6194
   37MOL    H4436836   2.468   0.494   2.723  1.7482  1.2208 -0.9756
   37MOL    H4536837   2.424   0.708   2.590 -0.9000 -0.0656 -1.0207
   37MOL    H4636838   2.337   0.956   2.238  0.6916  2.7517 -1.2406
   37MOL    H4736839   2.420   1.043   2.008  1.2566  0.4099 -0.4081
   37MOL    H4836840   2.390   0.682   1.724  0.0185 -0.4608 -0.0244
   37MOL    H4936841   2.477   0.531   1.567  1.9386 -0.4940 -2.5831
   37MOL    H5036842   2.783   0.316   1.379  0.6250 -0.4610 -1.1371
   37MOL    H5136843   2.668   0.152   1.241  1.3920  0.9782  1.1233
   37MOL    H5236844   2.373   0.235   1.010  1.7317 -0.7242 -1.4092
   37MOL    N5336845   2.374   0.129   2.594  0.4319  0.7312 -0.2914
   37MOL    C5436846   2.394   7.982   2.639 -0.2606 -0.2725 -0.2002
   37MOL    C5536847   2.327   7.887   2.565 -0.0929  0.6574  0.5382
   37MOL    C5636848   2.328   7.752   2.600  0.2683  0.1287 -0.2200
   37MOL    C5736849   2.398   7.705   2.715 -0.4774  0.0187  0.1051
   37MOL    N5836850   2.389   7.575   2.756  0.3376  0.2623 -0.5383
   37MOL    C5936851   2.403   7.513   2.882 -0.2328  0.3969 -0.8225
   37MOL    C6036852   2.399   7.579   3.007  0.4855 -0.0839 -0.3720
   37MOL    C6136853   2.392   7.507   3.125  0.3193  0.5942  0.0291
   37MOL    C6236854   2.387   7.365   3.124 -0.3450 -0.1040  0.4888
   37MOL    N6336855   2.375   7.290   3.246 -0.0260 -0.7229  0.4543
   37MOL    C6436856   2.327   7.163   3.277  0.0169  0.4362  0.4668
   37MOL    C6536857   2.351   7.119   3.409  0.0534 -0.1929 -0.4099
   37MOL    C6636858   2.289   7.007   3.456 -0.3909 -0.3832 -0.5365
   37MOL    C6736859   2.192   6.935   3.376  0.5096 -1.0147  0.1644
   37MOL    N6836860   2.119   6.839   3.439 -0.2889 -0.0485 -0.0065
   37MOL    C6936861   2.167   6.718   3.501  0.6943  0.0001 -0.2747
   37MOL    C7036862   2.295   6.686   3.532 -0.0321 -0.4733 -0.4672
   37MOL    C7136863   2.324   6.578   3.609  0.0897  0.5995  0.8525
   37MOL    C7236864   2.227   6.489   3.653 -0.3752  0.1822 -0.1154
   37MOL    C7336865   2.255   6.359   3.724 -0.3643 -0.3563  0.4806
   37MOL    C7436866   2.094   6.519   3.632  1.0997 -0.5140 -0.7336
   37MOL    C7536867   2.063   6.637   3.553  0.3232  0.0923  0.6717
   37MOL    C7636868   2.176   6.964   3.243 -0.0869  0.1555 -0.2342
   37MOL    C7736869   2.243   7.080   3.191 -0.3568 -0.5102  0.5753
   37MOL    C7836870   2.397   7.302   3.004 -0.4699  0.8254  0.3163
   37MOL    C7936871   2.402   7.371   2.883  0.0080 -0.0986  0.1370
   37MOL    C8036872   2.465   7.804   2.792  0.6313 -0.5187  0.5502
   37MOL    C8136873   2.461   7.940   2.755  0.1152 -0.8366 -0.5021
   37MOL    H8236874   2.295   0.159   2.538  0.4442  0.3349 -0.5152
   37MOL    H8336875   2.253   7.914   2.491 -2.0998 -0.7663  1.9636
   37MOL    H8436876   2.252   7.689   2.557  0.8779 -0.6001 -0.2367
   37MOL    H8536877   2.355   7.509   2.687  0.0994  0.0577 -0.2312
   37MOL    H8636878   2.377   7.685   3.013 -2.2583 -0.7148  1.9855
   37MOL    H8736879   2.387   7.553   3.222  1.0962 -0.5786  0.6268
   37MOL    H8836880   2.403   7.349   3.323  0.7750 -0.5049  0.0070
   37MOL    H8936881   2.419   7.167   3.477 -0.7181 -0.3146  0.4448
   37MOL    H9036882   2.297   6.977   3.559  1.0356 -1.4537 -0.9393
   37MOL    H9136883   2.026   6.821   3.404 -0.6625  1.8681 -0.0484
   37MOL    H9236884   2.377   6.747   3.495 -0.2924 -0.2307 -0.6437
   37MOL    H9336885   2.431   6.562   3.613  0.2619  1.8971  1.9612
   37MOL    H9436886   2.222   6.272   3.667  0.2111 -1.3299  1.6220
   37MOL    H9536887   2.194   6.376   3.813 -0.8608 -1.1087  0.2904
   37MOL    H9636888   2.010   6.463   3.670 -0.4280  2.6290  0.6604
   37MOL    H9736889   1.960   6.651   3.521  1.3873  1.9708 -2.1154
   37MOL    H9836890   2.100   6.920   3.180  0.7802  1.0761 -1.9528
   37MOL    H9936891   2.203   7.122   3.100 -1.9870 -2.3225  0.4087
   37MOL   H10036892   2.414   7.196   3.001 -0.9780  0.7805 -3.0346
   37MOL   H10136893   2.397   7.317   2.790 -2.2875  0.3780 -0.0430
   37MOL   H10236894   2.518   7.770   2.880  1.8489 -0.4988 -0.1618
   37MOL   H10336895   2.512   0.030   2.817  1.1510 -1.7108 -0.3004
   37MOL   N10436896   2.391   6.348   3.760 -0.1965  0.2592  0.0424
   37MOL   C10536897   2.429   6.369   3.892  0.2070 -0.8821  0.5723
   37MOL   C10636898   2.385   6.486   3.957  0.5098 -0.2431 -0.2598
   37MOL   C10736899   2.421   6.516   4.089 -0.2935  0.0619 -0.6303
   37MOL   C10836900   2.487   6.418   4.158  0.6226  0.0951 -0.3385
   37MOL   N10936901   2.511   6.443   4.290 -0.0122  0.0694 -0.1135
   37MOL   C11036902   2.627   6.439   4.363  0.1999 -0.3696  0.3888
   37MOL   C11136903   2.624   6.456   4.497  0.7830  0.1449 -0.6551
   37MOL   C11236904   2.740   6.472   4.573  0.1221  0.3750  0.1722
   37MOL   C11336905   2.865   6.464   4.514 -1.2538  0.1808 -0.4151
   37MOL   N11436906   2.986   6.475   4.592  0.3647 -0.1856  0.1836
   37MOL   C11536907   2.991   6.523   4.724 -0.0122  0.2540 -0.5964
   37MOL   C11636908   3.052   6.439   4.819  0.3029  0.2979  0.2607
   37MOL   C11736909   3.089   6.487   4.948 -0.2373 -0.2388  0.1954
   37MOL   C11836910   3.061   6.619   4.982 -0.3724 -0.2434 -0.4544
   37MOL   N11936911   3.104   6.670   5.106 -0.3776  0.3793 -0.2848
   37MOL   C12036912   3.132   6.804   5.135  0.1575 -0.0277 -0.7818
   37MOL   C12136913   3.018   6.892   5.135  0.2743  0.8915 -0.0825
   37MOL   C12236914   3.023   7.026   5.170  0.4740  0.0970  0.1557
   37MOL   C12336915   3.151   7.084   5.189 -0.0586  1.0529 -0.6284
   37MOL   C12436916   3.160   7.230   5.232  0.0979  0.0339 -0.0047
   37MOL   C12536917   3.270   7.002   5.191  0.3598 -0.5125 -0.4539
   37MOL   C12636918   3.257   6.862   5.166  0.5102  1.0747 -1.0105
   37MOL   C12736919   2.993   6.703   4.888 -0.3734  0.7404 -0.3474
   37MOL   C12836920   2.961   6.655   4.761  0.3003  0.4502  0.9637
   37MOL   C12936921   2.876   6.425   4.373 -0.6453  0.5882 -0.1608
   37MOL   C13036922   2.752   6.413   4.301 -0.0664 -0.3880 -0.0523
   37MOL   C13136923   2.525   6.295   4.098  0.5802 -0.0153  0.6126
   37MOL   C13236924   2.502   6.274   3.960 -0.4764  0.5863  0.0792
   37MOL   H13336925   2.433   6.273   3.706 -0.4303  1.4841 -1.8668
   37MOL   H13436926   2.320   6.557   3.909 -1.0626 -0.9147  0.8562
   37MOL   H13536927   2.384   6.600   4.145 -2.2800 -1.7632  0.8665
   37MOL   H13636928   2.438   6.499   4.332 -0.9669 -0.3484 -1.1946
   37MOL   H13736929   2.528   6.468   4.546  0.1352 -1.7413 -1.4153
   37MOL   H13836930   2.734   6.487   4.680 -0.3668  0.1334  0.1778
   37MOL   H13936931   3.066   6.473   4.531 -0.5348 -1.6672 -0.9971
   37MOL   H14036932   3.076   6.336   4.795 -0.6075 -0.0089  0.6121
   37MOL   H14136933   3.146   6.427   5.017 -0.3250  1.3466  1.6840
   37MOL   H14236934   3.167   6.600   5.144 -1.7160 -1.0313 -0.6030
   37MOL   H14336935   2.918   6.860   5.110  0.8837 -0.2408 -1.0976
   37MOL   H14436936   2.932   7.085   5.174  0.0911 -0.2407 -2.5313
   37MOL   H14536937   3.257   7.258   5.272 -0.1307 -1.2283  1.4890
   37MOL   H14636938   3.085   7.262   5.305 -2.7206 -1.1937 -2.2326
   37MOL   H14736939   3.364   7.044   5.222  0.0217 -1.6461  2.2396
   37MOL   H14836940   3.344   6.799   5.159  1.0902  1.4300  2.0835
   37MOL   H14936941   2.984   6.808   4.910 -1.9050  0.4572  0.4471
   37MOL   H15036942   2.921   6.715   4.681  2.0415  0.2864 -0.0660
   37MOL   H15136943   2.970   6.403   4.323 -1.9420  0.6685 -2.7308
   37MOL   H15236944   2.746   6.390   4.196  1.8637 -1.7474  0.1238
   37MOL   H15336945   2.569   6.218   4.160 -1.1801 -1.0604  0.6151
   37MOL   H15436946   2.533   6.178   3.921  1.4779  1.1617  0.1363
   37MOL   N15536947   3.108   7.324   5.126  0.1354 -0.3036 -0.3736
   37MOL   C15636948   3.189   7.335   5.011  0.2850  0.2195 -0.7678
   37MOL   C15736949   3.132   7.310   4.892  0.1766  0.4186  0.0696
   37MOL   C15836950   3.208   7.316   4.776 -0.4947 -0.3814  0.0105
   37MOL   C15936951   3.341   7.358   4.779 -0.7007  0.9851 -0.1875
   37MOL   N16036952   3.420   7.359   4.663 -0.6444  0.7258  0.8339
   37MOL   C16136953   3.370   7.367   4.534  0.2681 -0.9393  0.1992
   37MOL   C16236954   3.440   7.297   4.431  0.0785  0.1272 -0.1579
   37MOL   C16336955   3.398   7.304   4.296  0.0651 -0.6812 -0.3240
   37MOL   C16436956   3.282   7.379   4.263  0.6125  0.0020  0.6838
   37MOL   N16536957   3.238   7.380   4.133 -0.3276 -0.1954 -0.3795
   37MOL   C16636958   3.198   7.489   4.055 -0.2427  0.0343 -0.6242
   37MOL   C16736959   3.227   7.623   4.088 -0.1991  0.2807  0.0856
   37MOL   C16836960   3.169   7.724   4.004  0.5214  0.4948  0.4481
   37MOL   C16936961   3.090   7.695   3.893  1.0196  0.7332 -0.7543
   37MOL   N17036962   3.037   7.805   3.826  0.2842  0.3139 -0.7714
   37MOL   C17136963   2.906   7.834   3.783 -0.3213 -0.9478  0.7093
   37MOL   C17236964   2.796   7.745   3.798  0.4204  0.0652  0.3439
   37MOL   C17336965   2.665   7.785   3.778  0.1246  0.0117  0.0293
   37MOL   C17436966   2.643   7.919   3.733 -0.8334  0.4022 -0.3324
   37MOL   C17536967   2.508   7.978   3.722  0.2404  0.1286  0.0456
   37MOL   C17636968   2.750   0.020   3.701 -0.0020 -0.4346 -0.7234
   37MOL   C17736969   2.879   7.955   3.714  0.1833  0.2126  0.2602
   37MOL   C17836970   3.075   7.558   3.859 -0.4910  0.1194  0.1695
   37MOL   C17936971   3.127   7.459   3.942 -0.2492  0.0501 -0.4218
   37MOL   C18036972   3.209   7.446   4.365 -0.0404  0.4253 -0.0219
   37MOL   C18136973   3.254   7.445   4.496  0.6301 -0.3459  0.6496
   37MOL   C18236974   3.395   7.395   4.904  0.7192 -0.0331  0.2978
   37MOL   C18336975   3.320   7.385   5.019 -0.1424 -0.7290 -0.0066
   37MOL   H18436976   3.013   7.302   5.099  0.4186 -2.4178  0.2110
   37MOL   H18536977   3.031   7.270   4.882 -0.1715  0.8225  1.9408
   37MOL   H18636978   3.161   7.289   4.683 -2.7591 -0.1956  1.0650
   37MOL   H18736979   3.521   7.355   4.666 -0.5995 -0.8494 -1.3358
   37MOL   H18836980   3.525   7.241   4.466 -0.7001 -0.9155  0.1034
   37MOL   H18936981   3.452   7.252   4.219  1.0996 -0.2445  0.0899
   37MOL   H19036982   3.216   7.287   4.099  0.9706 -1.3953  1.8891
   37MOL   H19136983   3.296   7.654   4.164 -0.0006 -1.0234  0.4393
   37MOL   H19236984   3.202   7.827   4.013  0.7676  0.5125 -0.5694
   37MOL   H19336985   3.086   7.885   3.863  1.1396 -1.1031  1.2330
   37MOL   H19436986   2.814   7.647   3.840  1.2044 -0.2863 -0.7906
   37MOL   H19536987   2.590   7.718   3.818  0.4956  0.4472  1.4999
   37MOL   H19636988   2.515   0.101   3.750 -0.3398  0.1613  0.0853
   37MOL   H19736989   2.432   7.939   3.790  2.2740 -0.5650  2.0085
   37MOL   H19836990   2.724   0.116   3.659  0.3545 -0.6736 -1.5077
   37MOL   H19936991   2.958   0.045   3.699 -0.8916  1.2983 -0.1350
   37MOL   H20036992   3.013   7.536   3.774 -0.8873 -1.4065  0.8413
   37MOL   H20136993   3.107   7.355   3.920  0.2483 -0.3545  0.9977
   37MOL   H20236994   3.118   7.494   4.331 -0.9673 -1.3711 -0.1549
   37MOL   H20336995   3.213   7.508   4.574 -0.6352  0.4531 -0.6322
   37MOL   H20436996   3.499   7.420   4.920  0.7343  0.3636 -0.3987
   37MOL   H20536997   3.356   7.412   5.117 -2.3974 -0.8912  0.9220
   37MOL   N20636998   2.463   7.973   3.585  0.8202  0.6004 -0.0149
   37MOL   C20736999   2.327   7.967   3.552  0.2555 -0.0044 -0.4013
   37MOL   C20837000   2.210   7.971   3.635 -0.5725 -0.5275  1.0201
   37MOL   C20937001   2.079   7.945   3.587  0.4050  0.3065  0.4965
   37MOL   C21037002   2.064   7.920   3.447  1.0062 -0.0479 -0.1691
   37MOL   N21137003   1.935   7.906   3.394 -0.1993  0.0525  0.0528
   37MOL   C21237004   1.884   7.810   3.305  0.2946  0.1000 -0.2024
   37MOL   C21337005   1.969   7.716   3.244  0.1955 -0.4340 -0.4778
   37MOL   C21437006   1.911   7.630   3.146 -0.1879  0.3374 -0.3220
   37MOL   C21537007   1.777   7.637   3.113  0.2902  0.1993 -0.0956
   37MOL   N21637008   1.716   7.556   3.017  0.0901  0.1761 -0.2796
   37MOL   C21737009   1.755   7.436   2.957 -0.0932  0.8667  0.2876
   37MOL   C21837010   1.695   7.401   2.832 -0.3583 -0.1833 -1.1024
   37MOL   C21937011   1.725   7.285   2.760 -0.1550 -0.7280 -0.5763
   37MOL   C22037012   1.824   7.199   2.809  0.2373  0.6216  0.4762
   37MOL   N22137013   1.855   7.081   2.735 -0.0816  0.3787 -0.0792
   37MOL   C22237014   1.946   6.985   2.776 -0.2908 -0.3969 -0.4518
   37MOL   C22337015   2.077   7.026   2.815 -0.2537  0.5529 -0.4058
   37MOL   C22437016   2.163   6.933   2.873  0.6288 -0.0752  0.1094
   37MOL   C22537017   2.130   6.795   2.884 -0.2466 -0.0506  0.0097
   37MOL   C22637018   2.218   6.689   2.943  0.6721  0.0532 -0.2760
   37MOL   C22737019   2.004   6.755   2.838  0.0520 -1.0327  0.9473
   37MOL   C22837020   1.907   6.851   2.787 -0.0242  0.7669  0.5062
   37MOL   C22937021   1.872   7.219   2.943  1.0373  0.1696 -0.4818
   37MOL   C23037022   1.836   7.336   3.018 -0.7444 -0.1134 -0.1554
   37MOL   C23137023   1.698   7.728   3.182 -0.0366 -0.5950  0.1317
   37MOL   C23237024   1.744   7.812   3.280  0.4231 -0.3459 -0.0871
   37MOL   C23337025   2.169   7.926   3.357 -0.4637  0.4457  0.1885
   37MOL   C23437026   2.299   7.952   3.412  0.5757  1.1267 -0.4316
   37MOL   H23537027   2.524   7.942   3.510  1.1505 -1.7009  1.1490
   37MOL   H23637028   2.214   0.015   3.740  0.4369  1.2932  0.5388
   37MOL   H23737029   1.998   7.937   3.659 -0.3463  1.4698 -0.1841
   37MOL   H23837030   1.865   7.965   3.438 -0.7602 -0.2341 -0.4499
   37MOL   H23937031   2.071   7.697   3.272  0.9687  0.2069 -2.7201
   37MOL   H24037032   1.975   7.557   3.099  1.9192  1.8358  0.1353
   37MOL   H24137033   1.635   7.588   2.965  1.1099  1.3683 -1.1521
   37MOL   H24237034   1.631   7.479   2.793 -2.1724 -1.6820 -1.2214
   37MOL   H24337035   1.680   7.270   2.663 -0.5851 -1.0774 -0.3258
   37MOL   H24437036   1.792   7.055   2.661  2.0140 -0.0446 -1.7465
   37MOL   H24537037   2.103   7.131   2.810 -1.1920  0.8579  1.0501
   37MOL   H24637038   2.259   6.964   2.914  1.0572  0.9468 -1.6040
   37MOL   H24737039   2.256   6.634   2.857 -0.3099 -1.6722  0.3755
   37MOL   H24837040   2.153   6.622   2.999  1.2796 -0.4660 -0.1918
   37MOL   H24937041   1.981   6.650   2.843  1.7976 -1.5393 -0.9264
   37MOL   H25037042   1.809   6.811   2.768 -1.1706  3.1567  1.1541
   37MOL   H25137043   1.930   7.143   2.993  1.1240 -1.4268 -2.9259
   37MOL   H25237044   1.882   7.356   3.113 -1.5953  0.1055  0.2141
   37MOL   H25337045   1.592   7.739   3.164 -0.0747  0.5018  1.0082
   37MOL   H25437046   1.675   7.882   3.325 -0.6487 -0.8451 -0.9352
   37MOL   H25537047   2.148   7.911   3.253  0.1821  1.1697 -0.0489
   37MOL   H25637048   2.375   7.952   3.335  1.3199  1.0719  0.2952
   37MOL   N25737049   2.321   6.750   3.021 -0.6308 -0.2129  0.6456
   37MOL   C25837050   2.427   6.671   3.068  0.0089 -0.1820  0.5547
   37MOL   C25937051   2.498   6.707   3.181 -0.1139 -0.7137  0.7617
   37MOL   C26037052   2.614   6.636   3.216  0.0020  0.3845 -1.2977
   37MOL   C26137053   2.660   6.528   3.139  0.3183  0.0497 -0.2826
   37MOL   N26237054   2.774   6.454   3.170  0.1759  0.2894  0.0015
   37MOL   C26337055   2.849   6.454   3.283 -0.3376  0.7578  0.3683
   37MOL   C26437056   2.914   6.571   3.323  1.5379  0.5731 -0.9322
   37MOL   C26537057   3.005   6.572   3.428 -0.0169  0.1871  0.5304
   37MOL   C26637058   3.026   6.455   3.506 -0.3310 -0.2032 -0.2465
   37MOL   N26737059   3.102   6.458   3.625 -0.0416 -0.0214 -0.4243
   37MOL   C26837060   3.202   6.547   3.652 -0.5964  0.5845  1.0697
   37MOL   C26937061   3.219   6.573   3.790 -0.5783  0.9511  0.3769
   37MOL   C27037062   3.314   6.673   3.817 -0.3407  0.3530 -1.0133
   37MOL   C27137063   3.400   6.735   3.725 -0.0573  0.6577  0.0701
   37MOL   N27237064   3.503   6.827   3.754 -0.0101 -0.5610  0.8408
   37MOL   C27337065   3.538   6.876   3.881 -0.1147 -0.2254  0.3010
   37MOL   C27437066   3.442   6.910   3.979  0.4608  0.3243  0.0500
   37MOL   C27537067   3.478   6.958   4.103 -0.1728  0.0722  0.2361
   37MOL   C27637068   3.620   6.988   4.130 -0.1346 -0.5084 -0.1446
   37MOL   C27737069   3.664   7.043   4.263 -0.2659  0.4873 -0.3940
   37MOL   C27837070   3.720   6.956   4.032  0.3851 -0.6462  0.7768
   37MOL   C27937071   3.674   6.903   3.909 -0.1393 -0.1096  0.4672
   37MOL   C28037072   3.396   6.689   3.595  1.5806 -0.3709  0.1012
   37MOL   C28137073   3.298   6.589   3.559  0.3483  0.2948 -0.5785
   37MOL   C28237074   2.956   6.340   3.460  0.0626  0.7506 -0.4942
   37MOL   C28337075   2.879   6.337   3.347  0.3321 -0.3775  0.2105
   37MOL   C28437076   2.591   6.499   3.023  0.1835 -0.5507  0.6012
   37MOL   C28537077   2.479   6.574   2.988  0.7322  0.6554 -0.0557
   37MOL   H28637078   2.286   6.819   3.086  1.3472  1.8508 -0.4011
   37MOL   H28737079   2.479   6.795   3.240 -1.3954 -0.7604  0.4324
   37MOL   H28837080   2.675   6.656   3.303 -0.6070 -1.1363 -0.5018
   37MOL   H28937081   2.802   6.377   3.111  0.1310  0.6322 -0.4624
   37MOL   H29037082   2.887   6.659   3.266 -1.1263  1.3211  1.3914
   37MOL   H29137083   3.051   6.666   3.453  3.2860 -1.1266 -0.4161
   37MOL   H29237084   3.065   6.411   3.707  1.0259 -1.3036 -0.6533
   37MOL   H29337085   3.164   6.526   3.870  0.8384  1.5878  1.7553
   37MOL   H29437086   3.322   6.679   3.924 -2.1579  1.3901 -0.9184
   37MOL   H29537087   3.581   6.827   3.690 -1.4266  0.7148 -0.9132
   37MOL   H29637088   3.337   6.899   3.956  0.5004  2.5538 -1.4582
   37MOL   H29737089   3.410   6.994   4.179  0.1319 -0.5635  0.8148
   37MOL   H29837090   3.580   7.039   4.333  0.1693 -0.6107  0.0892
   37MOL   H29937091   3.704   7.144   4.259  2.0383 -0.4329 -1.0760
   37MOL   H30037092   3.825   6.976   4.048  0.2529  0.6593  0.0232
   37MOL   H30137093   3.748   6.883   3.833 -2.0223  1.1168 -1.7414
   37MOL   H30237094   3.466   6.714   3.517  0.1270  1.3235 -0.6982
   37MOL   H30337095   3.300   6.550   3.458  0.9132 -1.6700  0.1790
   37MOL   H30437096   2.965   6.254   3.525  0.5705 -0.6328 -2.3635
   37MOL   H30537097   2.829   6.249   3.309 -0.7731  0.3061  0.0581
   37MOL   H30637098   2.635   6.442   2.943  1.1558  1.5105 -0.3741
   37MOL   H30737099   2.447   6.559   2.886 -3.5893 -1.8577  1.5492
   37MOL   N30837100   3.760   6.956   4.327  0.3729  0.5629  0.2830
   37MOL   C30937101   3.841   7.005   4.433  0.4326 -0.2834 -0.4659
   37MOL   C31037102   3.978   6.970   4.424 -0.0046 -0.0402  0.1519
   37MOL   C31137103   4.063   6.995   4.530 -0.4624  0.0678 -0.0718
   37MOL   C31237104   4.018   7.057   4.643  0.5875  0.3809  0.1785
   37MOL   N31337105   4.103   7.090   4.751 -0.0207 -0.1042 -0.5319
   37MOL   C31437106   4.209   7.007   4.793 -0.0940 -0.5347  0.3847
   37MOL   C31537107   4.306   7.056   4.883  0.6099 -0.2154  0.1405
   37MOL   C31637108   4.417   6.978   4.925 -0.8180  0.8465 -0.5484
   37MOL   C31737109   4.417   6.845   4.883  0.2946 -0.3573 -0.4106
   37MOL   N31837110   4.523   6.765   4.932  0.8633  0.0784  0.1138
   37MOL   C31937111   4.585   6.753   5.057 -0.3095  0.1388 -0.8866
   37MOL   C32037112   4.543   6.821   5.172 -0.0572  0.2800 -0.2831
   37MOL   C32137113   4.613   6.805   5.291 -0.2139  0.5301 -0.2164
   37MOL   C32237114   4.736   6.734   5.293  0.2735 -0.2135 -0.5176
   37MOL   N32337115   4.818   6.735   5.405  0.5362  0.4370 -0.2012
   37MOL   C32437116   4.921   6.652   5.450 -0.4741 -0.0215  0.1477
   37MOL   C32537117   4.938   6.521   5.408 -0.3011 -0.0184 -0.1537
   37MOL   C32637118   5.047   6.439   5.449  0.1804 -0.5181  0.4981
   37MOL   C32737119   5.146   6.501   5.533  0.6610  0.5293 -0.0264
   37MOL   C32837120   5.263   6.411   5.577  0.2676  0.2255  0.0553
   37MOL   C32937121   5.123   6.631   5.576  0.3299 -0.2788  0.0372
   37MOL   C33037122   5.015   6.711   5.536 -0.2378 -0.3853 -0.3915
   37MOL   C33137123   4.773   6.675   5.178  0.5875 -0.4393 -0.3131
   37MOL   C33237124   4.704   6.682   5.059  0.6164 -0.1162  0.4886
   37MOL   C33337125   4.310   6.790   4.812  0.2452  0.0405  0.5084
   37MOL   C33437126   4.208   6.873   4.761 -0.0300  0.7629  0.2210
   37MOL   C33537127   3.889   7.113   4.645  0.1372 -0.4091  0.5339
   37MOL   C33637128   3.797   7.081   4.545  0.6563 -0.3153 -0.2296
   37MOL   H33737129   3.770   6.870   4.274  0.3503  0.7617 -0.0435
   37MOL   H33837130   4.001   6.904   4.341  1.3007  1.8046 -0.9894
   37MOL   H33937131   4.165   6.962   4.526 -0.7482 -0.9120  0.4798
   37MOL   H34037132   4.090   7.171   4.810  1.6598 -1.7635  2.1920
   37MOL   H34137133   4.296   7.155   4.924  0.3562  1.0373 -2.8773
   37MOL   H34237134   4.492   7.016   4.992 -0.9948  0.1911  0.0223
   37MOL   H34337135   4.545   6.692   4.866  0.2333  1.4372 -1.6346
   37MOL   H34437136   4.463   6.893   5.167 -1.8457 -1.5850  0.4018
   37MOL   H34537137   4.580   6.866   5.374 -1.3783  0.6557 -0.7557
   37MOL   H34637138   4.806   6.819   5.459  0.7851  0.5160 -0.2698
   37MOL   H34737139   4.855   6.475   5.356 -1.5401  0.8004  1.0381
   37MOL   H34837140   5.048   6.339   5.407  0.5653  0.1405 -1.1008
   37MOL   H34937141   5.314   6.380   5.485  0.0748  3.7241 -1.3209
   37MOL   H35037142   5.222   6.323   5.626  0.5551  1.3206  2.3022
   37MOL   H35137143   5.198   6.688   5.630  0.5565  0.2376 -0.8076
   37MOL   H35237144   5.000   6.810   5.577  1.2919  0.2814 -1.3717
   37MOL   H35337145   4.864   6.616   5.175  0.5225 -0.6328  0.9187
   37MOL   H35437146   4.761   6.638   4.979  1.6669  0.4239  0.9291
   37MOL   H35537147   4.309   6.687   4.782 -0.7101  0.0505  0.5077
   37MOL   H35637148   4.132   6.821   4.704  1.4676  1.1514 -2.2232
   37MOL   H35737149   3.850   7.170   4.728  0.4840  2.3717 -1.1456
   37MOL   H35837150   3.695   7.114   4.556  1.3734  1.5344  1.0010
   37MOL   N35937151   5.358   6.475   5.661  0.3671 -0.6204  0.0534
   37MOL   C36037152   5.445   6.578   5.616  0.8932  0.4650 -0.5833
   37MOL   C36137153   5.497   6.658   5.720 -0.3159  0.2858  0.3718
   37MOL   C36237154   5.599   6.747   5.685 -0.1698 -0.9735 -0.3202
   37MOL   C36337155   5.641   6.772   5.550  0.7101 -0.5497 -0.2245
   37MOL   N36437156   5.744   6.861   5.508  0.3087 -0.5485 -0.2772
   37MOL   C36537157   5.869   6.862   5.556  0.1191 -0.2354  0.3878
   37MOL   C36637158   5.951   6.979   5.538 -0.4450 -0.0577 -0.0155
   37MOL   C36737159   6.078   6.983   5.589  0.1379 -0.0355  0.0731
   37MOL   C36837160   6.128   6.877   5.670 -0.4367  0.2170 -0.6647
   37MOL   N36937161   6.257   6.884   5.719  0.4902 -0.2174  0.1885
   37MOL   C37037162   6.297   6.821   5.840  0.1397 -0.4615 -1.2555
   37MOL   C37137163   6.213   6.825   5.956  0.4673 -0.1616 -0.2516
   37MOL   C37237164   6.246   6.760   6.072  0.2182 -0.2918  0.2018
   37MOL   C37337165   6.368   6.692   6.083  0.4056  1.0453  0.5179
   37MOL   N37437166   6.410   6.623   6.194  0.6229  0.8304 -0.0869
   37MOL   C37537167   6.387   6.490   6.226 -0.4778  0.5295  1.2683
   37MOL   C37637168   6.436   6.445   6.344  0.0788  0.9081 -0.5279
   37MOL   C37737169   6.408   6.308   6.377 -0.0194 -0.2389 -0.7988
   37MOL   C37837170   6.325   6.227   6.296 -0.5538  0.2583  0.6501
   37MOL   C37937171   6.297   6.085   6.337  0.1815  0.1429  0.5565
   37MOL   C38037172   6.273   6.276   6.179 -0.0850  0.1354  0.2872
   37MOL   C38137173   6.306   6.410   6.143  0.1611  0.2481 -0.0015
   37MOL   C38237174   6.455   6.692   5.973  0.0470  0.2412 -0.2319
   37MOL   C38337175   6.413   6.750   5.850  0.0151  0.4555  0.4815
   37MOL   C38437176   6.041   6.768   5.697 -0.1439 -0.1345  0.0275
   37MOL   C38537177   5.915   6.761   5.638 -0.2139  0.5085  0.3137
   37MOL   C38637178   5.566   6.707   5.450  0.1778  0.3133 -0.0485
   37MOL   C38737179   5.478   6.603   5.484 -0.2506  0.1618  0.3116
   37MOL   H38837180   5.350   6.458   5.760  0.3109 -0.7816  0.0221
   37MOL   H38937181   5.466   6.647   5.823  2.0628 -0.4933  1.0434
   37MOL   H39037182   5.635   6.809   5.765  0.9128 -0.5999 -1.0767
   37MOL   H39137183   5.740   6.886   5.410 -1.8054 -2.0373 -0.6246
   37MOL   H39237184   5.922   7.056   5.469 -0.9057 -1.2910 -1.2268
   37MOL   H39337185   6.142   7.063   5.557  0.6755 -1.0738 -1.5434
   37MOL   H39437186   6.319   6.960   5.694  1.2697 -0.2110  2.0892
   37MOL   H39537187   6.108   6.849   5.944  1.0324  0.9895 -3.3088
   37MOL   H39637188   6.183   6.761   6.160 -1.2528 -1.7528 -0.8059
   37MOL   H39737189   6.404   6.682   6.276  1.5824  0.1761  0.4707
   37MOL   H39837190   6.485   6.510   6.415  2.3167 -2.0837  0.7816
   37MOL   H39937191   6.450   6.264   6.466 -0.8886 -3.8553 -2.0859
   37MOL   H40037192   6.376   6.014   6.312 -0.1397  0.8152 -2.5148
   37MOL   H40137193   6.217   6.056   6.269  1.2545 -0.0173 -0.6519
   37MOL   H40237194   6.195   6.233   6.117 -2.2148  1.8143  1.7079
   37MOL   H40337195   6.276   6.457   6.050  0.4640  1.9922  0.7674
   37MOL   H40437196   6.550   6.641   5.978  0.4532  1.0517  0.4758
   37MOL   H40537197   6.475   6.728   5.764 -0.0665 -1.9420  1.0197
   37MOL   H40637198   6.091   6.691   5.753  3.3592  1.5424 -0.7017
   37MOL   H40737199   5.856   6.671   5.646 -0.1843  0.6063  1.8839
   37MOL   H40837200   5.584   6.740   5.348 -0.1629 -1.6135 -0.7567
   37MOL   H40937201   5.415   6.563   5.406  1.6617  0.7632 -1.5642
   37MOL   N41037202   6.267   6.086   6.483  0.3092 -0.1198  0.5319
   37MOL   C41137203   6.153   6.155   6.532  0.5635  0.7215 -0.4795
   37MOL   C41237204   6.155   6.203   6.663 -0.1037 -0.2299  0.3305
   37MOL   C41337205   6.057   6.287   6.710 -0.2314 -0.1169  0.2724
   37MOL   C41437206   5.940   6.312   6.639 -0.1808  0.2944  0.3537
   37MOL   N41537207   5.832   6.377   6.698 -0.6070 -0.3008  0.4383
   37MOL   C41637208   5.837   6.497   6.770 -0.1359 -0.1728 -0.1064
   37MOL   C41737209   5.739   6.508   6.875 -0.8820 -0.3202  0.3621
   37MOL   C41837210   5.743   6.629   6.957  0.4309  1.1892  0.1285
   37MOL   C41937211   5.828   6.736   6.918 -0.1899  0.4402 -0.7061
   37MOL   N42037212   5.803   6.855   6.988  0.1133 -0.6115 -0.3714
   37MOL   C42137213   5.788   6.984   6.938 -0.0631 -0.1006  0.4174
   37MOL   C42237214   5.818   7.103   7.017 -0.3611 -0.0754  0.1833
   37MOL   C42337215   5.814   7.232   6.957 -0.4848 -0.3607 -0.5369
   37MOL   C42437216   5.790   7.248   6.820  0.0573 -0.2951 -0.1457
   37MOL   N42537217   5.784   7.370   6.758  0.5003 -0.5237 -0.0343
   37MOL   C42637218   5.840   7.395   6.634  0.2091 -0.9213 -0.2767
   37MOL   C42737219   5.971   7.345   6.592 -0.1436  0.3128 -0.0311
   37MOL   C42837220   6.020   7.379   6.464 -0.2786  0.3841 -0.5366
   37MOL   C42937221   5.950   7.478   6.386 -0.1308  0.7346 -0.0687
   37MOL   C43037222   6.002   7.508   6.243  0.6896  0.2475 -1.0410
   37MOL   C43137223   5.821   7.518   6.422 -0.0237 -0.3469 -1.1472
   37MOL   C43237224   5.771   7.484   6.547 -0.1325  0.0340  1.1191
   37MOL   C43337225   5.751   7.133   6.749 -0.4584  0.7371 -0.5106
   37MOL   C43437226   5.748   7.005   6.803  0.0235 -0.0667 -0.3526
   37MOL   C43537227   5.912   6.719   6.808  0.5914 -0.0000 -0.5276
   37MOL   C43637228   5.920   6.596   6.736  0.1721  0.0473  0.6352
   37MOL   C43737229   5.924   6.257   6.506 -0.0342 -0.1847 -0.3287
   37MOL   C43837230   6.035   6.184   6.455 -0.1603  0.5798  0.3327
   37MOL   H43937231   6.347   6.091   6.544  0.8686  1.5970 -0.3032
   37MOL   H44037232   6.246   6.180   6.717  0.5530  2.7303  0.5409
   37MOL   H44137233   6.061   6.327   6.811 -1.0098 -0.4108  0.4232
   37MOL   H44237234   5.747   6.367   6.645  0.1452 -0.1266 -0.8201
   37MOL   H44337235   5.673   6.426   6.899 -1.1527 -0.5209 -1.0465
   37MOL   H44437236   5.673   6.632   7.039 -2.5574  1.8314 -2.3314
   37MOL   H44537237   5.776   6.835   7.083 -1.7003  2.1649 -0.2395
   37MOL   H44637238   5.841   7.080   7.120 -1.8817  1.7075  0.9462
   37MOL   H44737239   5.831   7.314   7.025  1.2989  1.6425 -3.2757
   37MOL   H44837240   5.778   7.455   6.812  0.8050 -0.4476 -0.1163
   37MOL   H44937241   6.027   7.282   6.659  0.9621 -1.1555 -2.2492
   37MOL   H45037242   6.115   7.336   6.436 -0.6547 -0.0705 -1.1226
   37MOL   H45137243   6.100   7.555   6.249  1.0392 -0.7302  3.6781
   37MOL   H45237244   5.932   7.575   6.194 -2.5385 -1.2739  1.2574
   37MOL   H45337245   5.771   7.585   6.354  0.3651  1.1593  0.0274
   37MOL   H45437246   5.684   7.536   6.587 -0.6409  0.1533 -0.1132
   37MOL   H45537247   5.727   7.149   6.645 -1.2492  2.7144 -0.0459
   37MOL   H45637248   5.708   6.922   6.746 -1.1641  0.5015 -0.3521
   37MOL   H45737249   5.968   6.800   6.764 -0.0447  0.7386  0.0209
   37MOL   H45837250   5.989   6.581   6.654  0.4865  2.1514  0.4815
   37MOL   H45937251   5.837   6.284   6.446  0.2664  0.4743 -0.4802
   37MOL   H46037252   6.033   6.159   6.350 -1.3527  0.5330  0.3614
   37MOL   N46137253   6.036   7.389   6.163 -0.0785 -0.0946 -0.9500
   37MOL   C46237254   5.934   7.323   6.095  0.5499  0.0315 -0.6857
   37MOL   C46337255   5.815   7.379   6.046  0.1035 -0.4599  0.2463
   37MOL   C46437256   5.710   7.305   6.000 -0.2494 -0.4277 -1.1256
   37MOL   C46537257   5.719   7.171   6.003  0.3559  0.5709 -0.2176
   37MOL   N46637258   5.601   7.086   6.001 -0.0864 -0.0762 -0.1105
   37MOL   C46737259   5.496   7.086   5.910  0.1623 -0.7145 -0.0735
   37MOL   C46837260   5.375   7.025   5.950 -0.5773  0.0652 -0.1264
   37MOL   C46937261   5.261   7.017   5.872 -0.4935 -0.0931 -0.5667
   37MOL   C47037262   5.274   7.053   5.735 -0.9196 -0.3781 -0.5245
   37MOL   N47137263   5.162   7.035   5.652  0.1330  0.5379  0.5807
   37MOL   C47237264   5.169   7.003   5.517  0.3909 -0.6411  0.8617
   37MOL   C47337265   5.279   6.938   5.463  0.5023 -0.1799  0.2531
   37MOL   C47437266   5.283   6.925   5.321 -0.1348  0.2357  0.5842
   37MOL   C47537267   5.179   6.970   5.237 -0.0707 -0.4936 -0.3815
   37MOL   N47637268   5.204   6.950   5.097 -0.6373  0.1260 -0.2617
   37MOL   C47737269   5.123   6.934   4.984 -0.1427  0.0724 -0.0020
   37MOL   C47837270   4.988   6.898   4.995  0.3048  0.4890  0.0601
   37MOL   C47937271   4.911   6.899   4.876  0.8141  0.0583 -0.0623
   37MOL   C48037272   4.965   6.904   4.746 -0.3088  0.6562 -0.9619
   37MOL   C48137273   4.877   6.894   4.620  0.2644 -0.0653  1.0174
   37MOL   C48237274   5.105   6.934   4.740 -0.8148  0.2942  0.2323
   37MOL   C48337275   5.184   6.950   4.857  0.1521 -0.6906 -0.9098
   37MOL   C48437276   5.072   7.035   5.288 -0.0436 -0.5806 -0.2350
   37MOL   C48537277   5.063   7.052   5.432 -0.2133 -0.3022  0.0700
   37MOL   C48637278   5.393   7.111   5.690  0.1434 -0.0522 -0.2247
   37MOL   C48737279   5.500   7.137   5.781 -0.0257 -0.2764  0.2862
   37MOL   C48837280   5.844   7.108   6.035  0.1486 -0.1280 -0.0477
   37MOL   C48937281   5.952   7.180   6.083  0.3601 -0.3761  0.4000
   37MOL   H49037282   6.100   7.324   6.207  0.1843  0.6223 -0.2668
   37MOL   H49137283   5.786   7.481   6.067 -1.1209 -1.0271  1.4081
   37MOL   H49237284   5.612   7.345   5.977 -0.8828 -2.1723 -1.5794
   37MOL   H49337285   5.607   7.005   6.061  1.3405 -0.2981 -0.5441
   37MOL   H49437286   5.368   6.985   6.050  0.6355 -0.7672 -0.3604
   37MOL   H49537287   5.175   6.960   5.904 -1.9580  2.8683  0.9182
   37MOL   H49637288   5.068   7.055   5.684  0.1111  1.7820 -0.1866
   37MOL   H49737289   5.364   6.899   5.518  1.4147  0.2684 -0.8251
   37MOL   H49837290   5.360   6.867   5.273 -1.4379  0.3638 -1.6846
   37MOL   H49937291   5.300   6.921   5.086 -0.8378  0.0314 -1.8704
   37MOL   H50037292   4.932   6.884   5.086 -2.1965  0.4449 -1.4411
   37MOL   H50137293   4.803   6.898   4.884  1.0135  0.2449  2.9959
   37MOL   H50237294   4.847   6.798   4.577 -0.5019  0.1384  1.0885
   37MOL   H50337295   4.924   6.957   4.545  0.1717 -1.4843 -0.2485
   37MOL   H50437296   5.151   6.941   4.642 -1.6411  0.2253 -0.1634
   37MOL   H50537297   5.289   6.974   4.848  0.2740 -0.3809  1.2072
   37MOL   H50637298   4.994   7.077   5.226  0.4817  0.3097 -0.2935
   37MOL   H50737299   4.977   7.103   5.472  0.5064  1.8926 -1.0837
   37MOL   H50837300   5.396   7.148   5.589  1.1877  1.2883  0.2911
   37MOL   H50937301   5.589   7.188   5.749 -0.2678  0.4201  0.7094
   37MOL   H51037302   5.846   7.000   6.028 -0.0255 -0.1792  0.6786
   37MOL   H51137303   6.048   7.134   6.098  0.7175 -0.4644 -1.9666
   37MOL   N51237304   4.748   6.950   4.640  0.0477 -0.0626  0.1362
   37MOL   C51337305   4.680   7.025   4.541 -0.1213 -0.1788  0.2553
   37MOL   C51437306   4.729   7.053   4.410  0.2177  0.1456  0.3175
   37MOL   C51537307   4.662   7.141   4.323  0.4100 -0.8516  0.6072
   37MOL   C51637308   4.540   7.196   4.364 -0.5633  0.0276  0.2529
   37MOL   N51737309   4.479   7.280   4.275  0.0474  0.6082  0.1380
   37MOL   C51837310   4.338   7.316   4.266 -0.8373  0.1047 -0.1265
   37MOL   C51937311   4.309   7.455   4.234 -1.1843  0.1215  0.0487
   37MOL   C52037312   4.174   7.487   4.221  0.3110  0.1510  0.0719
   37MOL   C52137313   4.066   7.391   4.229 -0.7378  0.0277 -0.4568
   37MOL   N52237314   3.929   7.431   4.224  0.3591  0.3411 -0.1114
   37MOL   C52337315   3.830   7.401   4.127 -0.3088  0.2976 -0.1574
   37MOL   C52437316   3.703   7.460   4.131  0.2210 -0.1291  0.6765
   37MOL   C52537317   3.605   7.431   4.030 -0.0684 -0.7120 -0.2399
   37MOL   C52637318   3.631   7.332   3.932 -0.4493 -0.5384 -0.2118
   37MOL   N52737319   3.532   7.286   3.846  0.0452  0.0861  0.0537
   37MOL   C52837320   3.444   7.350   3.763 -0.6644 -0.9368  0.0601
   37MOL   C52937321   3.361   7.272   3.680 -0.1371 -0.5128 -0.3057
   37MOL   C53037322   3.287   7.340   3.584  0.2436  0.3650  0.1365
   37MOL   C53137323   3.286   7.484   3.571  0.4347  1.4271  0.0918
   37MOL   C53237324   3.210   7.559   3.454 -0.0732  0.3676 -0.5241
   37MOL   C53337325   3.371   7.556   3.653 -0.7265  0.4937  0.5313
   37MOL   C53437326   3.448   7.492   3.746 -0.0745  0.0927 -0.4296
   37MOL   C53537327   3.752   7.263   3.939 -0.7262 -0.0511 -0.2617
   37MOL   C53637328   3.846   7.299   4.033 -0.8698 -0.0752  0.1233
   37MOL   C53737329   4.101   7.260   4.253 -0.5260 -0.3500 -0.2143
   37MOL   C53837330   4.234   7.219   4.264 -0.6514  0.1263  0.1738
   37MOL   C53937331   4.486   7.162   4.489  0.0729 -0.2783  0.5920
   37MOL   C54037332   4.554   7.074   4.576 -0.1160 -0.1360  0.4405
   37MOL   H54137333   4.715   6.945   4.736  1.6917  0.4232  0.7311
   37MOL   H54237334   4.822   7.005   4.381  1.1064  1.1458  1.4324
   37MOL   H54337335   4.701   7.171   4.227 -1.3425  0.6822  0.3426
   37MOL   H54437336   4.537   7.299   4.195  0.2005  2.2434  0.6319
   37MOL   H54537337   4.391   7.524   4.218 -0.6076 -0.8409 -1.3085
   37MOL   H54637338   4.139   7.586   4.201  1.3418  0.2985 -1.0499
   37MOL   H54737339   3.897   7.504   4.285  0.8309 -0.5409  1.1994
   37MOL   H54837340   3.679   7.539   4.200  0.7014  0.4980  0.1379
   37MOL   H54937341   3.506   7.474   4.037 -0.7470 -2.3166  0.4347
   37MOL   H55037342   3.541   7.192   3.809 -1.5996 -0.6085  1.3410
   37MOL   H55137343   3.356   7.164   3.684 -0.2320 -0.4861  0.3054
   37MOL   H55237344   3.230   7.288   3.509 -1.0812  0.5965  0.9704
   37MOL   H55337345   3.114   7.510   3.443 -1.1665  2.1752  0.6071
   37MOL   H55437346   3.280   7.550   3.372 -1.9873  1.0696 -2.2774
   37MOL   H55537347   3.374   7.663   3.636  1.2989  0.5690  1.2973
   37MOL   H55637348   3.511   7.554   3.808 -1.5101  3.0705 -1.8676
   37MOL   H55737349   3.764   7.177   3.875  0.5926  0.1539 -0.3116
   37MOL   H55837350   3.938   7.243   4.041 -0.6373 -0.0049 -1.8059
   37MOL   H55937351   4.021   7.188   4.254 -0.3845 -0.5494 -1.8712
   37MOL   H56037352   4.262   7.115   4.276  1.5804  0.8242  1.2622
   37MOL   H56137353   4.387   7.199   4.511 -0.2421 -0.3303 -0.6509
   37MOL   H56237354   4.512   7.053   4.673 -0.4758  1.1100  0.5740
   37MOL   N56337355   3.182   7.699   3.489  0.1430  0.3282  0.5326
   37MOL   C56437356   3.183   7.802   3.392  0.1530 -0.1860  0.0752
   37MOL   C56537357   3.164   7.935   3.434 -0.3641 -0.4313  0.4186
   37MOL   C56637358   3.164   0.057   3.338  0.7051 -0.2034  0.8643
   37MOL   C56737359   3.190   0.034   3.199 -0.2218 -0.0581  0.6657
   37MOL   N56837360   3.181   0.137   3.104 -0.1088 -0.2108  0.3699
   37MOL   C56937361   3.258   0.147   2.986  0.4151  0.4214 -0.1531
   37MOL   C57037362   3.206   0.233   2.888 -0.0852 -0.1479  0.0246
   37MOL   C57137363   3.286   0.271   2.783 -0.4817  0.0543  0.3751
   37MOL   C57237364   3.417   0.220   2.766  0.5386  0.0902 -1.3152
   37MOL   N57337365   3.498   0.264   2.664  0.3517  0.0791  0.0429
   37MOL   C57437366   3.474   0.267   2.527 -0.2501 -0.3287  0.1723
   37MOL   C57537367   3.520   0.382   2.453  0.2402 -0.0407  0.3020
   37MOL   C57637368   3.516   0.378   2.313 -0.0455 -0.4191 -0.1643
   37MOL   C57737369   3.448   0.279   2.248 -0.0619  0.3905 -0.5182
   37MOL   N57837370   3.431   0.284   2.106 -0.5157  0.2449 -0.5235
   37MOL   C57937371   3.377   0.186   2.025 -0.0797 -0.3964 -0.4941
   37MOL   C58037372   3.241   0.140   2.047  0.0270 -0.5323  0.3583
   37MOL   C58137373   3.185   0.049   1.948 -0.8704  0.2351  0.5973
   37MOL   C58237374   3.263   7.956   1.863 -0.3175 -1.1725  0.6325
   37MOL   C58337375   3.206   7.841   1.796 -0.2227 -0.4772 -0.4577
   37MOL   C58437376   3.400   0.015   1.847  0.3685  0.0801 -0.6496
   37MOL   C58537377   3.456   0.127   1.919  0.3568 -0.7512 -0.2125
   37MOL   C58637378   3.404   0.170   2.320 -0.0196 -0.5988 -0.2241
   37MOL   C58737379   3.418   0.164   2.455 -0.1286 -0.4683 -0.0347
   37MOL   C58837380   3.468   0.129   2.864 -0.2514 -0.3853  0.7255
   37MOL   C58937381   3.388   0.098   2.976  0.5835 -0.2696  0.2065
   37MOL   C59037382   3.207   7.880   3.162  0.0229  0.0925  0.0883
   37MOL   C59137383   3.199   7.776   3.254 -0.4136  0.3212  0.0543
   37MOL   H59237384   3.186   7.725   3.586  0.9201 -1.1738  0.9156
   37MOL   H59337385   3.149   7.957   3.538 -1.8212  1.3103 -0.1374
   37MOL   H59437386   3.148   0.159   3.370  0.0925  0.2544 -0.8343
   37MOL   H59537387   3.153   0.226   3.142 -0.1193 -1.1751  2.7237
   37MOL   H59637388   3.111   0.282   2.897  1.1011  2.1496  0.4652
   37MOL   H59737389   3.255   0.340   2.705  0.7161  0.7178  0.4742
   37MOL   H59837390   3.582   0.312   2.692  2.1092 -2.1356 -1.2778
   37MOL   H59937391   3.573   0.457   2.509  1.2278  1.8350 -3.0145
   37MOL   H60037392   3.549   0.461   2.253  0.0334  0.7688  1.5219
   37MOL   H60137393   3.479   0.358   2.057 -0.0807 -1.7176 -3.1688
   37MOL   H60237394   3.189   0.180   2.133  0.1092 -1.3575  0.7877
   37MOL   H60337395   3.081   0.020   1.959 -0.5899 -1.2854 -0.5910
   37MOL   H60437396   3.177   7.768   1.872  0.4701 -0.1057  0.1713
   37MOL   H60537397   3.282   7.782   1.743  0.3514  1.8708 -2.3298
   37MOL   H60637398   3.468   7.946   1.779 -1.1817 -2.0832 -0.6314
   37MOL   H60737399   3.559   0.155   1.907  0.8635 -2.2243  0.6269
   37MOL   H60837400   3.358   0.085   2.272  0.6600  0.6721 -3.2170
   37MOL   H60937401   3.377   0.071   2.491  0.7666 -1.1568 -0.7667
   37MOL   H61037402   3.573   0.103   2.866 -0.4276 -1.0517  3.3224
   37MOL   H61137403   3.425   0.039   3.059 -0.0936 -1.5183 -0.3540
   37MOL   H61237404   3.221   7.857   3.057  1.8838 -0.2851  0.4121
   37MOL   H61337405   3.203   7.671   3.227 -1.4795  0.0400  0.9611
   37MOL   N61437406   3.085   7.864   1.713  0.2314 -0.6039  0.4894
   37MOL   C61537407   3.022   7.773   1.633  0.0603 -0.1119  0.3705
   37MOL   C61637408   3.084   7.649   1.598  0.4610  0.6313  0.0154
   37MOL   C61737409   3.014   7.555   1.524 -0.5569  0.7116  0.0739
   37MOL   C61837410   2.890   7.582   1.467 -0.5361  0.1957  0.2629
   37MOL   N61937411   2.830   7.482   1.392 -0.0776 -0.7974 -0.2285
   37MOL   C62037412   2.816   7.349   1.420 -0.2511 -0.0110  0.4037
   37MOL   C62137413   2.807   7.298   1.551 -0.5405  0.0070  0.1443
   37MOL   C62237414   2.770   7.164   1.580  0.1297 -1.0393  0.2664
   37MOL   C62337415   2.746   7.071   1.474 -0.4369 -0.9227 -0.7162
   37MOL   N62437416   2.711   6.937   1.492  0.1052 -0.1386 -0.1131
   37MOL   C62537417   2.761   6.853   1.591 -0.5954  0.0144  0.1253
   37MOL   C62637418   2.902   6.829   1.609  0.1534 -0.3815 -0.8594
   37MOL   C62737419   2.943   6.742   1.714  0.0368  0.7085  0.8926
   37MOL   C62837420   2.852   6.678   1.797 -0.3421 -0.4172 -0.6034
   37MOL   N62937421   2.898   6.595   1.897 -0.0700  0.3728  0.8178
   37MOL   C63037422   3.000   6.503   1.893  0.6299  0.3555  0.1555
   37MOL   C63137423   3.024   6.436   1.776  0.3780 -0.6156  0.3654
   37MOL   C63237424   3.113   6.331   1.773  0.3352  0.2342 -0.7903
   37MOL   C63337425   3.183   6.294   1.892  0.4565  0.1487 -0.2104
   37MOL   C63437426   3.277   6.175   1.890 -0.8691 -0.3176  0.2852
   37MOL   C63537427   3.167   6.359   2.012 -0.2143 -0.5148  0.2979
   37MOL   C63637428   3.064   6.454   2.010  0.1497 -0.2320  0.6333
   37MOL   C63737429   2.713   6.690   1.777  0.2046 -0.6493  0.3480
   37MOL   C63837430   2.673   6.778   1.667  0.1727  0.2383  0.0506
   37MOL   C63937431   2.748   7.128   1.340 -0.1164 -0.2990 -0.0155
   37MOL   C64037432   2.778   7.262   1.315  0.7334 -0.5615 -0.0135
   37MOL   C64137433   2.834   7.708   1.493  0.6428 -0.4200  0.1697
   37MOL   C64237434   2.894   7.805   1.577 -0.4684 -0.1523  0.2336
   37MOL   H64337435   3.065   7.963   1.713 -0.0924 -0.6669  0.8959
   37MOL   H64437436   3.184   7.620   1.624 -0.1240  1.1587  3.0789
   37MOL   H64537437   3.070   7.469   1.491 -2.2873 -0.7244  0.8090
   37MOL   H64637438   2.760   7.511   1.324  0.7035 -0.6805 -0.9852
   37MOL   H64737439   2.816   7.364   1.636  1.8913 -0.2231  0.1015
   37MOL   H64837440   2.782   7.128   1.681  2.0132 -0.3901  0.3060
   37MOL   H64937441   2.641   6.902   1.428 -0.7937  0.1892  0.6803
   37MOL   H65037442   2.983   6.874   1.554 -0.5410 -0.6816 -2.1409
   37MOL   H65137443   3.050   6.738   1.730  0.3381 -0.0324 -1.0890
   37MOL   H65237444   2.822   6.571   1.959  1.0876 -2.4747  1.1884
   37MOL   H65337445   2.961   6.458   1.691 -0.4046 -0.7678  0.9069
   37MOL   H65437446   3.125   6.263   1.689  1.9277  0.8672 -1.0992
   37MOL   H65537447   3.283   6.120   1.797 -0.9358 -1.1342  0.7585
   37MOL   H65637448   3.240   6.110   1.969 -0.4489  0.2163  0.9349
   37MOL   H65737449   3.213   6.321   2.102 -0.0438 -1.6442 -0.2549
   37MOL   H65837450   3.060   6.495   2.110  1.5164  1.3201  0.0820
   37MOL   H65937451   2.645   6.636   1.841  1.4183 -1.4713  0.9482
   37MOL   H66037452   2.567   6.788   1.650  0.6223  2.1450 -1.8614
   37MOL   H66137453   2.718   7.063   1.259 -2.0969 -0.6255  0.9748
   37MOL   H66237454   2.772   7.300   1.214 -1.4455 -2.1937 -0.5442
   37MOL   H66337455   2.744   7.736   1.441  0.7321  0.0180  0.2438
   37MOL   H66437456   2.838   7.895   1.601 -0.5362 -0.5154  1.4609
   37MOL   N66537457   3.410   6.209   1.935 -0.0759  0.0789  0.3134
   37MOL   C66637458   3.495   6.097   1.954 -0.8219  0.5745  0.6039
   37MOL   C66737459   3.572   6.085   2.070  0.3685 -0.0491  0.6481
   37MOL   C66837460   3.663   5.980   2.087  0.8432  0.2434 -0.6110
   37MOL   C66937461   3.682   5.886   1.986  0.5278  0.2552 -0.3496
   37MOL   N67037462   3.772   5.780   1.983 -0.3751  0.5276  0.9046
   37MOL   C67137463   3.781   5.662   2.058 -0.6320  0.6352 -0.1001
   37MOL   C67237464   3.725   5.660   2.190  0.3754  0.8210  0.0059
   37MOL   C67337465   3.750   5.551   2.266  0.5852 -0.5304  0.5333
   37MOL   C67437466   3.809   5.432   2.217  0.3307  0.2473  0.2832
   37MOL   N67537467   3.815   5.317   2.294  0.0592 -0.3085 -0.2129
   37MOL   C67637468   3.810   5.186   2.246 -0.2033 -0.4230 -0.4313
   37MOL   C67737469   3.867   5.080   2.326 -0.2349  0.4331  0.2789
   37MOL   C67837470   3.863   4.951   2.275 -0.3747 -0.2632  0.3612
   37MOL   C67937471   3.798   4.921   2.156  0.1915  0.3155 -0.4004
   37MOL   N68037472   3.795   4.792   2.107 -0.0004  0.2384  0.1922
   37MOL   C68137473   3.802   4.756   1.972  0.2181  0.7491 -0.1245
   37MOL   C68237474   3.832   4.852   1.872 -0.7992 -0.1390  0.0890
   37MOL   C68337475   3.850   4.805   1.739 -0.0513  0.8284  0.1815
   37MOL   C68437476   3.827   4.672   1.705  0.6277 -0.6248  0.0838
   37MOL   C68537477   3.839   4.638   1.559 -0.8038 -0.6440 -0.4323
   37MOL   C68637478   3.792   4.585   1.803  0.6760 -0.6840 -0.0202
   37MOL   C68737479   3.784   4.622   1.938 -0.2461  0.0345 -0.4262
   37MOL   C68837480   3.726   5.016   2.093 -0.4902 -0.5332  0.2433
   37MOL   C68937481   3.729   5.151   2.132 -0.6037 -0.7847  0.1475
   37MOL   C69037482   3.863   5.440   2.086  0.2877  0.4399  1.2021
   37MOL   C69137483   3.861   5.556   2.006 -0.6193 -0.0442  0.0902
   37MOL   C69237484   3.615   5.903   1.863  0.0468 -0.9130  0.5083
   37MOL   C69337485   3.519   6.008   1.847 -0.0517  0.4689 -0.4785
   37MOL   H69437486   3.406   6.251   2.026 -1.3210  2.1534 -0.6693
   37MOL   H69537487   3.558   6.146   2.158 -2.4918  2.0571 -1.1726
   37MOL   H69637488   3.721   5.974   2.178  0.2615 -0.1719 -0.2636
   37MOL   H69737489   3.813   5.771   1.891 -0.8494 -0.6868  0.8025
   37MOL   H69837490   3.658   5.733   2.232 -0.8156 -0.3574  0.1969
   37MOL   H69937491   3.703   5.547   2.364 -0.1176 -0.1889  0.2197
   37MOL   H70037492   3.866   5.339   2.378  0.1118  1.8249 -0.7710
   37MOL   H70137493   3.925   5.095   2.416 -0.3804  0.6572  0.3337
   37MOL   H70237494   3.906   4.869   2.331 -2.0169  0.1742  2.3342
   37MOL   H70337495   3.794   4.722   2.180 -0.1918 -1.3646 -1.3451
   37MOL   H70437496   3.853   4.956   1.892 -1.9314 -0.0724  0.9499
   37MOL   H70537497   3.865   4.869   1.654 -1.6802  0.6640 -0.2538
   37MOL   H70637498   3.802   4.537   1.540  0.8228 -1.1327 -1.0942
   37MOL   H70737499   3.945   4.638   1.533 -0.5115  2.6726  0.6437
   37MOL   H70837500   3.767   4.483   1.779 -1.2174 -0.4071  0.6263
   37MOL   H70937501   3.761   4.543   2.009  1.8551 -0.5873 -0.4087
   37MOL   H71037502   3.661   4.994   2.010 -0.3785  2.6451 -0.7486
   37MOL   H71137503   3.670   5.224   2.078  0.7862  1.9918  2.2427
   37MOL   H71237504   3.915   5.352   2.051  1.2259  1.4924 -0.1209
   37MOL   H71337505   3.912   5.560   1.911  0.0409  0.2082  0.4485
   37MOL   H71437506   3.621   5.828   1.785  1.3449 -0.0165 -0.2676
   37MOL   H71537507   3.474   6.011   1.748  0.9479  0.1106 -0.9476
   37MOL   N71637508   3.773   4.724   1.462  0.7718 -0.0476  0.5015
   37MOL   C71737509   3.764   4.699   1.322 -0.1356  0.4163 -0.1419
   37MOL   C71837510   3.803   4.581   1.269 -0.4784  0.2938 -1.2428
   37MOL   C71937511   3.801   4.554   1.135  0.6746  0.5653  0.5280
   37MOL   C72037512   3.746   4.648   1.053  0.2925  0.4769 -0.0251
   37MOL   N72137513   3.737   4.611   0.915 -0.4231 -0.6666  0.4207
   37MOL   C72237514   3.669   4.679   0.813  0.6757  0.2695  0.4946
   37MOL   C72337515   3.728   4.687   0.687  0.1142  0.2490  0.8963
   37MOL   C72437516   3.676   4.747   0.572  0.2830  0.1853 -0.0075
   37MOL   C72537517   3.568   4.826   0.599  0.6005  1.0922 -0.0815
   37MOL   N72637518   3.501   4.907   0.501 -0.3516  0.1801 -0.4809
   37MOL   C72737519   3.517   4.911   0.366 -0.5125  0.1817  0.2707
   37MOL   C72837520   3.535   4.796   0.288 -0.3268 -0.1582 -0.3887
   37MOL   C72937521   3.541   4.806   0.147 -0.4009  0.3024  0.7162
   37MOL   C73037522   3.528   4.935   0.086  0.2794  0.1531 -0.1866
   37MOL   N73137523   3.528   4.953   7.931 -0.0437 -0.0004  0.4269
   37MOL   C73237524   3.645   4.988   7.853  1.0962  0.4115 -0.3132
   37MOL   C73337525   3.746   5.065   7.918 -0.1089 -0.2505 -0.0020
   37MOL   C73437526   3.866   5.093   7.852 -0.7447  0.9141 -0.3965
   37MOL   C73537527   3.883   5.050   7.722 -1.1040 -0.1968 -0.5764
   37MOL   C73637528   4.019   5.077   7.652  0.1490 -0.4591  0.0025
   37MOL   C73737529   3.778   4.982   7.651 -0.4590 -0.4616 -0.9429
   37MOL   C73837530   3.655   4.956   7.717  0.5630  0.0116  0.3431
   37MOL   C73937531   3.506   5.048   0.165 -0.9709 -0.2803 -0.0782
   37MOL   C74037532   3.499   5.040   0.305 -0.3904 -0.3651 -0.3903
   37MOL   C74137533   3.501   4.823   0.723  0.5552  0.5044 -0.2246
   37MOL   C74237534   3.540   4.740   0.830  0.4331  0.3712  0.1104
   37MOL   C74337535   3.710   4.773   1.102  1.2901 -0.3072 -0.3598
   37MOL   C74437536   3.700   4.792   1.238  0.2945 -0.1889 -0.5313
   37MOL   H74537537   3.742   4.811   1.503  1.6682  1.8637 -2.7340
   37MOL   H74637538   3.850   4.505   1.329 -0.4553  0.8348 -0.5752
   37MOL   H74737539   3.845   4.465   1.094  1.5431  2.1042 -1.9995
   37MOL   H74837540   3.779   4.525   0.885 -0.7778 -0.8514  0.4512
   37MOL   H74937541   3.819   4.630   0.670  0.1606  0.7605 -0.7188
   37MOL   H75037542   3.724   4.753   0.476 -1.7723  2.4819 -0.9470
   37MOL   H75137543   3.448   4.982   0.544 -1.9195 -1.5298  0.6598
   37MOL   H75237544   3.552   4.703   0.341 -0.7989 -0.4174 -0.6908
   37MOL   H75337545   3.565   4.715   0.094  0.2225  0.3393  0.9245
   37MOL   H75437546   3.453   4.902   7.885 -0.4758  0.1957  0.9135
   37MOL   H75537547   3.743   5.078   0.043 -0.1556 -0.9595  0.0871
   37MOL   H75637548   3.940   5.150   7.907 -0.6572 -0.9939  1.5279
   37MOL   H75737549   4.097   5.057   7.726 -0.0510  0.7782  0.5608
   37MOL   H75837550   4.039   5.183   7.638  0.1775 -0.1894  1.8867
   37MOL   H75937551   3.793   4.951   7.548 -1.8273 -0.7977 -1.0514
   37MOL   H76037552   3.583   4.897   7.663 -0.0526  0.5316  0.5957
   37MOL   H76137553   3.485   5.143   0.118  2.1655  0.9733  0.9477
   37MOL   H76237554   3.458   5.122   0.362 -1.1101 -0.4687 -0.7443
   37MOL   H76337555   3.409   4.880   0.723 -1.1615 -2.1594 -2.5230
   37MOL   H76437556   3.490   4.746   0.925  2.0402 -0.5579  1.0360
   37MOL   H76537557   3.673   4.857   1.046 -1.1517 -0.0330  1.5975
   37MOL   H76637558   3.664   4.886   1.277 -0.5980 -0.6173 -0.3111
   37MOL   N76737559   4.051   5.010   7.529 -0.1118  0.4431 -0.5214
   37MOL   C76837560   4.073   4.876   7.520 -0.8571 -0.0099 -0.4861
   37MOL   C76937561   4.078   4.810   7.392 -0.0873 -0.3714 -0.4217
   37MOL   C77037562   4.109   4.676   7.387  0.1477 -0.1822 -0.9078
   37MOL   C77137563   4.161   4.604   7.497 -0.4330 -0.1589 -0.1586
   37MOL   N77237564   4.196   4.470   7.486 -0.3998 -0.3906 -0.3228
   37MOL   C77337565   4.239   4.403   7.374 -0.0074  0.3692  0.0880
   37MOL   C77437566   4.300   4.476   7.275  0.3729  1.0351  0.1060
   37MOL   C77537567   4.355   4.410   7.163  0.4999 -0.2559 -0.1826
   37MOL   C77637568   4.331   4.272   7.146  0.9050 -0.3344  0.6784
   37MOL   N77737569   4.380   4.212   7.033  0.4097 -0.3834  0.2361
   37MOL   C77837570   4.300   4.144   6.934  0.2989 -0.0914  0.1725
   37MOL   C77937571   4.360   4.113   6.809  0.3018  0.2885 -0.1720
   37MOL   C78037572   4.296   4.043   6.709  0.1271  0.7264  0.2752
   37MOL   C78137573   4.165   3.990   6.735  0.3188 -0.2048  0.1885
   37MOL   N78237574   4.090   3.932   6.632  0.2578 -0.4407 -0.5590
   37MOL   C78337575   3.954   3.948   6.606  0.6128 -0.9770 -0.2699
   37MOL   C78437576   3.878   3.851   6.541 -0.1975 -0.8019  0.2528
   37MOL   C78537577   3.744   3.876   6.506  0.8582  0.1271 -0.4930
   37MOL   C78637578   3.687   4.002   6.532 -0.1287  0.4616 -0.6742
   37MOL   C78737579   3.546   4.030   6.493 -0.5036  0.0325 -0.2430
   37MOL   C78837580   3.767   4.105   6.589 -0.8509 -0.2801  0.4932
   37MOL   C78937581   3.899   4.075   6.634  0.3716 -0.2019 -0.1578
   37MOL   C79037582   4.105   4.010   6.861  0.4948  0.9220  0.2711
   37MOL   C79137583   4.172   4.093   6.958  0.0228  0.3438  0.1415
   37MOL   C79237584   4.266   4.199   7.250  0.2233 -0.1476  0.1475
   37MOL   C79337585   4.225   4.263   7.372  0.0111  0.3135  0.4750
   37MOL   C79437586   4.162   4.672   7.620  0.6770  1.0033 -0.5824
   37MOL   C79537587   4.097   4.798   7.636 -0.1337  0.2135 -0.2158
   37MOL   H79637588   4.064   5.081   7.458  0.5028  2.7839  1.8517
   37MOL   H79737589   4.054   4.870   7.305  0.5883 -0.1290 -0.4381
   37MOL   H79837590   4.091   4.625   7.294  1.5567  1.5339 -2.1414
   37MOL   H79937591   4.174   4.419   7.570 -0.3113  0.1734  0.0446
   37MOL   H80037592   4.309   4.584   7.277  2.0904  0.9061  0.4485
   37MOL   H80137593   4.413   4.459   7.086  0.6469 -0.0860  0.0377
   37MOL   H80237594   4.463   4.257   6.997 -0.1914  1.5206  1.1679
   37MOL   H80337595   4.458   4.152   6.785  0.2519  0.2720 -0.3980
   37MOL   H80437596   4.334   4.042   6.608 -1.2957  3.5363 -0.3371
   37MOL   H80537597   4.151   3.883   6.568  0.1761 -1.6573  0.2720
   37MOL   H80637598   3.911   3.749   6.529  0.8511 -0.3108 -1.2440
   37MOL   H80737599   3.679   3.803   6.460  1.9937 -2.3275  1.6464
   37MOL   H80837600   3.553   4.043   6.385  0.8028  1.3233 -0.0138
   37MOL   H80937601   3.505   4.118   6.543 -0.3384 -0.7642  1.3052
   37MOL   H81037602   3.729   4.203   6.613 -2.6180  0.1498 -3.6153
   37MOL   H81137603   3.944   4.163   6.678  1.8988 -0.5284 -1.0490
   37MOL   H81237604   4.015   3.953   6.878  0.2535  0.4332 -2.4877
   37MOL   H81337605   4.119   4.099   7.052  0.7728  0.1851  0.5850
   37MOL   H81437606   4.264   4.092   7.239 -1.5500  0.0601 -1.7166
   37MOL   H81537607   4.188   4.206   7.455 -2.8190 -0.2941 -1.1048
   37MOL   H81637608   4.189   4.616   7.708  2.8439  0.1413 -1.7709
   37MOL   H81737609   4.095   4.841   7.735 -1.9698 -0.8599  0.2357
   37MOL   N81837610   3.453   3.917   6.520  0.3710 -0.0143 -0.1933
   37MOL   C81937611   3.407   3.878   6.647 -0.2280 -0.7216 -0.5472
   37MOL   C82037612   3.468   3.927   6.766 -0.2207 -0.2648 -0.3861
   37MOL   C82137613   3.436   3.871   6.895  0.0446 -0.1590  0.4361
   37MOL   C82237614   3.347   3.764   6.911 -0.1569  0.5548 -0.3577
   37MOL   N82337615   3.318   3.727   7.042  0.0333  0.3417 -0.1291
   37MOL   C82437616   3.397   3.712   7.155  0.5144 -0.9816  0.7136
   37MOL   C82537617   3.536   3.722   7.154  0.6680  0.0694  0.3482
   37MOL   C82637618   3.615   3.708   7.271  0.0561  0.0352 -0.1832
   37MOL   C82737619   3.553   3.678   7.384 -0.3838  0.1748 -0.2585
   37MOL   N82837620   3.628   3.665   7.499 -0.3482  0.3786 -1.0160
   37MOL   C82937621   3.600   3.705   7.631 -0.0461 -0.1974  0.5684
   37MOL   C83037622   3.673   3.652   7.740 -0.1904 -0.3577 -0.7981
   37MOL   C83137623   3.649   3.705   7.867  0.7098 -0.0511 -0.3655
   37MOL   C83237624   3.566   3.813   7.884 -0.4351 -0.2000 -0.3362
   37MOL   N83337625   3.562   3.870   0.031 -0.0671 -0.7415 -0.2339
   37MOL   C83437626   3.551   4.009   0.061  1.0033  0.7919 -0.3060
   37MOL   C83537627   3.523   4.052   0.196 -0.2718  0.0226 -0.2849
   37MOL   C83637628   3.520   4.195   0.231  0.6012  0.4940  0.1066
   37MOL   C83737629   3.550   4.284   0.130  0.1943 -0.8571 -0.1816
   37MOL   C83837630   3.539   4.435   0.166  0.1221  0.1123 -0.8406
   37MOL   C83937631   3.593   4.247   0.002 -0.1899  0.1272  0.0836
   37MOL   C84037632   3.587   4.112   7.951  0.6815 -0.2575  0.5894
   37MOL   C84137633   3.483   3.860   7.775  0.2556 -0.0113  0.0715
   37MOL   C84237634   3.488   3.797   7.651 -0.2558 -0.4942  0.2875
   37MOL   C84337635   3.412   3.648   7.389 -0.0286 -0.2102  0.4801
   37MOL   C84437636   3.330   3.674   7.275 -0.3126 -0.9588 -0.4603
   37MOL   C84537637   3.284   3.715   6.798  0.2178 -0.0739  0.0793
   37MOL   C84637638   3.309   3.775   6.668 -0.5104 -0.5622 -0.4906
   37MOL   H84737639   3.396   3.893   6.440 -1.7418  0.6739  1.0565
   37MOL   H84837640   3.528   4.017   6.770 -0.5937 -0.0596  0.9012
   37MOL   H84937641   3.488   3.911   6.981  1.2273  0.6624 -0.6535
   37MOL   H85037642   3.226   3.687   7.042 -0.5697  1.6978  1.4456
   37MOL   H85137643   3.578   3.746   7.058 -0.2716  0.1530 -0.0423
   37MOL   H85237644   3.721   3.720   7.255  0.0307 -0.0118 -0.3919
   37MOL   H85337645   3.711   3.607   7.491 -1.5289 -1.1918 -2.2292
   37MOL   H85437646   3.742   3.569   7.733 -1.7107 -1.8873  1.4562
   37MOL   H85537647   3.706   3.662   7.948  0.6002  1.0790  0.3182
   37MOL   H85637648   3.562   3.807   0.110  1.1006  0.0480  0.4167
   37MOL   H85737649   3.500   3.990   0.282 -2.2346 -0.4332 -1.0948
   37MOL   H85837650   3.496   4.213   0.335  0.9644  0.0330  0.2725
   37MOL   H85937651   3.617   4.500   0.125  0.0942  0.9631  0.4306
   37MOL   H86037652   3.540   4.453   0.273  1.8213 -2.1177 -0.4416
   37MOL   H86137653   3.624   4.320   7.911  1.2531 -0.5281  0.0144
   37MOL   H86237654   3.610   4.089   7.848 -0.3516 -1.7579  0.6766
   37MOL   H86337655   3.400   3.923   7.804 -0.0316 -0.6852  0.7100
   37MOL   H86437656   3.425   3.834   7.571 -0.3514 -0.3319  0.4373
   37MOL   H86537657   3.364   3.629   7.483 -0.0251 -1.7315  0.1975
   37MOL   H86637658   3.222   3.670   7.284 -0.2332 -0.0065  1.0382
   37MOL   H86737659   3.206   3.641   6.802 -0.3825  0.4741 -1.1948
   37MOL   H86837660   3.260   3.732   6.582 -1.6502 -2.0179  0.8513
   37MOL   N86937661   3.417   4.496   0.107 -0.2689 -0.3562  0.3066
   37MOL   C87037662   3.395   4.553   7.961  0.5941  0.3647 -0.2255
   37MOL   C87137663   3.265   4.596   7.933  0.1059  0.0695 -0.0188
   37MOL   C87237664   3.223   4.644   7.810  0.1325  0.4488  1.1178
   37MOL   C87337665   3.320   4.675   7.716  0.3761  0.1787  0.4118
   37MOL   N87437666   3.296   4.745   7.593 -0.2615 -0.7410 -0.3587
   37MOL   C87537667   3.376   4.730   7.480 -0.3714 -0.2616  0.5255
   37MOL   C87637668   3.386   4.598   7.428 -0.2228  0.1569  0.3404
   37MOL   C87737669   3.467   4.568   7.312  0.0540  0.1469 -0.0483
   37MOL   C87837670   3.532   4.676   7.251 -0.0877 -0.7104  0.5057
   37MOL   N87937671   3.615   4.654   7.144 -0.4113  0.5805  0.0645
   37MOL   C88037672   3.667   4.754   7.055 -0.3005 -0.0078 -0.5872
   37MOL   C88137673   3.572   4.849   7.001  0.0994 -0.3845 -0.1228
   37MOL   C88237674   3.626   4.954   6.917 -0.3851  0.4389  0.7262
   37MOL   C88337675   3.766   4.971   6.898 -0.3146  0.6936  0.7454
   37MOL   N88437676   3.819   5.085   6.833  0.0649  0.6908 -0.4209
   37MOL   C88537677   3.750   5.203   6.798  0.3047 -1.0839  0.3783
   37MOL   C88637678   3.788   5.321   6.858 -0.0359  0.3986  0.1009
   37MOL   C88737679   3.712   5.442   6.843 -0.0103 -0.5525  0.0236
   37MOL   C88837680   3.598   5.446   6.760  0.0206 -0.0062  0.4937
   37MOL   C88937681   3.502   5.561   6.740  0.1080  0.7662 -0.0550
   37MOL   C89037682   3.571   5.329   6.683  0.3348  0.3302  0.3389
   37MOL   C89137683   3.642   5.211   6.707 -0.0035 -0.3903 -0.7253
   37MOL   C89237684   3.855   4.879   6.954  0.1937  0.5121 -0.6247
   37MOL   C89337685   3.805   4.769   7.034 -0.6788  0.1224  0.6011
   37MOL   C89437686   3.522   4.810   7.304 -0.7364  0.0091  0.5386
   37MOL   C89537687   3.438   4.837   7.413 -0.4264 -0.1605 -0.8476
   37MOL   C89637688   3.448   4.625   7.739 -0.2810  0.8160 -0.1951
   37MOL   C89737689   3.492   4.565   7.858 -0.6788 -0.8879 -0.6665
   37MOL   H89837690   3.346   4.488   0.179  1.1637  0.6018  1.8594
   37MOL   H89937691   3.184   4.586   0.021  0.0716  0.6297  0.0260
   37MOL   H90037692   3.120   4.674   7.797 -0.0742  0.2403  2.2197
   37MOL   H90137693   3.200   4.758   7.566 -0.4284 -0.7852  0.2104
   37MOL   H90237694   3.340   4.517   7.481 -1.7427 -1.1343 -2.8031
   37MOL   H90337695   3.473   4.466   7.277  2.7897  0.2310  0.0181
   37MOL   H90437696   3.653   4.562   7.127  2.1016  1.2717  1.7303
   37MOL   H90537697   3.465   4.835   7.008 -0.2294 -0.0822 -3.6647
   37MOL   H90637698   3.562   5.034   6.882  0.6829  0.8038 -0.4273
   37MOL   H90737699   3.915   5.098   6.861  0.3673  1.2568 -1.6923
   37MOL   H90837700   3.870   5.320   6.929  1.6179  0.3369 -1.7573
   37MOL   H90937701   3.731   5.525   6.909 -1.3841 -1.5952  1.7594
   37MOL   H91037702   3.423   5.556   6.815  0.2315  0.2336  0.0432
   37MOL   H91137703   3.467   5.549   6.638 -1.0657 -2.4702  0.6606
   37MOL   H91237704   3.496   5.317   6.606  1.6335 -0.7916 -0.7923
   37MOL   H91337705   3.602   5.124   6.657 -0.5577 -0.6192  0.1121
   37MOL   H91437706   3.962   4.880   6.937  0.7612 -3.3419  1.9789
   37MOL   H91537707   3.870   4.694   7.076 -0.7341 -1.0673 -1.3768
   37MOL   H91637708   3.583   4.887   7.259  0.4727 -1.2451 -0.0062
   37MOL   H91737709   3.410   4.937   7.440 -0.0486 -0.1858 -0.3660
   37MOL   H91837710   3.527   4.630   7.665  0.8689 -0.0224  0.9472
   37MOL   H91937711   3.595   4.533   7.860 -0.2843  0.3533 -0.6645
   37MOL   N92037712   3.562   5.692   6.738 -0.5026  0.0553  0.1763
   37MOL   C92137713   3.487   5.800   6.695  0.4480 -0.3658 -0.2816
   37MOL   C92237714   3.352   5.799   6.736 -0.2903 -0.2992 -0.3879
   37MOL   C92337715   3.268   5.903   6.695  0.0419  0.4884  0.1178
   37MOL   C92437716   3.321   6.009   6.620 -1.2391  0.8110  0.2364
   37MOL   N92537717   3.229   6.102   6.573  0.0596  0.1223  0.0561
   37MOL   C92637718   3.266   6.213   6.501  0.0605  0.4556 -0.0902
   37MOL   C92737719   3.284   6.336   6.564  0.3525  0.8475 -0.0709
   37MOL   C92837720   3.330   6.447   6.491  0.2967 -0.4386  0.5534
   37MOL   C92937721   3.342   6.440   6.351  0.0513 -0.1913  0.0364
   37MOL   N93037722   3.386   6.561   6.285  0.5045  0.5571  0.1546
   37MOL   C93137723   3.330   6.623   6.164 -0.4383  0.0986  0.5254
   37MOL   C93237724   3.399   6.730   6.110 -0.3182 -0.8191  0.2543
   37MOL   C93337725   3.356   6.784   5.981  0.1024  0.3511  0.0324
   37MOL   C93437726   3.252   6.720   5.907 -0.5835  0.3731  0.2498
   37MOL   N93537727   3.199   6.763   5.781 -0.8757 -0.3802  0.5724
   37MOL   C93637728   3.069   6.763   5.724  0.2229 -0.3703 -0.0482
   37MOL   C93737729   2.955   6.748   5.812  0.0887 -0.7722 -0.1245
   37MOL   C93837730   2.827   6.744   5.756  0.4286  0.0139  0.4169
   37MOL   C93937731   2.813   6.771   5.622  0.4640 -0.3909  0.1846
   37MOL   C94037732   2.672   6.774   5.568 -0.3667  0.2443  0.7737
   37MOL   C94137733   2.924   6.783   5.538 -0.1033  0.7944 -0.1576
   37MOL   C94237734   3.054   6.782   5.584  0.3125 -0.0615 -0.4593
   37MOL   C94337735   3.195   6.600   5.955 -0.1832  0.1170 -0.2941
   37MOL   C94437736   3.232   6.555   6.083  0.5176  0.4054 -0.4100
   37MOL   C94537737   3.321   6.315   6.288  0.4119 -0.1039 -0.2484
   37MOL   C94637738   3.295   6.202   6.367 -0.2899  1.1574 -0.0198
   37MOL   C94737739   3.458   6.007   6.577  0.6778  0.0289  0.1212
   37MOL   C94837740   3.538   5.899   6.610  0.0120  0.0209 -0.3752
   37MOL   H94937741   3.659   5.690   6.711 -0.8503  0.1139 -1.1437
   37MOL   H95037742   3.314   5.720   6.798  0.1749 -1.3796 -1.4496
   37MOL   H95137743   3.169   5.907   6.738 -0.5442 -1.3301 -0.9967
   37MOL   H95237744   3.142   6.059   6.546  0.0862  0.7938 -1.1166
   37MOL   H95337745   3.277   6.337   6.672  0.4731  0.6733 -0.0605
   37MOL   H95437746   3.344   6.542   6.540 -0.4054 -0.0634  0.0412
   37MOL   H95537747   3.433   6.626   6.345  0.2532  0.0938  0.8585
   37MOL   H95637748   3.478   6.761   6.177 -1.8699  0.6692  1.4499
   37MOL   H95737749   3.400   6.874   5.941 -1.5130  0.2776 -1.9715
   37MOL   H95837750   3.272   6.800   5.723 -0.4657 -0.8769  0.7697
   37MOL   H95937751   2.968   6.737   5.919 -2.1720  2.6368  0.5888
   37MOL   H96037752   2.746   6.733   5.826  1.1859  2.9336  1.8258
   37MOL   H96137753   2.654   6.851   5.493  1.0196 -1.0953 -0.9721
   37MOL   H96237754   2.605   6.784   5.653  1.2426  0.2635  2.0655
   37MOL   H96337755   2.906   6.801   5.433  0.7490 -0.5405 -0.5531
   37MOL   H96437756   3.141   6.787   5.521  0.3777 -0.2112 -0.3823
   37MOL   H96537757   3.113   6.550   5.906 -0.5097 -0.3721  0.7405
   37MOL   H96637758   3.182   6.474   6.133 -0.0832  0.8014 -0.3726
   37MOL   H96737759   3.326   6.297   6.182  0.6374 -1.4775 -0.0096
   37MOL   H96837760   3.286   6.105   6.322  1.5619  0.5451  0.8806
   37MOL   H96937761   3.503   6.087   6.521  0.2430  1.9542  2.4493
   37MOL   H97037762   3.641   5.893   6.577 -0.1336  0.0156 -0.8311
   37MOL   N97137763   2.638   6.637   5.518 -0.3434 -0.5024 -0.5103
   37MOL   C97237764   2.653   6.593   5.388 -0.1065 -0.4930 -0.7143
   37MOL   C97337765   2.714   6.665   5.283 -0.8351 -0.0347  0.1528
   37MOL   C97437766   2.731   6.600   5.164 -0.1781 -0.2440  0.3393
   37MOL   C97537767   2.672   6.473   5.134 -0.2215  0.2227 -0.6422
   37MOL   N97637768   2.694   6.425   5.007 -0.2251  0.1405 -0.0637
   37MOL   C97737769   2.588   6.366   4.938 -0.5529 -0.3996  0.1802
   37MOL   C97837770   2.560   6.226   4.939 -0.6574  0.5333  0.7080
   37MOL   C97937771   2.456   6.172   4.864 -0.1693 -0.3180  0.1870
   37MOL   C98037772   2.384   6.262   4.778  0.6215 -0.5700  0.2729
   37MOL   N98137773   2.275   6.209   4.708  0.6459 -0.7737 -0.3977
   37MOL   C98237774   2.143   6.252   4.698 -0.1838 -0.3649  0.1220
   37MOL   C98337775   2.100   6.345   4.795  0.8489 -0.2202 -0.0259
   37MOL   C98437776   1.963   6.391   4.793  0.0948  0.0052  0.1944
   37MOL   C98537777   1.875   6.334   4.701  0.6292  0.5763  0.3676
   37MOL   N98637778   1.740   6.363   4.708  0.1522 -0.2852 -0.6757
   37MOL   C98737779   1.630   6.303   4.648  1.5246 -0.0893 -0.0634
   37MOL   C98837780   1.538   6.387   4.580 -0.2411 -0.3343  0.2524
   37MOL   C98937781   1.409   6.346   4.537 -0.2009  0.4854  0.2667
   37MOL   C99037782   1.380   6.209   4.533 -0.6235  0.5904 -0.0842
   37MOL   C99137783   1.255   6.147   4.470 -0.4259  0.2418  0.0123
   37MOL   C99237784   1.478   6.117   4.590  0.1343 -0.4338  1.2167
   37MOL   C99337785   1.599   6.167   4.651  0.1822 -0.4267  0.1649
   37MOL   C99437786   1.922   6.236   4.602 -0.0461 -0.6705  0.2719
   37MOL   C99537787   2.059   6.192   4.604 -0.1456  0.2847 -0.4377
   37MOL   C99637788   2.417   6.400   4.776  0.3541  0.1850 -0.1379
   37MOL   C99737789   2.517   6.454   4.857  0.3466  0.1385  0.3734
   37MOL   C99837790   2.610   6.404   5.235  0.8740  0.9139  0.6602
   37MOL   C99937791   2.597   6.465   5.361 -0.1644 -0.2584 -0.0942
   37MOL     H137792   2.617   6.567   5.588  0.3490 -0.3977 -0.2005
   37MOL     H237793   2.755   6.765   5.289 -1.4517  0.1431  1.3644
   37MOL     H337794   2.791   6.651   5.090 -2.7263 -0.4454 -1.9222
   37MOL     H437795   2.730   6.502   4.952 -0.2685  0.1167 -0.1251
   37MOL     H537796   2.622   6.160   4.998 -1.5239 -2.0435 -1.1325
   37MOL     H637797   2.441   6.066   4.872  1.6579 -0.5184  1.2572
   37MOL     H737798   2.293   6.116   4.673 -0.1812 -1.5416  1.1452
   37MOL     H837799   2.154   6.394   4.874  0.3410  2.0399 -1.0434
   37MOL     H937800   1.939   6.467   4.866  1.6637  0.7701 -0.0653
   37MOL    H1037801   1.715   6.444   4.763 -0.9226 -0.1972 -1.2643
   37MOL    H1137802   1.560   6.493   4.579 -1.9013  0.0203 -1.2259
   37MOL    H1237803   1.341   6.421   4.502 -1.0713 -0.2720  0.3157
   37MOL    H1337804   1.181   6.146   4.550  0.6197 -0.6088  0.9894
   37MOL    H1437805   1.265   6.042   4.441  0.3812  1.1738 -3.2771
   37MOL    H1537806   1.459   6.011   4.582 -2.8611  0.3301 -3.9723
   37MOL    H1637807   1.663   6.093   4.697  0.0088 -0.1366  0.8820
   37MOL    H1737808   1.860   6.197   4.523 -0.1453 -0.3253  0.1788
   37MOL    H1837809   2.102   6.127   4.530 -0.4049 -0.5323  0.1336
   37MOL    H1937810   2.347   6.465   4.726  0.7978  0.4615 -0.4007
   37MOL    H2037811   2.530   6.561   4.852  1.0660 -0.0011 -0.8177
   37MOL    H2137812   2.566   6.305   5.232  0.4775  1.0365  2.0261
   37MOL    H2237813   2.548   6.400   5.431 -2.6230  0.6711 -0.9066
   37MOL    H2337814   1.229   6.217   4.391  1.1567  0.3495 -0.4091
   38MOL     N137815   1.426   3.298   5.325 -0.2402 -0.0472 -0.3981
   38MOL     C237816   1.306   3.245   5.378 -0.6430 -0.2006  0.5036
   38MOL     C337817   1.193   3.222   5.288 -0.0414 -0.5060 -0.8784
   38MOL     C437818   1.080   3.158   5.335  0.5935 -0.3633 -0.3527
   38MOL     C537819   1.068   3.118   5.468  0.5406  0.0537 -0.3412
   38MOL     N637820   0.949   3.049   5.512 -0.2197  0.2305 -0.6161
   38MOL     C737821   0.947   2.935   5.594  0.2639  0.4161 -0.4762
   38MOL     C837822   0.827   2.897   5.657 -0.1603  0.1739  0.2086
   38MOL     C937823   0.827   2.786   5.736 -0.6396 -0.6405  0.3795
   38MOL    C1037824   0.939   2.698   5.743 -0.5446 -0.4308 -0.6390
   38MOL    N1137825   0.938   2.579   5.814  0.5841  0.2925 -0.6174
   38MOL    C1237826   0.867   2.462   5.783 -0.5654 -0.5258 -0.3469
   38MOL    C1337827   0.763   2.454   5.689  1.0086 -0.2375  0.1309
   38MOL    C1437828   0.701   2.332   5.651  0.1051 -0.6327  0.3117
   38MOL    C1537829   0.747   2.208   5.697 -0.8536  0.4201 -0.3818
   38MOL    N1637830   0.716   2.085   5.638  0.6369 -0.7600  0.4076
   38MOL    C1737831   0.592   2.041   5.595 -0.0104 -0.0446  0.1381
   38MOL    C1837832   0.591   1.907   5.554  0.5348  0.6851 -0.4351
   38MOL    C1937833   0.475   1.854   5.494  0.3030 -0.6099  0.1927
   38MOL    C2037834   0.358   1.934   5.475  0.5760  0.2278  0.0963
   38MOL    C2137835   0.233   1.872   5.413 -0.4207  0.7357  0.2785
   38MOL    C2237836   0.356   2.063   5.532  0.5357  0.2483  0.7614
   38MOL    C2337837   0.475   2.118   5.583  0.4721  0.3728  0.1255
   38MOL    C2437838   0.843   2.220   5.800 -0.1099  0.1234 -0.2528
   38MOL    C2537839   0.896   2.336   5.846  0.9068 -0.8222  0.1975
   38MOL    C2637840   1.057   2.732   5.672 -0.5059 -0.7338 -0.1616
   38MOL    C2737841   1.058   2.848   5.591  0.2331 -0.3023  0.2193
   38MOL    C2837842   1.170   3.151   5.561 -0.4712 -0.1259 -0.3322
   38MOL    C2937843   1.291   3.214   5.516 -0.0685 -0.4354  0.2763
   38MOL    H3037844   1.449   3.259   5.235  1.7341 -2.7198  1.2127
   38MOL    H3137845   1.199   3.243   5.182 -2.9650  0.0049 -0.9789
   38MOL    H3237846   1.000   3.130   5.269  1.9035 -2.1001 -1.2333
   38MOL    H3337847   0.871   3.064   5.450 -1.1262  1.0302  0.6943
   38MOL    H3437848   0.738   2.955   5.641 -0.1968 -0.7418 -3.5776
   38MOL    H3537849   0.733   2.763   5.784 -0.6668 -1.4992 -0.0850
   38MOL    H3637850   1.030   2.555   5.848 -0.0663 -0.7359  0.4453
   38MOL    H3737851   0.733   2.548   5.645  3.0937  0.9992  1.2660
   38MOL    H3837852   0.627   2.340   5.573  1.1730 -0.6379 -0.7191
   38MOL    H3937853   0.785   2.013   5.656  0.6050 -0.9400 -0.1821
   38MOL    H4037854   0.685   1.854   5.559  0.4810  0.6991  0.7393
   38MOL    H4137855   0.458   1.750   5.470  2.7095 -0.7545 -1.0280
   38MOL    H4237856   0.171   1.938   5.352 -0.5748 -0.8593 -1.3365
   38MOL    H4337857   0.166   1.844   5.495 -1.3468  1.2048 -0.3030
   38MOL    H4437858   0.269   2.125   5.546  0.1389 -0.2456  0.5113
   38MOL    H4537859   0.478   2.219   5.623 -1.0355  0.3537  0.3164
   38MOL    H4637860   0.886   2.136   5.851  0.8155  1.3485  1.0108
   38MOL    H4737861   0.964   2.339   5.929 -0.3627  1.0646  1.2042
   38MOL    H4837862   1.142   2.667   5.661  0.2525  0.1521  0.3039
   38MOL    H4937863   1.146   2.874   5.534  1.3571 -0.5355  1.8226
   38MOL    H5037864   1.166   3.128   5.667 -2.0972  2.0823  0.0962
   38MOL    H5137865   1.372   3.238   5.583 -0.3772  0.3869  0.3621
   38MOL    H5237866   1.510   3.314   5.378 -0.6042 -0.3602  0.2782
   38MOL    N5337867   0.249   1.747   5.334 -0.4224  0.2983 -0.0088
   38MOL    C5437868   0.343   1.749   5.225 -0.3269  0.0354 -0.4951
   38MOL    C5537869   0.407   1.631   5.175  0.3316 -0.3587  0.0576
   38MOL    C5637870   0.491   1.641   5.056  0.2344 -0.8541 -0.4868
   38MOL    C5737871   0.516   1.765   4.996 -0.0852 -0.4857 -0.4254
   38MOL    N5837872   0.598   1.777   4.884  0.3655 -0.4957 -0.2508
   38MOL    C5937873   0.691   1.880   4.860 -0.4734 -0.3866  0.6383
   38MOL    C6037874   0.719   1.987   4.953  0.1839 -0.4719  0.2100
   38MOL    C6137875   0.804   2.097   4.915  0.5927  0.7557  0.0462
   38MOL    C6237876   0.861   2.099   4.787 -0.2415 -0.0215  0.0533
   38MOL    N6337877   0.925   2.214   4.741  0.1214 -0.2137  0.5899
   38MOL    C6437878   0.986   2.318   4.814 -0.0564  1.0386  0.6827
   38MOL    C6537879   1.045   2.291   4.937 -1.4615 -0.5544 -0.2947
   38MOL    C6637880   1.102   2.390   5.016 -0.8239  0.2610 -0.4717
   38MOL    C6737881   1.118   2.518   4.969  0.4180 -0.4900  0.2562
   38MOL    N6837882   1.161   2.619   5.050  0.0410 -0.0020 -0.0434
   38MOL    C6937883   1.228   2.738   5.011 -0.1049  0.5885 -0.2296
   38MOL    C7037884   1.293   2.761   4.888  0.0378  0.0741 -0.7883
   38MOL    C7137885   1.356   2.881   4.858 -0.0126 -0.1022  0.2259
   38MOL    C7237886   1.369   2.983   4.956  0.2438  0.4411  0.3303
   38MOL    C7337887   1.459   3.100   4.931  0.1884 -0.0205 -0.7780
   38MOL    C7437888   1.300   2.965   5.076 -0.4673 -0.4253 -0.6205
   38MOL    C7537889   1.233   2.844   5.109 -0.6472  0.6104  0.5787
   38MOL    C7637890   1.063   2.556   4.839  0.4646 -0.5418 -0.2099
   38MOL    C7737891   0.985   2.455   4.774 -0.7522 -0.2535  0.1959
   38MOL    C7837892   0.839   1.994   4.689  0.4405 -0.0422  0.6408
   38MOL    C7937893   0.754   1.885   4.733 -1.0097 -0.1662 -0.1682
   38MOL    C8037894   0.440   1.875   5.044 -0.3633 -0.4010  0.2374
   38MOL    C8137895   0.356   1.868   5.154 -0.9593 -0.0767  0.6331
   38MOL    H8237896   0.252   1.661   5.387  0.6544  0.5528  0.3620
   38MOL    H8337897   0.402   1.531   5.217 -0.9542  0.4795  1.9492
   38MOL    H8437898   0.543   1.559   5.009 -1.9707 -2.8617  0.4596
   38MOL    H8537899   0.608   1.691   4.832 -0.6620 -0.2475 -0.8666
   38MOL    H8637900   0.679   1.995   5.054  1.2235  3.5172  0.4038
   38MOL    H8737901   0.792   2.174   4.989  1.5027  1.7959 -0.8780
   38MOL    H8837902   0.898   2.245   4.649 -1.9090 -1.7966  0.6308
   38MOL    H8937903   1.045   2.192   4.980  1.6859 -1.0328 -1.2848
   38MOL    H9037904   1.117   2.375   5.122 -1.4441 -0.3660 -0.4684
   38MOL    H9137905   1.127   2.616   5.145 -0.6454  1.0037 -0.2490
   38MOL    H9237906   1.279   2.685   4.813 -2.8092  1.0144 -1.2692
   38MOL    H9337907   1.392   2.885   4.757 -1.9809 -0.6793 -0.5324
   38MOL    H9437908   1.404   3.180   4.882 -0.6483  0.6240  1.1698
   38MOL    H9537909   1.530   3.062   4.857  0.8946 -0.5391  0.1572
   38MOL    H9637910   1.296   3.032   5.161 -2.0176 -0.5171 -0.5986
   38MOL    H9737911   1.198   2.824   5.209  2.0969 -1.4705  1.1992
   38MOL    H9837912   1.079   2.652   4.792 -0.4228 -0.1693  0.2471
   38MOL    H9937913   0.927   2.479   4.685 -0.8760 -1.0894  0.0446
   38MOL   H10037914   0.879   1.997   4.589  1.9505 -0.4285  1.2348
   38MOL   H10137915   0.737   1.812   4.656  3.8615  1.1953 -2.7512
   38MOL   H10237916   0.457   1.975   5.008 -0.8476 -0.0142  1.0945
   38MOL   H10337917   0.308   1.959   5.187 -0.1879  0.9928 -1.1652
   38MOL   N10437918   1.522   3.145   5.054  0.4432  0.2761 -0.3839
   38MOL   C10537919   1.631   3.232   5.038 -1.0443 -0.5458  0.1290
   38MOL   C10637920   1.640   3.319   4.928 -0.3401  0.1175  0.1800
   38MOL   C10737921   1.750   3.405   4.919  0.2958 -0.4019  0.6119
   38MOL   C10837922   1.843   3.416   5.030  0.1931  0.2335  0.7559
   38MOL   N10937923   1.936   3.521   5.031  0.5598 -0.7305  0.0767
   38MOL   C11037924   2.054   3.530   5.103 -0.3937 -0.2564  0.9680
   38MOL   C11137925   2.093   3.649   5.167 -0.1284 -0.0643  0.1335
   38MOL   C11237926   2.212   3.657   5.239 -0.0540  0.7672  0.4132
   38MOL   C11337927   2.295   3.540   5.258 -0.6205 -0.3129  0.6811
   38MOL   N11437928   2.415   3.548   5.335  0.5498 -0.2716 -0.2680
   38MOL   C11537929   2.410   3.583   5.473  0.1688 -0.1244  0.3027
   38MOL   C11637930   2.289   3.596   5.540  0.4896  0.2266  0.4607
   38MOL   C11737931   2.288   3.627   5.672 -0.0370 -1.2386 -0.2773
   38MOL   C11837932   2.406   3.660   5.740  0.4070  0.3298  0.1565
   38MOL   N11937933   2.402   3.707   5.872 -0.4323 -0.9491  0.0699
   38MOL   C12037934   2.457   3.657   5.987 -0.2974  0.0051  0.5310
   38MOL   C12137935   2.549   3.551   5.985  0.0071 -0.3694 -0.0526
   38MOL   C12237936   2.589   3.490   6.109  0.3775 -0.8510  0.1574
   38MOL   C12337937   2.541   3.546   6.231 -0.0653  0.3050 -0.0728
   38MOL   C12437938   2.605   3.492   6.367  0.1851  0.7394 -0.0602
   38MOL   C12537939   2.450   3.649   6.226 -0.2052  0.4632  0.2148
   38MOL   C12637940   2.403   3.705   6.108 -0.0005 -0.2411  0.2710
   38MOL   C12737941   2.531   3.663   5.669  0.7012  0.0025  0.5833
   38MOL   C12837942   2.533   3.623   5.532 -0.2421 -0.0585  0.4278
   38MOL   C12937943   2.256   3.415   5.200  0.9998  0.2021  0.5796
   38MOL   C13037944   2.138   3.416   5.112  0.0813 -0.7199 -0.8546
   38MOL   C13137945   1.829   3.324   5.134  0.6929 -0.5635  0.2136
   38MOL   C13237946   1.724   3.236   5.141  0.7876 -0.4071 -0.6981
   38MOL   H13337947   1.521   3.077   5.129  0.8140 -1.2431 -1.7342
   38MOL   H13437948   1.576   3.324   4.841  1.6228  2.2566 -1.1858
   38MOL   H13537949   1.750   3.471   4.833 -0.7456  0.8806  1.5660
   38MOL   H13637950   1.899   3.610   5.001  0.6535 -0.3928  0.9556
   38MOL   H13737951   2.035   3.741   5.170  0.0921  0.0562  0.9187
   38MOL   H13837952   2.245   3.747   5.288  2.1880  0.5121 -0.6108
   38MOL   H13937953   2.501   3.543   5.283  0.7064 -1.9686  0.1511
   38MOL   H14037954   2.193   3.565   5.502  1.1587 -0.3577 -0.8109
   38MOL   H14137955   2.190   3.632   5.716 -0.1292 -0.1084 -0.6169
   38MOL   H14237956   2.306   3.730   5.895 -0.3459  0.2977 -0.7764
   38MOL   H14337957   2.577   3.502   5.894  0.3297  2.4800 -1.5564
   38MOL   H14437958   2.660   3.408   6.116  1.9314  0.3329 -1.1670
   38MOL   H14537959   2.582   3.386   6.371 -0.3873  0.8497 -0.2946
   38MOL   H14637960   2.562   3.539   6.456 -0.2551 -0.7855  0.5404
   38MOL   H14737961   2.412   3.683   6.321  0.1775  1.4860  0.0050
   38MOL   H14837962   2.345   3.796   6.111  2.0029  1.1553 -1.8975
   38MOL   H14937963   2.619   3.694   5.723  1.9295 -1.7512 -0.3765
   38MOL   H15037964   2.624   3.624   5.474  0.3964 -0.2194  1.4206
   38MOL   H15137965   2.316   3.326   5.206  2.3269  1.1862  2.2175
   38MOL   H15237966   2.107   3.326   5.062  0.4220 -1.1568 -0.2987
   38MOL   H15337967   1.895   3.344   5.217  1.1731 -1.6469  0.1026
   38MOL   H15437968   1.718   3.176   5.231  1.9360  1.7378  0.8527
   38MOL   N15537969   2.750   3.506   6.366  0.2320 -0.0605 -0.2202
   38MOL   C15637970   2.826   3.421   6.458  0.3527 -0.0721  0.1788
   38MOL   C15737971   2.905   3.314   6.408 -0.1278 -0.4917  0.2653
   38MOL   C15837972   2.983   3.242   6.494  0.3423 -0.1724  0.6534
   38MOL   C15937973   2.983   3.264   6.627 -0.3033  0.3996 -0.7067
   38MOL   N16037974   3.063   3.173   6.709 -0.0943  0.2497  0.2246
   38MOL   C16137975   3.105   3.188   6.841 -0.3846 -0.0391 -0.0705
   38MOL   C16237976   3.149   3.068   6.905  0.0789  0.8267 -0.0357
   38MOL   C16337977   3.196   3.072   7.036  0.4381  0.4041 -0.1736
   38MOL   C16437978   3.208   3.194   7.107 -0.5252 -0.3882 -0.0406
   38MOL   N16537979   3.269   3.201   7.231 -0.2155  0.2943  0.2496
   38MOL   C16637980   3.396   3.240   7.249  0.6899 -0.4332  0.3075
   38MOL   C16737981   3.494   3.244   7.150 -0.0927  0.7773 -0.3844
   38MOL   C16837982   3.624   3.300   7.170  0.0623 -0.0475 -0.2745
   38MOL   C16937983   3.659   3.335   7.303  0.3306 -0.1895  0.6209
   38MOL   N17037984   3.781   3.397   7.331  0.0349 -0.2122  0.4603
   38MOL   C17137985   3.846   3.418   7.453 -0.5618 -0.5215 -0.4046
   38MOL   C17237986   3.933   3.532   7.469 -0.2889 -0.7924  0.0705
   38MOL   C17337987   4.001   3.556   7.589 -0.1134 -0.2898  0.4921
   38MOL   C17437988   3.992   3.465   7.695 -0.3716 -0.0001 -0.3880
   38MOL   C17537989   4.076   3.495   7.827  0.1762  0.1032 -0.0884
   38MOL   C17637990   3.903   3.354   7.682 -0.3264 -0.0743  0.2199
   38MOL   C17737991   3.829   3.336   7.562  0.7007  0.2371 -0.0508
   38MOL   C17837992   3.564   3.330   7.407 -0.7043  0.2411 -0.0118
   38MOL   C17937993   3.434   3.283   7.377 -0.4112  0.0522  0.1691
   38MOL   C18037994   3.164   3.310   7.046 -0.3422  0.0001  0.1984
   38MOL   C18137995   3.112   3.309   6.918  0.3579 -0.1812  0.0808
   38MOL   C18237996   2.888   3.347   6.686  0.9229  0.1369  0.0543
   38MOL   C18337997   2.815   3.441   6.602 -0.2572  0.4217  0.4535
   38MOL   H18437998   2.770   3.495   6.267  1.1795 -3.4875  0.2723
   38MOL   H18537999   2.912   3.295   6.302  2.3833 -1.9994  0.6726
   38MOL   H18638000   3.052   3.167   6.457  1.8786  0.1942  2.6915
   38MOL   H18738001   3.064   3.088   6.656 -0.6590  1.5172 -1.8751
   38MOL   H18838002   3.138   2.970   6.860  0.1075 -0.2867  2.3332
   38MOL   H18938003   3.228   2.980   7.083 -1.3975  0.7286  1.7491
   38MOL   H19038004   3.235   3.138   7.303 -1.8523  0.6897 -0.1717
   38MOL   H19138005   3.471   3.204   7.052  0.9929 -0.4649 -0.1542
   38MOL   H19238006   3.685   3.296   7.081  0.7636 -2.5201  0.2729
   38MOL   H19338007   3.822   3.436   7.247 -1.6436  1.6516  0.4458
   38MOL   H19438008   3.955   3.587   7.378 -1.1171  0.5130  0.6438
   38MOL   H19538009   4.066   3.641   7.603 -0.5851  0.9125 -4.1074
   38MOL   H19638010   4.170   3.546   7.803 -0.1481 -0.0973 -1.8441
   38MOL   H19738011   4.110   3.395   7.853  0.4548  0.1064 -0.4366
   38MOL   H19838012   3.885   3.283   7.762 -4.8439  0.3469 -0.2689
   38MOL   H19938013   3.768   3.248   7.555  2.2665 -0.8711 -0.0663
   38MOL   H20038014   3.580   3.370   7.506 -1.4862  1.7724 -0.4876
   38MOL   H20138015   3.365   3.277   7.460 -3.1908 -0.4846 -2.1080
   38MOL   H20238016   3.163   3.403   7.101 -3.7623  0.7713 -1.0249
   38MOL   H20338017   3.082   3.404   6.878 -1.5743 -0.0549  1.7692
   38MOL   H20438018   2.885   3.357   6.793 -1.6273 -2.2119  0.2398
   38MOL   H20538019   2.764   3.525   6.646  0.0163  1.0289 -0.3657
   38MOL   N20638020   3.993   3.561   7.929 -0.5217  0.4350  0.0535
   38MOL   C20738021   4.029   3.558   0.084  0.3302  0.0138  0.2901
   38MOL   C20838022   4.095   3.451   0.147 -0.3221 -0.1578 -0.0767
   38MOL   C20938023   4.131   3.453   0.286 -0.3167 -0.3350 -0.0478
   38MOL   C21038024   4.092   3.567   0.359  0.9266 -0.3901 -0.6799
   38MOL   N21138025   4.121   3.570   0.492  0.2157 -0.5576 -0.5491
   38MOL   C21238026   4.147   3.684   0.568  0.5013  0.4558  0.0922
   38MOL   C21338027   4.142   3.666   0.708  0.4560 -1.0704 -0.0591
   38MOL   C21438028   4.200   3.770   0.785  0.1843  0.7695 -0.1976
   38MOL   C21538029   4.245   3.891   0.733  0.3569 -0.0554  0.4639
   38MOL   N21638030   4.299   3.994   0.803 -0.3637 -0.2286  0.3923
   38MOL   C21738031   4.309   4.025   0.939  0.3246  0.9556  0.1653
   38MOL   C21838032   4.410   4.110   0.984 -0.3260  0.3736  0.6924
   38MOL   C21938033   4.428   4.137   1.128 -0.9218  0.3256 -0.0894
   38MOL   C22038034   4.344   4.079   1.216  0.0607 -0.0637  0.2588
   38MOL   N22138035   4.351   4.106   1.353  0.3564 -0.5168 -0.0044
   38MOL   C22238036   4.437   4.181   1.431  0.1450 -0.3441  0.0582
   38MOL   C22338037   4.430   4.319   1.415 -0.0868 -0.0400  0.9787
   38MOL   C22438038   4.521   4.398   1.486 -0.1393  0.3376 -0.1143
   38MOL   C22538039   4.605   4.346   1.577 -0.7006  0.4580  0.4352
   38MOL   C22638040   4.704   4.440   1.650  0.2852  0.2452  0.5471
   38MOL   C22738041   4.605   4.202   1.600  0.1724 -0.7439 -0.1273
   38MOL   C22838042   4.517   4.123   1.531 -0.7327  0.0588  0.0028
   38MOL   C22938043   4.236   4.000   1.169 -0.3239  0.3682  0.5274
   38MOL   C23038044   4.219   3.976   1.034  0.3972  0.0528 -0.3950
   38MOL   C23138045   4.238   3.908   0.590 -0.3300  0.3070 -0.3772
   38MOL   C23238046   4.197   3.803   0.514  0.6504 -0.1594  0.3895
   38MOL   C23338047   4.019   3.668   0.299  0.2163 -0.6518  0.4988
   38MOL   C23438048   3.977   3.664   0.163 -0.1048 -0.1548  0.6329
   38MOL   H23538049   3.934   3.633   7.891 -2.4921  0.1623  2.4554
   38MOL   H23638050   4.129   3.362   0.096  1.1303 -0.4310  1.3579
   38MOL   H23738051   4.186   3.379   0.342  1.7727  2.6503  2.0661
   38MOL   H23838052   4.150   3.486   0.541  0.8102 -0.4409 -0.7007
   38MOL   H23938053   4.102   3.577   0.754  0.7011 -0.8258  0.6396
   38MOL   H24038054   4.197   3.757   0.892 -3.5860  1.5713 -0.1442
   38MOL   H24138055   4.351   4.065   0.752 -2.1117  0.8795  0.1250
   38MOL   H24238056   4.477   4.155   0.912  0.0887 -0.0058  0.8405
   38MOL   H24338057   4.508   4.199   1.165 -1.0424  0.4277  0.0014
   38MOL   H24438058   4.303   4.036   1.408  1.4614 -1.4404 -0.2244
   38MOL   H24538059   4.365   4.361   1.340  1.2756 -0.4648 -0.4747
   38MOL   H24638060   4.518   4.504   1.466  0.0965  0.6504  1.5172
   38MOL   H24738061   4.641   4.527   1.672 -0.4487 -0.5357  1.5777
   38MOL   H24838062   4.788   4.468   1.587  0.5097  0.7807  1.0825
   38MOL   H24938063   4.680   4.159   1.665  0.0317  1.0240  1.2407
   38MOL   H25038064   4.523   4.017   1.550  0.4604  0.0950 -0.0833
   38MOL   H25138065   4.167   3.949   1.235 -0.5182  0.6746  0.5617
   38MOL   H25238066   4.138   3.915   0.997  1.6225 -2.5614  1.0709
   38MOL   H25338067   4.269   4.002   0.546  1.2226 -0.1778 -0.3382
   38MOL   H25438068   4.190   3.816   0.407 -1.6819  3.2358  0.8833
   38MOL   H25538069   3.970   3.738   0.366 -0.9919 -1.6861  0.7228
   38MOL   H25638070   3.918   3.741   0.115  1.1426 -0.2446 -1.1063
   38MOL   N25738071   4.743   4.394   1.783 -0.1724  0.2756 -0.1502
   38MOL   C25838072   4.847   4.456   1.854  0.4794 -0.3076  0.1281
   38MOL   C25938073   4.901   4.579   1.817  0.0918 -0.2769  0.0317
   38MOL   C26038074   5.016   4.639   1.874 -0.3928  0.1403 -0.7653
   38MOL   C26138075   5.071   4.579   1.984  0.4617  0.0131  0.2932
   38MOL   N26238076   5.184   4.637   2.047  0.3415 -0.1419  0.4601
   38MOL   C26338077   5.284   4.591   2.128  0.1008 -0.2063 -0.7819
   38MOL   C26438078   5.341   4.665   2.237 -0.1545  0.2922 -0.5225
   38MOL   C26538079   5.449   4.610   2.317 -0.6932 -0.4436 -0.1139
   38MOL   C26638080   5.492   4.482   2.293 -0.1995  0.4069 -0.3813
   38MOL   N26738081   5.581   4.413   2.378  0.1611 -0.6167 -0.0430
   38MOL   C26838082   5.573   4.403   2.514 -1.0988  0.1472  0.7175
   38MOL   C26938083   5.447   4.429   2.570 -0.2197  0.1325  0.2241
   38MOL   C27038084   5.429   4.418   2.705  0.5353 -0.3583 -0.8130
   38MOL   C27138085   5.539   4.393   2.794  0.3564  0.3462 -0.7144
   38MOL   N27238086   5.501   4.378   2.930  0.3668 -0.3074  0.4555
   38MOL   C27338087   5.471   4.484   3.009  0.1983  0.0336  0.5446
   38MOL   C27438088   5.509   4.469   3.147 -0.0517  0.2020  0.4630
   38MOL   C27538089   5.484   4.571   3.235  0.9770  0.2175  0.4287
   38MOL   C27638090   5.425   4.687   3.191  0.4296  0.0872 -1.1506
   38MOL   C27738091   5.385   4.798   3.295 -0.6877 -0.4966 -1.2438
   38MOL   C27838092   5.392   4.704   3.058 -0.1959 -0.5631  0.7325
   38MOL   C27938093   5.419   4.604   2.965  0.4082  0.4400  0.8186
   38MOL   C28038094   5.668   4.370   2.739 -0.2489 -0.1541  0.0116
   38MOL   C28138095   5.682   4.373   2.594  0.2287  0.1256  0.1023
   38MOL   C28238096   5.445   4.418   2.184  0.5156  0.2727 -0.3665
   38MOL   C28338097   5.340   4.462   2.105  0.5368 -0.5665 -1.5049
   38MOL   C28438098   5.009   4.459   2.034  0.7665  0.4539 -0.3777
   38MOL   C28538099   4.903   4.396   1.968 -0.5745 -0.6564  0.1409
   38MOL   H28638100   4.679   4.331   1.829 -0.0575  0.1861 -0.1100
   38MOL   H28738101   4.863   4.636   1.733  3.5930 -0.8596 -2.0252
   38MOL   H28838102   5.044   4.734   1.831 -1.3648  0.9559  0.3812
   38MOL   H28938103   5.188   4.738   2.049  0.8675 -0.1657  0.7191
   38MOL   H29038104   5.327   4.771   2.245  0.7650  0.5137 -1.7182
   38MOL   H29138105   5.495   4.682   2.383 -1.9957  1.6740 -1.4349
   38MOL   H29238106   5.629   4.337   2.332 -0.0158 -0.1440 -1.0227
   38MOL   H29338107   5.364   4.457   2.507 -0.3694 -1.6336 -0.3865
   38MOL   H29438108   5.327   4.426   2.741 -0.2346 -2.3692 -2.4150
   38MOL   H29538109   5.565   4.315   2.977  1.3824  0.3258 -0.0540
   38MOL   H29638110   5.556   4.380   3.188 -1.5897 -1.1537 -0.6634
   38MOL   H29738111   5.509   4.561   3.340 -3.0092 -0.0901  1.4513
   38MOL   H29838112   5.284   4.773   3.327 -0.6370  1.5069  0.6582
   38MOL   H29938113   5.384   4.897   3.249 -1.5741  0.5242  0.8460
   38MOL   H30038114   5.344   4.795   3.028 -1.8296 -0.7631  2.7142
   38MOL   H30138115   5.390   4.619   2.862  0.3351 -0.9617  0.6363
   38MOL   H30238116   5.749   4.343   2.805  2.9037  0.9417 -3.2205
   38MOL   H30338117   5.782   4.357   2.559 -0.4959 -1.3006 -1.3328
   38MOL   H30438118   5.485   4.322   2.156 -0.6413 -0.1626 -0.5454
   38MOL   H30538119   5.293   4.404   2.026  1.1799 -4.0110  0.5600
   38MOL   H30638120   5.054   4.413   2.121  3.6394  1.6551 -1.1549
   38MOL   H30738121   4.864   4.304   2.009  0.8893 -0.9439  0.9291
   38MOL   N30838122   5.468   4.792   3.414 -0.1971  0.2582 -0.3800
   38MOL   C30938123   5.441   4.882   3.515 -0.0397  0.1571 -0.7913
   38MOL   C31038124   5.541   4.905   3.610  0.1718  0.2987  0.1701
   38MOL   C31138125   5.521   5.000   3.720  0.1243 -0.1215  0.5385
   38MOL   C31238126   5.392   5.053   3.738  0.1934 -0.0881 -0.5206
   38MOL   N31338127   5.370   5.125   3.848  0.0740 -0.3465  0.0946
   38MOL   C31438128   5.305   5.251   3.847  0.2170 -0.3618 -1.1531
   38MOL   C31538129   5.248   5.307   3.966  0.1053  0.0308 -0.3607
   38MOL   C31638130   5.181   5.425   3.966  0.2756  0.3581 -0.0895
   38MOL   C31738131   5.192   5.515   3.855  0.2729  0.2675  0.4169
   38MOL   N31838132   5.142   5.650   3.859  0.0131  0.2690  0.8040
   38MOL   C31938133   5.070   5.713   3.959  0.0836 -0.4127 -0.8628
   38MOL   C32038134   5.100   5.847   4.001 -0.1320  0.3044  0.2064
   38MOL   C32138135   5.002   5.912   4.079  0.6674  0.2122 -0.3761
   38MOL   C32238136   4.880   5.858   4.110  0.4692 -0.2334  0.3245
   38MOL   N32338137   4.776   5.918   4.183 -0.2243  0.0705 -0.2741
   38MOL   C32438138   4.749   6.056   4.217  0.1822  0.2989  0.8417
   38MOL   C32538139   4.669   6.093   4.329 -0.1040  0.6709  0.1208
   38MOL   C32638140   4.636   6.228   4.352  0.1041  0.0870 -0.4804
   38MOL   C32738141   4.691   6.332   4.274  0.1647 -0.0111 -1.2522
   38MOL   C32838142   4.674   6.482   4.309  0.2452 -0.3117 -0.7207
   38MOL   C32938143   4.773   6.297   4.165  0.3738  0.2196  0.2490
   38MOL   C33038144   4.792   6.164   4.130 -0.5126  0.2484  0.6754
   38MOL   C33138145   4.860   5.719   4.077 -0.8006  0.4351 -0.0441
   38MOL   C33238146   4.954   5.649   3.999 -0.1914 -0.1881  1.0389
   38MOL   C33338147   5.270   5.476   3.745 -0.2134  0.0829 -0.2661
   38MOL   C33438148   5.315   5.340   3.741  0.1183  0.6108 -0.8057
   38MOL   C33538149   5.289   5.027   3.643 -1.0072  0.3323  0.5257
   38MOL   C33638150   5.313   4.948   3.528 -0.1317  0.8996 -0.2520
   38MOL   H33738151   5.563   4.803   3.382 -0.2377  2.9769  0.3134
   38MOL   H33838152   5.627   4.840   3.610  1.6234  2.1710 -0.1402
   38MOL   H33938153   5.593   5.011   3.800 -1.1550  2.8604  1.3586
   38MOL   H34038154   5.370   5.070   3.933 -2.3162 -2.9591 -1.5179
   38MOL   H34138155   5.245   5.258   4.062 -2.8654  0.5024 -0.1684
   38MOL   H34238156   5.145   5.472   4.057 -0.8209  1.3030 -0.9892
   38MOL   H34338157   5.168   5.710   3.782  1.3764 -1.8771 -0.4814
   38MOL   H34438158   5.179   5.914   3.969  0.5664 -0.5291  0.1696
   38MOL   H34538159   5.021   6.012   4.118  0.8052  1.9107 -4.5463
   38MOL   H34638160   4.692   5.865   4.201 -0.6024 -0.2571 -2.8520
   38MOL   H34738161   4.642   6.011   4.394 -1.4612  0.4617 -0.6754
   38MOL   H34838162   4.572   6.253   4.435  1.5742  0.1565  0.6475
   38MOL   H34938163   4.589   6.484   4.377 -0.1296 -1.8744 -1.1282
   38MOL   H35038164   4.650   6.525   4.212  0.8527 -2.4486 -1.8419
   38MOL   H35138165   4.816   6.373   4.102 -2.0668  1.0393 -0.4826
   38MOL   H35238166   4.853   6.140   4.044 -1.3907 -2.0010  0.6617
   38MOL   H35338167   4.767   5.668   4.098 -1.4559  0.7201 -2.1191
   38MOL   H35438168   4.920   5.550   3.971  3.3555 -0.5941 -2.1926
   38MOL   H35538169   5.276   5.547   3.664  0.5066  1.6428  1.1197
   38MOL   H35638170   5.365   5.304   3.652  3.0150 -0.6738  1.2946
   38MOL   H35738171   5.197   5.074   3.672 -0.6836  1.2579  0.0663
   38MOL   H35838172   5.237   4.949   3.452  0.9831 -0.6256 -1.4048
   38MOL   N35938173   4.795   6.545   4.349 -0.6259 -0.2663 -0.1772
   38MOL   C36038174   4.861   6.610   4.246 -0.9204 -0.4165 -0.1360
   38MOL   C36138175   4.986   6.565   4.205  0.2506 -0.0052 -0.0740
   38MOL   C36238176   5.045   6.613   4.084  0.1714 -0.2888 -0.1941
   38MOL   C36338177   4.985   6.723   4.021  0.1893 -0.1110 -0.2733
   38MOL   N36438178   5.039   6.789   3.901 -0.2452 -0.2319  0.2279
   38MOL   C36538179   5.051   6.729   3.776  0.6968  0.2230  0.1597
   38MOL   C36638180   5.052   6.813   3.664 -0.3198  0.2379  0.0558
   38MOL   C36738181   5.064   6.757   3.532  0.5536 -0.8199  0.5497
   38MOL   C36838182   5.062   6.619   3.515  0.0658 -0.4267  0.3539
   38MOL   N36938183   5.058   6.558   3.389  0.0731  0.5338  0.3998
   38MOL   C37038184   5.003   6.606   3.275 -0.7837  0.6927 -0.1755
   38MOL   C37138185   4.895   6.687   3.281  0.2932  0.4086  0.3456
   38MOL   C37238186   4.843   6.740   3.163  0.3873 -0.6315  0.1674
   38MOL   C37338187   4.906   6.710   3.039 -0.0487  0.1647 -0.5358
   38MOL   N37438188   4.848   6.758   2.920  0.9553  0.8005  0.4289
   38MOL   C37538189   4.710   6.754   2.883  0.5318  0.5217 -0.2491
   38MOL   C37638190   4.659   6.842   2.778  0.4773  0.5118  0.0184
   38MOL   C37738191   4.524   6.836   2.741  0.8989  0.2740 -0.7012
   38MOL   C37838192   4.436   6.742   2.800 -1.1043 -0.1091 -0.5478
   38MOL   C37938193   4.293   6.739   2.763  0.0968  0.1839  0.3896
   38MOL   C38038194   4.493   6.642   2.887  0.2613 -1.1988 -0.0369
   38MOL   C38138195   4.623   6.656   2.930 -0.1149  0.3711 -0.2555
   38MOL   C38238196   5.009   6.619   3.028  0.4460 -0.6092 -1.2083
   38MOL   C38338197   5.064   6.571   3.149  0.4000 -0.2362  0.1019
   38MOL   C38438198   5.076   6.540   3.629 -0.0467  0.6025  0.8887
   38MOL   C38538199   5.062   6.593   3.759  0.1987 -0.4247  1.0736
   38MOL   C38638200   4.866   6.779   4.077 -0.2413 -0.9304 -0.3349
   38MOL   C38738201   4.807   6.726   4.191 -0.0926  0.0387 -0.1729
   38MOL   H38838202   4.856   6.486   4.403 -0.0697 -0.2124 -0.7427
   38MOL   H38938203   5.033   6.478   4.250  0.9819 -0.2950 -1.3789
   38MOL   H39038204   5.137   6.566   4.049 -0.8610 -1.2677 -1.6829
   38MOL   H39138205   5.017   6.887   3.887  1.0048 -0.2186 -1.8712
   38MOL   H39238206   5.058   6.921   3.670 -0.1404  0.0721  3.6411
   38MOL   H39338207   5.056   6.826   3.449 -0.6714 -1.5571  0.0320
   38MOL   H39438208   5.082   6.460   3.381  0.2176  0.7089 -1.4326
   38MOL   H39538209   4.843   6.717   3.370 -0.1083 -1.6800  0.8398
   38MOL   H39638210   4.752   6.799   3.171  1.4438  1.1167 -0.3409
   38MOL   H39738211   4.906   6.781   2.841 -0.7111  0.2292 -1.0021
   38MOL   H39838212   4.719   6.921   2.734  0.1716  1.0013  0.4597
   38MOL   H39938213   4.491   6.907   2.666  1.5488  1.0520 -0.2498
   38MOL   H40038214   4.267   6.820   2.694  0.5694 -0.4440 -0.5303
   38MOL   H40138215   4.233   6.762   2.851  0.8710 -0.8093  1.1915
   38MOL   H40238216   4.433   6.559   2.922  0.0433 -0.9294  0.2325
   38MOL   H40338217   4.668   6.582   2.994  2.6522  2.7725  0.7003
   38MOL   H40438218   5.063   6.597   2.937  2.6970 -1.9994  0.4150
   38MOL   H40538219   5.155   6.513   3.155  0.5999  0.3605  4.0843
   38MOL   H40638220   5.096   6.435   3.614 -0.0214  0.9491 -1.6824
   38MOL   H40738221   5.069   6.518   3.836 -2.4006 -3.1080 -1.2275
   38MOL   H40838222   4.819   6.850   4.011 -1.4657 -1.9912 -0.6175
   38MOL   H40938223   4.715   6.764   4.231  0.0002  0.9549 -0.8179
   38MOL   N41038224   4.256   6.613   2.706  0.2977 -0.2568 -0.1222
   38MOL   C41138225   4.310   6.584   2.577  0.4912 -0.0860  0.1502
   38MOL   C41238226   4.286   6.671   2.467  0.9627  0.0115 -0.4651
   38MOL   C41338227   4.350   6.650   2.347  0.3363  0.5776  0.6506
   38MOL   C41438228   4.440   6.539   2.340 -0.0046  0.2702 -0.8377
   38MOL   N41538229   4.504   6.509   2.218  0.1406  0.0920 -0.2769
   38MOL   C41638230   4.463   6.564   2.095  0.5177 -0.5436 -0.3454
   38MOL   C41738231   4.353   6.511   2.025  0.8315 -0.1476 -0.2585
   38MOL   C41838232   4.305   6.581   1.906 -0.0896 -0.4618 -0.7824
   38MOL   C41938233   4.375   6.690   1.859  0.2976 -0.1251  0.4847
   38MOL   N42038234   4.336   6.768   1.745 -0.0582 -0.4854 -0.0132
   38MOL   C42138235   4.274   6.725   1.631 -0.2126 -0.4664 -0.4170
   38MOL   C42238236   4.222   6.833   1.557  0.0739  0.1067  0.5066
   38MOL   C42338237   4.176   6.805   1.425 -0.8090 -0.1060  0.3323
   38MOL   C42438238   4.163   6.670   1.377  0.3970  0.2820 -1.2493
   38MOL   N42538239   4.109   6.645   1.246  0.1778  0.1678  0.2752
   38MOL   C42638240   4.048   6.526   1.197 -0.8661  0.6516  0.1914
   38MOL   C42738241   4.049   6.498   1.055 -0.2469 -0.0553  0.3132
   38MOL   C42838242   3.968   6.388   1.010  0.1681 -0.4698  0.0805
   38MOL   C42938243   3.900   6.308   1.102  0.1612  0.4795  0.1344
   38MOL   C43038244   3.818   6.191   1.056  0.4197  0.6260 -0.4542
   38MOL   C43138245   3.898   6.339   1.235  0.1980 -0.1759 -0.0433
   38MOL   C43238246   3.969   6.452   1.285  0.0018 -0.6967  0.2117
   38MOL   C43338247   4.199   6.564   1.460 -0.6201 -0.5868 -0.8037
   38MOL   C43438248   4.256   6.595   1.591  0.1777  0.1661  0.0904
   38MOL   C43538249   4.492   6.736   1.924 -0.4638  1.1718  0.5539
   38MOL   C43638250   4.541   6.672   2.047 -0.3584  0.2475  0.4848
   38MOL   C43738251   4.456   6.446   2.444 -0.1557 -0.6113 -0.2333
   38MOL   C43838252   4.391   6.469   2.565 -0.8683 -0.3005  0.9693
   38MOL   H43938253   4.242   6.531   2.764  1.6227  0.2696  0.9760
   38MOL   H44038254   4.223   6.757   2.483 -0.4676 -1.2449  0.9311
   38MOL   H44138255   4.335   6.724   2.270 -0.0693  0.1765  0.3474
   38MOL   H44238256   4.565   6.428   2.217 -2.3843 -1.9135  1.4155
   38MOL   H44338257   4.305   6.421   2.060 -0.2060  0.0871 -1.0273
   38MOL   H44438258   4.222   6.544   1.848  0.3737 -1.2107 -0.9778
   38MOL   H44538259   4.362   6.865   1.735 -1.1962 -0.3206 -1.7355
   38MOL   H44638260   4.223   6.932   1.599 -4.2672  0.3792  0.1401
   38MOL   H44738261   4.152   6.892   1.365  0.8572  0.7071  0.8130
   38MOL   H44838262   4.087   6.724   1.186 -0.2866  0.1742  0.4558
   38MOL   H44938263   4.105   6.554   0.982  1.3567 -0.4899  1.2001
   38MOL   H45038264   3.959   6.369   0.904  1.5033 -1.6879  0.1709
   38MOL   H45138265   3.746   6.238   0.989  0.7425  0.6138 -0.8135
   38MOL   H45238266   3.762   6.149   1.140  3.1935  2.5275  2.4613
   38MOL   H45338267   3.829   6.284   1.296  1.0981 -1.1304  0.1360
   38MOL   H45438268   3.976   6.469   1.392  0.2585 -3.1553  0.6181
   38MOL   H45538269   4.192   6.460   1.433 -2.8225 -0.7274  0.2196
   38MOL   H45638270   4.297   6.513   1.648  0.2737 -1.1585 -1.8180
   38MOL   H45738271   4.538   6.827   1.890 -0.8146  1.1461  0.0110
   38MOL   H45838272   4.631   6.715   2.089  0.6327  0.7140 -1.9979
   38MOL   H45938273   4.516   6.359   2.421 -0.0830  0.0750 -2.7691
   38MOL   H46038274   4.402   6.392   2.640 -0.7546 -0.3477  0.9045
   38MOL   N46138275   3.900   6.092   0.981 -0.5454  0.2338 -0.7996
   38MOL   C46238276   3.987   6.015   1.055  0.7414 -0.0254 -0.6280
   38MOL   C46338277   4.076   5.930   0.988  0.5985 -0.0258  0.3855
   38MOL   C46438278   4.150   5.833   1.059 -0.6473  0.1086  0.7782
   38MOL   C46538279   4.133   5.815   1.191 -0.2773 -0.3847 -0.2135
   38MOL   N46638280   4.206   5.714   1.249  0.3905 -0.4486  0.2619
   38MOL   C46738281   4.164   5.593   1.307 -1.0472 -1.2437  0.6989
   38MOL   C46838282   4.253   5.486   1.336  0.1097  0.3308  0.2094
   38MOL   C46938283   4.214   5.355   1.373 -0.5838 -0.2849  0.2469
   38MOL   C47038284   4.075   5.335   1.402 -0.0246 -0.1939 -0.1104
   38MOL   N47138285   4.019   5.214   1.443 -0.2255  0.0212 -0.3072
   38MOL   C47238286   4.080   5.098   1.494 -0.0623 -0.6662 -0.2404
   38MOL   C47338287   4.047   4.973   1.445  0.4197  0.2399  0.2867
   38MOL   C47438288   4.115   4.851   1.478  0.5575 -0.4739 -0.2120
   38MOL   C47538289   4.215   4.867   1.575  0.0298 -0.0888  0.2521
   38MOL   N47638290   4.264   4.744   1.613  0.3573  0.0374 -0.0015
   38MOL   C47738291   4.327   4.716   1.736  0.3509 -0.1219  0.2520
   38MOL   C47838292   4.270   4.624   1.824 -0.0492  0.1934 -0.0818
   38MOL   C47938293   4.318   4.602   1.952 -0.7255  0.1448 -0.6768
   38MOL   C48038294   4.444   4.660   1.981  0.6076  0.1412  0.3690
   38MOL   C48138295   4.498   4.650   2.120 -0.2256 -0.0020 -0.0744
   38MOL   C48238296   4.516   4.737   1.886  0.0821  0.2895  1.0769
   38MOL   C48338297   4.456   4.767   1.761 -0.0643 -0.1447  0.3507
   38MOL   C48438298   4.242   4.990   1.643  0.0605  0.1750  0.1258
   38MOL   C48538299   4.176   5.107   1.592 -0.1818  0.0049  0.6726
   38MOL   C48638300   3.984   5.441   1.374 -0.2179 -0.1635 -0.5989
   38MOL   C48738301   4.023   5.569   1.332 -0.1489 -0.1729 -0.5073
   38MOL   C48838302   4.040   5.891   1.260  0.8448  0.3506  0.6590
   38MOL   C48938303   3.972   5.991   1.189  0.5296  0.3185  0.0651
   38MOL   H49038304   3.912   6.116   0.884  2.9244 -0.5865 -0.6242
   38MOL   H49138305   4.085   5.943   0.881 -0.9583 -1.4773  0.0531
   38MOL   H49238306   4.215   5.765   1.006 -1.6520 -0.7176  0.5816
   38MOL   H49338307   4.305   5.721   1.230  0.1781 -2.5612 -1.7632
   38MOL   H49438308   4.356   5.511   1.315  0.3486 -0.8365 -0.0445
   38MOL   H49538309   4.286   5.275   1.381 -0.2188 -0.1849 -1.7671
   38MOL   H49638310   3.920   5.221   1.458  0.2652  4.3768  1.6604
   38MOL   H49738311   3.972   4.958   1.369 -1.5936  1.9647  1.8600
   38MOL   H49838312   4.089   4.757   1.432  1.2153 -0.5763 -0.3805
   38MOL   H49938313   4.218   4.665   1.570 -1.7843  2.7605 -2.9359
   38MOL   H50038314   4.179   4.574   1.796 -1.4334  1.9301  1.2513
   38MOL   H50138315   4.269   4.530   2.016 -1.7832  0.1683 -1.4532
   38MOL   H50238316   4.464   4.568   2.183 -3.9114  0.8967 -0.7679
   38MOL   H50338317   4.472   4.743   2.171  0.0024 -0.3527  0.6855
   38MOL   H50438318   4.613   4.779   1.907  0.1063 -0.7051  2.9939
   38MOL   H50538319   4.507   4.828   1.687  0.4834 -0.9342  0.0805
   38MOL   H50638320   4.311   4.994   1.726 -1.4980  0.7981  1.4474
   38MOL   H50738321   4.203   5.208   1.617 -1.0401  0.1358  1.0972
   38MOL   H50838322   3.881   5.415   1.393 -0.6843  1.7061 -0.4563
   38MOL   H50938323   3.954   5.651   1.319 -1.3518 -0.9956  0.5745
   38MOL   H51038324   4.019   5.872   1.364 -1.7526  2.3051  0.5416
   38MOL   H51138325   3.908   6.048   1.255  0.3682  0.9745 -0.6569
   38MOL   N51238326   4.643   4.662   2.129 -0.1167  0.7892  0.4949
   38MOL   C51338327   4.706   4.713   2.243 -0.0932 -0.5552 -0.1189
   38MOL   C51438328   4.641   4.737   2.367  0.1578 -0.0671  0.3402
   38MOL   C51538329   4.719   4.781   2.476  0.4887  0.0346 -0.5662
   38MOL   C51638330   4.857   4.781   2.475 -0.6826 -0.7646 -0.2903
   38MOL   N51738331   4.928   4.814   2.590  0.0562  0.1672  0.5005
   38MOL   C51838332   4.986   4.722   2.679 -0.3414  0.5574  0.2256
   38MOL   C51938333   5.021   4.756   2.810 -0.5006  0.3584  0.8102
   38MOL   C52038334   5.084   4.667   2.900 -0.5564  0.1529  0.3213
   38MOL   C52138335   5.099   4.536   2.860  0.3358 -0.1418 -0.4690
   38MOL   N52238336   5.152   4.439   2.946 -0.3287  0.0690  0.0959
   38MOL   C52338337   5.111   4.422   3.076  0.1083  0.4120 -0.1061
   38MOL   C52438338   4.987   4.472   3.121  0.3165  0.1646 -0.5176
   38MOL   C52538339   4.940   4.451   3.251  0.3291 -0.1875 -0.0586
   38MOL   C52638340   5.026   4.389   3.340 -0.5554  0.5316  0.2603
   38MOL   N52738341   4.987   4.379   3.474  0.3386 -0.4323  0.5862
   38MOL   C52838342   4.976   4.255   3.538  0.5152  0.2634 -0.7036
   38MOL   C52938343   4.996   4.244   3.678 -0.0317  0.1812  0.6787
   38MOL   C53038344   4.993   4.110   3.736 -0.1756 -0.2782  0.0333
   38MOL   C53138345   4.957   3.995   3.660 -0.5222  0.0802  0.6423
   38MOL   C53238346   4.930   3.862   3.733 -0.5443 -0.2551 -0.0926
   38MOL   C53338347   4.937   4.008   3.526 -0.3204 -0.0270 -0.1626
   38MOL   C53438348   4.947   4.137   3.467 -0.0591 -0.2800 -0.1003
   38MOL   C53538349   5.152   4.341   3.298 -0.3547  0.4992 -0.5166
   38MOL   C53638350   5.194   4.351   3.166  0.1805  0.4382  0.4098
   38MOL   C53738351   5.069   4.497   2.731  0.2635  0.1913  0.0023
   38MOL   C53838352   5.011   4.586   2.638 -0.5072 -0.2410 -0.1783
   38MOL   C53938353   4.925   4.768   2.353  0.9978 -0.2395  0.7032
   38MOL   C54038354   4.851   4.733   2.244  0.9231 -0.4556  0.3619
   38MOL   H54138355   4.682   4.607   2.054 -0.4869  0.8436  0.2592
   38MOL   H54238356   4.534   4.728   2.378 -0.5397  5.6665 -0.0523
   38MOL   H54338357   4.670   4.786   2.572 -0.6721 -0.7048 -1.0984
   38MOL   H54438358   4.888   4.892   2.640 -0.5228 -0.1437  0.5257
   38MOL   H54538359   5.002   4.858   2.839 -0.7976  0.4499  0.2968
   38MOL   H54638360   5.094   4.698   3.003  2.0218 -0.3194  0.2710
   38MOL   H54738361   5.251   4.428   2.929 -0.6449 -0.4190 -1.5359
   38MOL   H54838362   4.924   4.525   3.051 -1.1132  0.5732  1.0330
   38MOL   H54938363   4.841   4.484   3.280  0.4159  0.0029  0.0169
   38MOL   H55038364   5.022   4.452   3.534 -0.9738  0.4329  0.3139
   38MOL   H55138365   5.023   4.336   3.728 -0.6465 -0.8026  2.8483
   38MOL   H55238366   5.012   4.109   3.842  2.1076 -0.9361 -0.3519
   38MOL   H55338367   4.829   3.827   3.714  0.3569 -2.8142 -0.2895
   38MOL   H55438368   4.933   3.865   3.842  0.0574 -1.5708 -0.0664
   38MOL   H55538369   4.909   3.927   3.460 -2.9501  0.2217  0.5732
   38MOL   H55638370   4.941   4.141   3.359 -0.2600 -1.3332 -0.1282
   38MOL   H55738371   5.221   4.295   3.368 -1.3256  1.9880  1.4649
   38MOL   H55838372   5.289   4.309   3.137 -1.5446 -3.3821  0.0263
   38MOL   H55938373   5.076   4.395   2.697  1.1229  0.5792 -1.0414
   38MOL   H56038374   4.983   4.551   2.539 -2.4122  0.4266  0.1081
   38MOL   H56138375   5.030   4.794   2.352  1.1485 -0.7862 -3.4191
   38MOL   H56238376   4.900   4.717   2.149  0.2662  1.9702 -0.4340
   38MOL   N56338377   5.014   3.753   3.696  0.0529 -0.2499  0.5767
   38MOL   C56438378   4.981   3.618   3.716 -0.3693 -0.5911  0.6149
   38MOL   C56538379   4.850   3.569   3.745 -0.2248  0.3179 -0.2197
   38MOL   C56638380   4.814   3.434   3.747 -0.2053  0.1251 -0.3188
   38MOL   C56738381   4.918   3.343   3.752  0.0324 -0.8020 -0.1116
   38MOL   N56838382   4.884   3.213   3.770 -0.4806  0.1708  0.2852
   38MOL   C56938383   4.958   3.096   3.744 -0.2702 -0.8806 -0.2070
   38MOL   C57038384   5.046   3.086   3.633 -0.2313 -0.0568 -0.1375
   38MOL   C57138385   5.111   2.965   3.609 -0.2981 -0.3266 -0.5539
   38MOL   C57238386   5.092   2.853   3.689 -0.4961  0.6870 -0.1211
   38MOL   N57338387   5.148   2.729   3.662  0.0757  0.4894 -0.1150
   38MOL   C57438388   5.134   2.613   3.736 -0.1443 -0.5915  0.5656
   38MOL   C57538389   5.035   2.515   3.713 -0.2033  0.1222  0.1888
   38MOL   C57638390   5.033   2.399   3.786 -0.5874 -0.3867 -0.1596
   38MOL   C57738391   5.131   2.371   3.881  0.2796 -0.0045 -0.4058
   38MOL   N57838392   5.130   2.242   3.937  0.9115  0.4007  0.8611
   38MOL   C57938393   5.214   2.196   4.037 -0.0115 -0.0897  0.0381
   38MOL   C58038394   5.234   2.258   4.165  0.9654 -0.2214  0.8516
   38MOL   C58138395   5.322   2.206   4.260 -0.5632  0.2969 -0.4692
   38MOL   C58238396   5.395   2.087   4.230  0.1390  0.4052  0.1967
   38MOL   C58338397   5.487   2.020   4.336  0.0976 -0.2671  0.7502
   38MOL   C58438398   5.373   2.019   4.107  0.6160  0.2412  0.4632
   38MOL   C58538399   5.284   2.076   4.013 -0.6590 -0.1765  0.2637
   38MOL   C58638400   5.233   2.467   3.905  0.1488  0.4259  0.6960
   38MOL   C58738401   5.230   2.589   3.834  0.1506  0.3749 -0.1104
   38MOL   C58838402   5.005   2.869   3.799 -0.1747 -0.2366  0.2508
   38MOL   C58938403   4.946   2.988   3.833  0.0023 -0.4332  0.4552
   38MOL   C59038404   5.053   3.386   3.735 -0.2645 -0.3106 -0.0677
   38MOL   C59138405   5.080   3.521   3.703 -0.1782  1.2036 -0.4841
   38MOL   H59238406   5.092   3.761   3.632 -0.5112 -2.2128 -0.4119
   38MOL   H59338407   4.768   3.639   3.756 -0.8528 -0.5298  0.5852
   38MOL   H59438408   4.709   3.409   3.757 -0.2370  0.5055  0.3841
   38MOL   H59538409   4.789   3.191   3.794 -0.4899  0.7006  0.7343
   38MOL   H59638410   5.065   3.170   3.568 -0.2464  0.1117  0.0746
   38MOL   H59738411   5.185   2.963   3.531  2.1957 -0.0764  1.7367
   38MOL   H59838412   5.231   2.722   3.604 -1.4464 -0.2052 -2.2612
   38MOL   H59938413   4.961   2.530   3.636 -1.5320 -1.5622  1.0994
   38MOL   H60038414   4.955   2.327   3.765  0.6746 -1.8488  0.0591
   38MOL   H60138415   5.070   2.175   3.891  1.8960 -0.7201  1.1685
   38MOL   H60238416   5.176   2.343   4.197  0.3638  0.2525 -1.4085
   38MOL   H60338417   5.339   2.262   4.350  1.0611 -1.9846  0.7071
   38MOL   H60438418   5.499   1.914   4.316 -1.9050 -0.0811 -1.6973
   38MOL   H60538419   5.442   2.025   4.435  0.1741  2.5283  0.6893
   38MOL   H60638420   5.424   1.924   4.094  1.2075  0.5706  0.3349
   38MOL   H60738421   5.250   2.022   3.925  0.1706  0.3257 -0.3744
   38MOL   H60838422   5.317   2.447   3.970  1.4052  2.3347 -0.2766
   38MOL   H60938423   5.303   2.668   3.850  0.1386 -0.0945  2.4505
   38MOL   H61038424   4.975   2.791   3.868 -3.2126 -1.8797 -2.7936
   38MOL   H61138425   4.888   2.998   3.924  0.2677 -2.1203  0.8202
   38MOL   H61238426   5.144   3.328   3.748  0.4219  0.6105 -0.6847
   38MOL   H61338427   5.186   3.540   3.696  0.2130 -0.2945  1.0693
   38MOL   N61438428   5.609   2.098   4.356 -0.3984 -0.3832 -0.1676
   38MOL   C61538429   5.707   2.054   4.445 -0.1943  0.0951 -0.1936
   38MOL   C61638430   5.689   1.945   4.534  0.2351 -0.2911 -0.0238
   38MOL   C61738431   5.787   1.925   4.631 -0.0641 -0.1814  0.0311
   38MOL   C61838432   5.898   2.005   4.632 -0.1527  0.4447  0.0412
   38MOL   N61938433   5.998   1.974   4.732 -0.1465  0.3954 -0.1150
   38MOL   C62038434   5.992   1.990   4.871 -0.5011  0.3878 -0.5433
   38MOL   C62138435   6.110   1.974   4.944  0.0297  0.0359  0.7105
   38MOL   C62238436   6.109   2.013   5.078  0.1353 -1.1257 -0.5046
   38MOL   C62338437   5.992   2.061   5.142  1.0284  0.1315 -0.6947
   38MOL   N62438438   5.995   2.104   5.274  0.2359 -0.0235 -0.0511
   38MOL   C62538439   5.935   2.217   5.317 -0.0811 -0.6588  0.4309
   38MOL   C62638440   5.932   2.331   5.235 -0.2050  0.2150  0.3598
   38MOL   C62738441   5.865   2.447   5.273  0.0927  0.0458 -0.2119
   38MOL   C62838442   5.800   2.455   5.402 -0.1911 -0.1031  0.4948
   38MOL   N62938443   5.742   2.576   5.452  0.1246  0.2138  0.4799
   38MOL   C63038444   5.685   2.679   5.370  0.3512  0.3647  0.4749
   38MOL   C63138445   5.686   2.813   5.412 -0.1799 -0.1824  0.5302
   38MOL   C63238446   5.615   2.914   5.339  0.4380 -0.0327  0.1060
   38MOL   C63338447   5.540   2.882   5.223 -0.2686  0.4209 -0.0828
   38MOL   C63438448   5.465   2.980   5.145  0.2042  0.0264  0.5324
   38MOL   C63538449   5.544   2.751   5.181  0.1044 -0.1793 -0.3963
   38MOL   C63638450   5.618   2.653   5.247  0.5873  0.0124 -0.4922
   38MOL   C63738451   5.808   2.339   5.489  0.2825 -0.1196  0.0965
   38MOL   C63838452   5.879   2.225   5.446 -0.1831 -0.3237  0.6844
   38MOL   C63938453   5.875   2.069   5.068  0.3018 -0.3838  0.1564
   38MOL   C64038454   5.873   2.035   4.932 -0.4705  0.2196  0.0928
   38MOL   C64138455   5.918   2.109   4.541 -0.4729 -0.0081  0.8657
   38MOL   C64238456   5.826   2.127   4.441  0.1536  0.4991 -0.2801
   38MOL   H64338457   5.607   2.192   4.321  0.2202 -0.7322 -1.1510
   38MOL   H64438458   5.600   1.883   4.533 -0.3726  0.5811 -0.3827
   38MOL   H64538459   5.784   1.842   4.699 -1.0736 -0.3955 -0.2616
   38MOL   H64638460   6.091   1.947   4.704  0.0417  0.9115 -0.0097
   38MOL   H64738461   6.203   1.945   4.896 -1.0016  0.0024 -1.3265
   38MOL   H64838462   6.194   1.992   5.142 -1.0562  0.2287  1.5654
   38MOL   H64938463   6.048   2.043   5.334 -0.4792  1.6469  2.3326
   38MOL   H65038464   5.978   2.330   5.137 -1.2321 -1.3712 -0.1194
   38MOL   H65138465   5.871   2.536   5.212 -0.2420  1.3948  1.6676
   38MOL   H65238466   5.733   2.579   5.552 -4.8962  0.0135  0.1287
   38MOL   H65338467   5.744   2.829   5.502 -0.6383 -1.0504  0.9816
   38MOL   H65438468   5.614   3.020   5.356 -0.3947  0.3937 -2.3680
   38MOL   H65538469   5.507   2.987   5.045 -1.5038 -1.7952 -0.3530
   38MOL   H65638470   5.475   3.078   5.191  3.1133  0.1929 -0.3956
   38MOL   H65738471   5.486   2.723   5.094 -0.5671  1.4495 -0.4912
   38MOL   H65838472   5.606   2.559   5.196 -1.3607  0.2640 -0.5353
   38MOL   H65938473   5.769   2.349   5.590  4.8668 -0.4736  2.0500
   38MOL   H66038474   5.874   2.142   5.515 -0.2460  0.9419  2.2522
   38MOL   H66138475   5.783   2.113   5.103  1.3669  0.5546  1.8295
   38MOL   H66238476   5.779   2.041   4.878  0.4614 -1.8262 -1.8350
   38MOL   H66338477   6.005   2.174   4.537 -0.9073  0.5148 -0.2797
   38MOL   H66438478   5.846   2.214   4.380 -1.9078  1.3629  0.2509
   38MOL   N66538479   5.329   2.942   5.134 -0.5011  0.3601 -0.1173
   38MOL   C66638480   5.239   3.038   5.090 -0.7072  0.7912 -0.0374
   38MOL   C66738481   5.272   3.109   4.971 -0.6906  1.0292  0.1845
   38MOL   C66838482   5.172   3.188   4.917  0.1244  0.2731  0.6741
   38MOL   C66938483   5.044   3.208   4.978  0.1599 -0.6731  0.2122
   38MOL   N67038484   4.946   3.290   4.920  0.5388 -0.1262  0.3038
   38MOL   C67138485   4.958   3.410   4.857  0.3953  0.0500  0.2816
   38MOL   C67238486   4.849   3.467   4.780 -0.2106 -0.3128  0.2849
   38MOL   C67338487   4.854   3.598   4.737 -0.3650  0.0527 -0.7635
   38MOL   C67438488   4.972   3.673   4.756  0.1119  0.3179  0.2427
   38MOL   N67538489   4.976   3.803   4.710 -0.2352 -0.1809 -0.1622
   38MOL   C67638490   4.875   3.894   4.676 -0.6258  0.3759 -0.1435
   38MOL   C67738491   4.879   3.974   4.560  1.1084 -0.1006  0.3330
   38MOL   C67838492   4.782   4.079   4.534 -0.7069  0.0066  0.0191
   38MOL   C67938493   4.687   4.096   4.636  0.3701 -0.5068 -0.3788
   38MOL   N68038494   4.590   4.195   4.623  0.3899  0.5775 -0.1751
   38MOL   C68138495   4.568   4.287   4.515  0.0068 -1.1812 -0.5285
   38MOL   C68238496   4.434   4.308   4.471 -0.1142 -0.2865 -0.0836
   38MOL   C68338497   4.413   4.383   4.354  0.6835 -0.0768 -0.3639
   38MOL   C68438498   4.515   4.453   4.284 -0.4436 -0.3302  0.5426
   38MOL   C68538499   4.486   4.500   4.147  0.4264 -0.0474 -0.2280
   38MOL   C68638500   4.645   4.438   4.335  0.2578  0.1113  0.1689
   38MOL   C68738501   4.672   4.350   4.445  0.0695  0.2554 -0.1072
   38MOL   C68838502   4.671   4.008   4.743 -0.6507 -0.2042  0.5653
   38MOL   C68938503   4.764   3.904   4.763 -0.0371  0.0383 -1.1661
   38MOL   C69038504   5.082   3.615   4.822  0.1057  0.6914  0.8692
   38MOL   C69138505   5.071   3.485   4.879 -0.5582 -0.2057  0.7997
   38MOL   C69238506   5.025   3.147   5.101 -0.2050  0.0877 -0.2061
   38MOL   C69338507   5.123   3.062   5.160  0.1642  0.7754 -0.0678
   38MOL   H69438508   5.302   2.875   5.204  0.0060 -0.7146 -0.9348
   38MOL   H69538509   5.360   3.090   4.912 -0.2066  0.3857  1.0947
   38MOL   H69638510   5.189   3.239   4.823  1.0066  0.8757  1.1514
   38MOL   H69738511   4.851   3.257   4.916  0.2705  0.8213 -2.3557
   38MOL   H69838512   4.760   3.409   4.763  0.9381 -2.1275  0.2965
   38MOL   H69938513   4.767   3.642   4.690  0.0963  0.5313 -1.1786
   38MOL   H70038514   5.070   3.836   4.693 -0.2176  0.3724  1.0173
   38MOL   H70138515   4.964   3.967   4.494  0.6222  1.5428 -0.5114
   38MOL   H70238516   4.783   4.131   4.439  0.6335  0.2635  0.1580
   38MOL   H70338517   4.512   4.195   4.687  0.9520 -2.8476  0.6060
   38MOL   H70438518   4.347   4.263   4.516  1.2353 -0.7001  2.1536
   38MOL   H70538519   4.316   4.397   4.308  0.4241 -1.2123 -0.1825
   38MOL   H70638520   4.448   4.408   4.101 -1.0487  1.5847 -2.4146
   38MOL   H70738521   4.571   4.521   4.083 -0.5070 -0.2557 -1.5564
   38MOL   H70838522   4.717   4.483   4.269 -1.8678  2.5615 -0.5758
   38MOL   H70938523   4.775   4.337   4.476  0.9415  1.7686 -2.2684
   38MOL   H71038524   4.589   4.015   4.813 -0.5318 -2.9945  1.0602
   38MOL   H71138525   4.754   3.849   4.856 -3.2664  1.6262 -0.4960
   38MOL   H71238526   5.173   3.671   4.838 -0.9256  2.3390  1.1343
   38MOL   H71338527   5.154   3.446   4.935 -0.2240  2.2180  2.0629
   38MOL   H71438528   4.927   3.151   5.147 -0.3712 -0.4156 -0.5056
   38MOL   H71538529   5.103   2.995   5.242  0.2670  1.5473  0.5937
   38MOL   N71638530   4.388   4.605   4.144  0.3858  0.0457  0.6229
   38MOL   C71738531   4.311   4.648   4.030 -0.1414  0.7452 -0.0618
   38MOL   C71838532   4.280   4.788   4.030  0.3019  0.2589  0.2689
   38MOL   C71938533   4.214   4.840   3.923 -0.5528  0.0012 -0.4773
   38MOL   C72038534   4.172   4.760   3.818  0.6584  0.2846  0.3787
   38MOL   N72138535   4.121   4.813   3.702 -0.1253  0.0367 -0.6171
   38MOL   C72238536   4.058   4.936   3.698 -0.6168 -0.4953  0.6103
   38MOL   C72338537   3.953   4.967   3.795 -0.1867  0.1122 -0.3506
   38MOL   C72438538   3.893   5.091   3.784 -0.6128 -0.0897 -0.0382
   38MOL   C72538539   3.921   5.185   3.679 -0.6975  0.1488  0.1687
   38MOL   N72638540   3.848   5.304   3.678  0.2439  0.4052 -0.1916
   38MOL   C72738541   3.901   5.431   3.640 -0.2385  0.4319  0.7596
   38MOL   C72838542   3.933   5.466   3.504  0.0562 -0.2045  0.3398
   38MOL   C72938543   3.984   5.595   3.478 -0.4961 -0.5096  0.3003
   38MOL   C73038544   3.991   5.696   3.578 -0.1722  0.7861 -0.1982
   38MOL   N73138545   4.036   5.821   3.541 -0.3687 -0.3564  0.0927
   38MOL   C73238546   4.057   5.933   3.622 -0.5208 -0.7224 -0.7430
   38MOL   C73338547   4.021   6.055   3.566  0.0748  0.3702  0.1329
   38MOL   C73438548   4.036   6.172   3.637 -0.2013 -0.1387  0.3528
   38MOL   C73538549   4.096   6.173   3.767  0.8087 -0.0906 -0.4625
   38MOL   C73638550   4.123   6.305   3.836  1.2250  0.3058 -0.2680
   38MOL   C73738551   4.118   6.051   3.830 -0.7013  0.1915 -0.0936
   38MOL   C73838552   4.103   5.930   3.758  0.0852 -0.0299  0.2156
   38MOL   C73938553   3.946   5.663   3.712 -0.2575 -0.0753  0.6336
   38MOL   C74038554   3.907   5.532   3.744  0.3504  0.7946  0.2641
   38MOL   C74138555   4.019   5.146   3.581 -0.4954  0.1893  0.2597
   38MOL   C74238556   4.091   5.027   3.590  0.1277  0.2722 -0.0346
   38MOL   C74338557   4.204   4.624   3.812  0.0116  0.5245  0.0797
   38MOL   C74438558   4.274   4.562   3.921  0.1411  0.1264  0.1796
   38MOL   H74538559   4.393   4.673   4.219  0.4524 -0.9578  1.5454
   38MOL   H74638560   4.298   4.854   4.113  1.0551  0.9042 -0.3987
   38MOL   H74738561   4.198   4.946   3.930 -0.4576 -0.1504  2.8032
   38MOL   H74838562   4.171   4.785   3.619 -0.4388 -0.2825 -0.7027
   38MOL   H74938563   3.928   4.908   3.882 -1.2069  0.4521 -0.3989
   38MOL   H75038564   3.838   5.122   3.871  1.3133  0.3526  1.0544
   38MOL   H75138565   3.808   5.314   3.770  0.1103  1.3081 -0.3438
   38MOL   H75238566   3.904   5.395   3.429  0.0157 -0.1424  0.2970
   38MOL   H75338567   3.991   5.616   3.372 -0.0543 -1.7746  0.0710
   38MOL   H75438568   4.024   5.839   3.442  0.9611  0.9700  0.1553
   38MOL   H75538569   3.977   6.054   3.468 -0.4778 -0.7144  0.3799
   38MOL   H75638570   4.006   6.262   3.586  0.6025 -0.4590 -0.7138
   38MOL   H75738571   4.083   6.393   3.784  2.2944  1.0278  0.1020
   38MOL   H75838572   4.226   6.340   3.839  0.6759  2.0074 -0.7432
   38MOL   H75938573   4.145   6.035   3.933  1.3956 -2.8044 -1.0256
   38MOL   H76038574   4.129   5.843   3.816  1.3784 -0.3984 -0.8850
   38MOL   H76138575   3.960   5.731   3.794  1.8761  0.2525  0.0214
   38MOL   H76238576   3.890   5.508   3.848 -0.2558 -1.5877 -0.3397
   38MOL   H76338577   4.049   5.218   3.507  1.3311 -2.0377 -1.2087
   38MOL   H76438578   4.169   5.001   3.519 -0.1660 -2.8011  0.6866
   38MOL   H76538579   4.174   4.577   3.719  2.0075  1.5746 -1.1214
   38MOL   H76638580   4.306   4.459   3.922 -2.2677 -0.6646  0.6506
   38MOL   N76738581   4.057   6.322   3.962  0.0827 -0.4011 -0.6102
   38MOL   C76838582   4.105   6.269   4.080  0.0961  0.3603 -0.0358
   38MOL   C76938583   4.025   6.254   4.192 -0.1242 -0.2934  0.3190
   38MOL   C77038584   4.068   6.200   4.315  0.1612 -0.0086  0.2404
   38MOL   C77138585   4.202   6.167   4.328 -0.4420 -0.0072 -0.1348
   38MOL   N77238586   4.245   6.104   4.446 -0.0417 -0.3270 -0.3272
   38MOL   C77338587   4.335   6.000   4.463  0.1886  0.6794  0.5164
   38MOL   C77438588   4.410   5.991   4.576 -0.0562  0.6843 -0.5836
   38MOL   C77538589   4.491   5.880   4.593  0.3358 -0.1576 -0.0628
   38MOL   C77638590   4.500   5.781   4.493 -1.0708 -0.8338 -0.1102
   38MOL   N77738591   4.583   5.670   4.514 -0.0046  0.6351 -0.0094
   38MOL   C77838592   4.614   5.560   4.431 -0.3070  0.2909  0.7681
   38MOL   C77938593   4.535   5.441   4.416  0.2829 -0.3388  0.5551
   38MOL   C78038594   4.575   5.339   4.325  0.2357  0.3033  0.4679
   38MOL   C78138595   4.708   5.334   4.277 -0.6027  0.7625 -0.2545
   38MOL   N78238596   4.756   5.223   4.206 -0.2849  0.0654 -0.2197
   38MOL   C78338597   4.704   5.177   4.086 -0.5583 -0.0819  0.5768
   38MOL   C78438598   4.769   5.073   4.018  0.5441  0.2145 -0.1863
   38MOL   C78538599   4.721   5.021   3.897  0.2393  0.4610 -0.1594
   38MOL   C78638600   4.608   5.083   3.841 -0.0640 -0.0773  1.0331
   38MOL   C78738601   4.557   5.036   3.705  0.4108 -0.8083  0.8202
   38MOL   C78838602   4.544   5.192   3.903  0.4278  0.3521  0.3807
   38MOL   C78938603   4.583   5.231   4.034 -0.1225 -0.0902 -0.1764
   38MOL   C79038604   4.790   5.444   4.301  0.0814 -0.4494 -0.0764
   38MOL   C79138605   4.741   5.559   4.368  0.1146 -0.0614 -0.1540
   38MOL   C79238606   4.413   5.780   4.385  0.9044 -0.1741  0.9688
   38MOL   C79338607   4.335   5.893   4.370  0.6610 -0.6710 -0.2022
   38MOL   C79438608   4.288   6.183   4.222 -0.9673  0.1030 -0.0481
   38MOL   C79538609   4.245   6.243   4.096  0.4505  0.5464 -0.3145
   38MOL   H79638610   3.965   6.362   3.954  0.3709  0.4967  0.4212
   38MOL   H79738611   3.921   6.279   4.180 -0.8048 -1.6394  3.0239
   38MOL   H79838612   4.013   6.204   4.407 -0.1752 -0.8230  0.0789
   38MOL   H79938613   4.178   6.112   4.521  3.6317  2.0738  2.9397
   38MOL   H80038614   4.397   6.071   4.647 -0.3933  0.8883 -0.8760
   38MOL   H80138615   4.546   5.875   4.686 -0.0661 -1.3447  0.1070
   38MOL   H80238616   4.644   5.670   4.595  1.9111  0.1604 -1.4071
   38MOL   H80338617   4.439   5.440   4.466  0.6166  0.3396  1.2280
   38MOL   H80438618   4.508   5.254   4.319  2.5593 -1.5718  0.5817
   38MOL   H80538619   4.847   5.183   4.221 -0.3422 -1.1869 -2.8527
   38MOL   H80638620   4.851   5.017   4.062  0.8331  1.8722  1.4184
   38MOL   H80738621   4.773   4.940   3.849  1.3524  0.4341  1.0455
   38MOL   H80838622   4.540   5.122   3.640 -1.0185 -0.6895  1.3336
   38MOL   H80938623   4.454   5.003   3.723 -0.4070  0.9752 -0.4238
   38MOL   H81038624   4.456   5.236   3.859  0.0110 -0.1537  0.7021
   38MOL   H81138625   4.517   5.292   4.094  0.9174  1.8870 -0.9989
   38MOL   H81238626   4.884   5.454   4.247  1.4473  0.5880  2.4284
   38MOL   H81338627   4.810   5.641   4.367 -0.2521  0.2556  0.3955
   38MOL   H81438628   4.405   5.702   4.311 -0.2637  0.1337  0.7535
   38MOL   H81538629   4.266   5.906   4.287  0.8493 -1.7079 -0.5331
   38MOL   H81638630   4.389   6.150   4.242 -1.4575 -0.6733  1.1901
   38MOL   H81738631   4.313   6.260   4.014  1.4917  0.7874  0.5852
   38MOL   N81838632   4.648   4.942   3.636 -0.0749 -0.9705 -0.2280
   38MOL   C81938633   4.644   4.801   3.651  0.3013 -0.3462  0.1712
   38MOL   C82038634   4.717   4.728   3.553  0.4604 -0.4132 -0.5088
   38MOL   C82138635   4.726   4.587   3.566  0.1074 -0.2424 -0.6394
   38MOL   C82238636   4.661   4.518   3.668 -0.1154  0.1119 -0.3893
   38MOL   N82338637   4.685   4.383   3.666  0.7732  0.2819  0.2967
   38MOL   C82438638   4.585   4.285   3.706  0.0940  0.6066  0.3219
   38MOL   C82538639   4.445   4.307   3.722  0.1802 -0.4356  0.3546
   38MOL   C82638640   4.355   4.202   3.743  0.3576  0.1990 -0.7955
   38MOL   C82738641   4.398   4.074   3.770 -0.2260  0.6576  0.3695
   38MOL   N82838642   4.315   3.973   3.818 -0.1691 -0.1768  0.2614
   38MOL   C82938643   4.184   3.942   3.773  0.3434 -0.2329  0.4911
   38MOL   C83038644   4.084   3.908   3.867  0.0115  0.7925  0.1641
   38MOL   C83138645   3.954   3.877   3.822 -0.1744 -0.2522 -0.1291
   38MOL   C83238646   3.924   3.894   3.690  0.4447 -0.2331  0.4425
   38MOL   N83338647   3.792   3.872   3.639 -0.0851 -0.0147  0.0873
   38MOL   C83438648   3.679   3.872   3.721  0.3180 -0.6719 -0.0919
   38MOL   C83538649   3.638   3.761   3.790 -0.3153  0.3843 -0.1929
   38MOL   C83638650   3.520   3.750   3.867 -0.8914  0.7731 -0.7119
   38MOL   C83738651   3.425   3.848   3.865 -0.3023 -0.3443  0.1856
   38MOL   C83838652   3.296   3.831   3.939  0.1990  0.4464  0.1029
   38MOL   C83938653   3.458   3.967   3.794  0.1313  0.1444  0.6633
   38MOL   C84038654   3.582   3.976   3.723  0.0773 -1.1929 -0.0438
   38MOL   C84138655   4.026   3.911   3.594 -0.1709 -0.0641  0.8266
   38MOL   C84238656   4.159   3.933   3.634  0.4028 -0.1112 -0.8372
   38MOL   C84338657   4.536   4.046   3.750  0.2888  0.4129  0.6651
   38MOL   C84438658   4.622   4.148   3.716  0.3086 -0.0677  0.3644
   38MOL   C84538659   4.590   4.594   3.760  0.1768  0.5128  1.1173
   38MOL   C84638660   4.580   4.731   3.752  0.1149  0.1666  0.1013
   38MOL   H84738661   4.688   4.970   3.547 -2.0374  1.9298 -0.2652
   38MOL   H84838662   4.774   4.783   3.481  0.7557  0.8129  0.6424
   38MOL   H84938663   4.793   4.542   3.495  0.1156 -0.1322 -0.7026
   38MOL   H85038664   4.761   4.347   3.610 -0.6986  0.0665 -1.6207
   38MOL   H85138665   4.405   4.404   3.695 -0.7837 -0.6488  1.0254
   38MOL   H85238666   4.249   4.215   3.754  0.3056 -1.3318  0.6769
   38MOL   H85338667   4.354   3.929   3.900  1.2642 -1.8708 -1.3057
   38MOL   H85438668   4.117   3.918   3.970  0.6083  1.1401 -0.0607
   38MOL   H85538669   3.879   3.858   3.897  0.9079  0.4322  1.1511
   38MOL   H85638670   3.776   3.849   3.542 -0.1361  2.9895 -0.6635
   38MOL   H85738671   3.698   3.673   3.772 -0.1935  0.5871 -0.8018
   38MOL   H85838672   3.499   3.661   3.923  2.0802  1.5190  1.7302
   38MOL   H85938673   3.305   3.780   4.035  0.4884 -0.6147 -0.4877
   38MOL   H86038674   3.225   3.776   3.877  0.3948 -0.0852  0.3519
   38MOL   H86138675   3.394   4.054   3.793  2.2822  1.7668  0.5150
   38MOL   H86238676   3.601   4.066   3.666  1.8854 -1.9254 -0.6416
   38MOL   H86338677   4.005   3.916   3.488  1.4116  4.0211  0.6433
   38MOL   H86438678   4.241   3.950   3.566  0.4368  1.4954 -0.4338
   38MOL   H86538679   4.573   3.947   3.773  0.4989 -0.0020 -1.3172
   38MOL   H86638680   4.727   4.123   3.706  0.2469 -1.0819  1.9644
   38MOL   H86738681   4.546   4.533   3.837 -1.9685 -1.7242 -1.7801
   38MOL   H86838682   4.532   4.788   3.831  0.3974  0.7059 -0.1089
   38MOL   N86938683   3.228   3.954   3.973  0.1094 -0.7089 -0.0234
   38MOL   C87038684   3.266   4.027   4.090  0.1756 -0.9013  0.0753
   38MOL   C87138685   3.408   4.051   4.117  0.8515 -0.7154  0.1375
   38MOL   C87238686   3.441   4.103   4.249 -0.0587  0.0954  0.2396
   38MOL   C87338687   3.345   4.138   4.341 -0.7703  1.1876  0.0229
   38MOL   N87438688   3.384   4.159   4.472  0.7024 -0.3010 -0.4115
   38MOL   C87538689   3.469   4.079   4.544 -0.1456 -0.5025  0.7089
   38MOL   C87638690   3.533   4.135   4.658  0.4891  0.2151 -0.1196
   38MOL   C87738691   3.621   4.063   4.738  1.1599  0.2727 -0.3504
   38MOL   C87838692   3.629   3.926   4.714  0.8157  0.6598  0.1275
   38MOL   N87938693   3.710   3.854   4.798  0.5929 -0.1007 -0.3283
   38MOL   C88038694   3.756   3.721   4.787  0.4661  0.4939 -0.3866
   38MOL   C88138695   3.668   3.611   4.786  0.0949  0.4834  1.0919
   38MOL   C88238696   3.714   3.478   4.790 -0.2766  0.2510 -0.4009
   38MOL   C88338697   3.856   3.451   4.790  0.1093 -0.1121  0.2168
   38MOL   N88438698   3.896   3.317   4.783  0.3016 -0.1114  0.0953
   38MOL   C88538699   3.975   3.263   4.682 -0.3173  0.2501  0.8604
   38MOL   C88638700   4.042   3.137   4.712 -0.2935 -0.6968 -0.2847
   38MOL   C88738701   4.125   3.082   4.613 -0.7023  0.5023 -0.8093
   38MOL   C88838702   4.147   3.149   4.490  0.2075  0.2279 -0.2665
   38MOL   C88938703   4.246   3.100   4.384  0.3473 -0.3901  0.1167
   38MOL   C89038704   4.082   3.271   4.463 -0.1468  0.2328  0.2837
   38MOL   C89138705   4.005   3.331   4.560  0.3964 -0.3547 -0.1304
   38MOL   C89238706   3.945   3.562   4.793  0.8803  0.0514  0.6102
   38MOL   C89338707   3.898   3.696   4.798  0.5547 -0.6791  0.8325
   38MOL   C89438708   3.567   3.864   4.603  0.0911 -0.5214  0.6991
   38MOL   C89538709   3.486   3.938   4.517 -0.0832 -0.6148 -0.3944
   38MOL   C89638710   3.205   4.132   4.305  0.0392  0.1483 -0.1406
   38MOL   C89738711   3.169   4.073   4.178  0.8810 -0.2086 -0.8668
   38MOL   H89838712   3.127   3.949   3.973  0.0402  0.3696  1.1756
   38MOL   H89938713   3.486   4.007   4.056  0.1357 -0.8806 -0.6677
   38MOL   H90038714   3.545   4.096   4.279  0.2727  3.6349  0.2171
   38MOL   H90138715   3.323   4.215   4.529 -0.6094  0.8444 -2.8906
   38MOL   H90238716   3.519   4.239   4.680 -0.4858 -0.3463  2.0073
   38MOL   H90338717   3.671   4.113   4.819 -2.0397  2.2275  0.5298
   38MOL   H90438718   3.768   3.913   4.856 -0.8060  0.5073  0.4677
   38MOL   H90538719   3.563   3.636   4.779  0.1141  0.3727  0.3737
   38MOL   H90638720   3.648   3.394   4.775  0.6291 -0.7296  0.9671
   38MOL   H90738721   3.842   3.241   4.822  0.4852  0.4767  1.5025
   38MOL   H90838722   4.025   3.087   4.806  1.1993  0.5101  0.6529
   38MOL   H90938723   4.165   2.987   4.643 -1.2506 -0.4196 -2.9207
   38MOL   H91038724   4.301   3.191   4.359 -1.7404  0.8803  0.0660
   38MOL   H91138725   4.188   3.073   4.296  0.3510  0.5360 -0.1756
   38MOL   H91238726   4.102   3.330   4.375  0.1251 -2.5578 -1.5785
   38MOL   H91338727   3.965   3.427   4.530 -1.3391 -1.7982 -2.6729
   38MOL   H91438728   4.051   3.549   4.804  0.7640 -1.6246 -0.0389
   38MOL   H91538729   3.967   3.779   4.793 -0.6524  0.2647 -0.8986
   38MOL   H91638730   3.574   3.758   4.582 -2.3662 -0.5689 -0.0271
   38MOL   H91738731   3.421   3.880   4.452 -0.9306 -0.4739  0.3170
   38MOL   H91838732   3.141   4.167   4.384  1.4852 -0.4428  1.3406
   38MOL   H91938733   3.063   4.058   4.165  0.9315 -2.6758  1.1858
   38MOL   N92038734   4.333   2.997   4.433 -0.2812 -0.2264  0.3011
   38MOL   C92138735   4.451   2.972   4.371 -0.6778 -0.5091  0.5471
   38MOL   C92238736   4.472   3.007   4.228  0.3985  0.6712 -0.8393
   38MOL   C92338737   4.588   2.961   4.159 -0.6967 -0.1462  0.2540
   38MOL   C92438738   4.687   2.897   4.225  0.3803  0.1812  0.0098
   38MOL   N92538739   4.797   2.866   4.150 -0.5710 -0.4997 -0.3165
   38MOL   C92638740   4.926   2.857   4.199  0.4639  0.1993  0.1480
   38MOL   C92738741   4.982   2.960   4.276  0.4384 -0.5229 -0.7356
   38MOL   C92838742   5.114   2.945   4.324 -0.1372 -0.1583 -0.5028
   38MOL   C92938743   5.194   2.830   4.298 -0.2912 -0.2707  0.5189
   38MOL   N93038744   5.320   2.808   4.360 -0.3095 -0.2825 -0.0776
   38MOL   C93138745   5.426   2.715   4.332  0.3542 -0.5189 -1.0183
   38MOL   C93238746   5.499   2.667   4.436  0.0740 -0.2015  0.5215
   38MOL   C93338747   5.597   2.559   4.418  0.0626  0.4958 -0.1444
   38MOL   C93438748   5.631   2.519   4.285  0.0610  0.2345  0.7436
   38MOL   N93538749   5.746   2.440   4.266  0.4351 -0.5727 -0.1767
   38MOL   C93638750   5.787   2.350   4.166  0.1040 -0.3316 -0.4151
   38MOL   C93738751   5.698   2.262   4.101 -0.1939  0.0327 -0.0605
   38MOL   C93838752   5.725   2.172   3.994 -0.2269 -0.7859  0.4072
   38MOL   C93938753   5.859   2.166   3.951 -0.3214 -0.2475  0.5737
   38MOL   C94038754   5.900   2.082   3.841 -0.2220 -0.3942 -1.1327
   38MOL   C94138755   5.960   2.242   4.019 -0.7104  0.2674 -0.9185
   38MOL   C94238756   5.920   2.333   4.122  0.1169 -0.1560 -0.2906
   38MOL   C94338757   5.563   2.579   4.178 -0.5205 -0.0282 -0.1549
   38MOL   C94438758   5.462   2.672   4.201 -0.0932  0.0886 -0.1763
   38MOL   C94538759   5.137   2.734   4.214 -1.0268 -0.0517 -0.3701
   38MOL   C94638760   5.007   2.749   4.164  0.0147  0.9423 -0.3121
   38MOL   C94738761   4.668   2.856   4.354  0.1724 -0.0891 -0.6804
   38MOL   C94838762   4.557   2.893   4.427 -0.3332  0.0574 -0.8596
   38MOL   H94938763   4.328   2.988   4.533 -1.8203  1.8602  0.4436
   38MOL   H95038764   4.391   3.049   4.171 -0.1012  0.8767  0.0085
   38MOL   H95138765   4.600   2.978   4.053 -2.9050 -0.5916 -0.1011
   38MOL   H95238766   4.786   2.841   4.053  0.8517 -1.5715 -0.2193
   38MOL   H95338767   4.937   3.057   4.291 -0.1312 -0.5877 -1.9484
   38MOL   H95438768   5.160   3.020   4.387  0.3680 -1.7412  1.0323
   38MOL   H95538769   5.318   2.832   4.458  1.3745 -0.6409  0.0609
   38MOL   H95638770   5.479   2.707   4.535 -0.3060 -1.5228  1.0012
   38MOL   H95738771   5.657   2.524   4.501  0.3609  2.8001  0.6732
   38MOL   H95838772   5.820   2.463   4.331 -0.2080 -0.8415  0.6582
   38MOL   H95938773   5.593   2.272   4.125 -0.9793 -1.3264 -2.7113
   38MOL   H96038774   5.649   2.123   3.937 -0.2318 -1.9278  1.3620
   38MOL   H96138775   5.997   2.119   3.806 -1.3096  3.2448 -0.5735
   38MOL   H96238776   5.824   2.092   3.763  0.6051  0.0382 -1.8957
   38MOL   H96338777   6.064   2.228   3.992 -0.9958  0.5123 -2.2025
   38MOL   H96438778   5.994   2.388   4.178 -1.9803  0.5693  1.8227
   38MOL   H96538779   5.602   2.571   4.078  0.4973 -2.6746  0.4149
   38MOL   H96638780   5.421   2.729   4.119  1.0467  0.1355 -0.7257
   38MOL   H96738781   5.188   2.643   4.188  0.6068  0.9520 -0.7123
   38MOL   H96838782   4.965   2.683   4.089 -2.5380 -0.9824  2.6751
   38MOL   H96938783   4.748   2.801   4.401 -0.6304 -1.0062 -0.3749
   38MOL   H97038784   4.544   2.860   4.529 -1.2867 -2.2456 -1.6965
   38MOL   N97138785   5.924   1.943   3.882 -0.3400  0.3512  0.0275
   38MOL   C97238786   5.886   1.823   3.813 -0.0133 -0.2661 -0.0423
   38MOL   C97338787   5.969   1.708   3.814 -0.3772 -0.0652 -0.2528
   38MOL   C97438788   5.935   1.592   3.744 -0.5643  1.0856  0.0489
   38MOL   C97538789   5.813   1.589   3.666 -0.4091 -0.3566  0.5004
   38MOL   N97638790   5.770   1.488   3.581 -0.3621 -0.0950  0.1748
   38MOL   C97738791   5.819   1.359   3.561  0.5714  0.8911 -1.2045
   38MOL   C97838792   5.875   1.278   3.673  0.4892 -0.0277  0.6509
   38MOL   C97938793   5.917   1.145   3.657 -0.4516  0.3753 -0.0032
   38MOL   C98038794   5.920   1.105   3.525 -0.4423  0.4950 -0.2919
   38MOL   N98138795   5.968   0.987   3.485 -0.3815  0.3639  0.7789
   38MOL   C98238796   6.046   0.902   3.558  0.0443 -1.0733  0.6246
   38MOL   C98338797   6.021   0.764   3.559 -0.1613 -0.6071 -0.1105
   38MOL   C98438798   6.081   0.685   3.654 -0.6823  0.2363 -0.0560
   38MOL   C98538799   6.185   0.739   3.740  0.2107 -0.3011  0.1100
   38MOL   N98638800   6.249   0.666   3.848  0.1448 -0.1732 -0.3938
   38MOL   C98738801   6.173   0.614   3.955  0.0824 -0.1936  0.1297
   38MOL   C98838802   6.050   0.675   3.993 -0.3893  0.1301  0.0973
   38MOL   C98938803   5.979   0.610   4.099  0.0726  0.3683 -0.0604
   38MOL   C99038804   6.032   0.496   4.167  0.3542 -0.0541 -0.3705
   38MOL   C99138805   5.955   0.434   4.285 -0.4373  0.0667 -0.4992
   38MOL   C99238806   6.158   0.454   4.135 -0.0218 -0.2799  0.1786
   38MOL   C99338807   6.229   0.514   4.030 -0.8253  0.4525 -0.6484
   38MOL   C99438808   6.214   0.871   3.728 -0.2893  1.0717  0.4425
   38MOL   C99538809   6.146   0.954   3.644  0.3163 -0.0056 -0.2918
   38MOL   C99638810   5.874   1.183   3.418 -0.1153  0.2081 -0.1103
   38MOL   C99738811   5.824   1.310   3.433  1.2545  0.1721 -0.0411
   38MOL   C99838812   5.729   1.707   3.670 -0.4926  0.9568  0.0479
   38MOL   C99938813   5.760   1.813   3.750 -0.4880  0.5978  0.0139
   38MOL     H138814   6.009   1.947   3.935 -0.5167  1.8981  0.1999
   38MOL     H238815   6.067   1.720   3.858  0.6812 -2.9708 -1.6823
   38MOL     H338816   5.993   1.501   3.743 -2.5672 -0.2349 -1.5108
   38MOL     H438817   5.711   1.519   3.505 -1.1517 -0.8144  0.4789
   38MOL     H538818   5.868   1.316   3.775  1.5381 -2.8429  1.8061
   38MOL     H638819   5.956   1.090   3.741  0.4035 -1.4676 -1.5742
   38MOL     H738820   5.922   0.953   3.402  1.4925 -2.6981  0.9060
   38MOL     H838821   5.950   0.710   3.499  0.3329 -2.6550  1.0742
   38MOL     H938822   6.055   0.580   3.656  0.1416 -0.0147 -1.6255
   38MOL    H1038823   6.349   0.655   3.838  0.0510  0.1394 -1.8704
   38MOL    H1138824   6.004   0.758   3.944 -0.8485 -0.4423 -0.4495
   38MOL    H1238825   5.875   0.632   4.118 -0.2058 -0.6214 -0.3748
   38MOL    H1338826   5.920   0.511   4.353 -0.2647 -2.1723  2.2446
   38MOL    H1438827   6.027   0.383   4.350 -0.3667 -1.5612 -1.8233
   38MOL    H1538828   6.211   0.383   4.197  1.4507  1.2430  0.6649
   38MOL    H1638829   6.327   0.472   4.010 -1.2787 -0.2286 -1.4510
   38MOL    H1738830   6.272   0.934   3.793  0.7467  1.1763 -0.5673
   38MOL    H1838831   6.177   1.057   3.652  0.3677 -0.1301  1.3805
   38MOL    H1938832   5.886   1.142   3.319 -0.1811  0.2297 -0.1263
   38MOL    H2038833   5.781   1.363   3.349  0.8551 -0.6659 -0.3671
   38MOL    H2138834   5.638   1.710   3.611 -0.3124 -1.2614 -0.3877
   38MOL    H2238835   5.689   1.895   3.758 -1.0095  0.2631 -1.0744
   38MOL    H2338836   5.869   0.371   4.263 -0.5537 -0.3180  1.0024
   39MOL     N138837   0.749   4.555   6.749  0.2008  0.1731 -0.0128
   39MOL     C238838   0.787   4.655   6.835  0.6104  0.5863  0.5601
   39MOL     C338839   0.839   4.620   6.964  0.5552 -0.6051  0.2873
   39MOL     C438840   0.898   4.721   7.044 -0.3688 -0.5285  0.0759
   39MOL     C538841   0.892   4.857   7.012 -0.4282  0.0963  0.3168
   39MOL     N638842   0.946   4.958   7.095 -0.1345  0.1076  0.6155
   39MOL     C738843   0.896   5.092   7.104  0.7577 -0.1485  0.4701
   39MOL     C838844   0.977   5.193   7.158 -0.4657 -0.2618  0.1402
   39MOL     C938845   0.941   5.326   7.185 -0.0729  0.2043 -0.6045
   39MOL    C1038846   0.812   5.361   7.169 -0.2799 -1.0808 -0.1478
   39MOL    N1138847   0.766   5.489   7.195  0.2685 -0.7533  0.5434
   39MOL    C1238848   0.837   5.608   7.174  0.2444 -0.0052  0.1693
   39MOL    C1338849   0.918   5.622   7.056 -0.0126  0.0455  0.3520
   39MOL    C1438850   0.993   5.734   7.037 -0.3656 -0.2884  0.2753
   39MOL    C1538851   0.988   5.842   7.127 -0.3034 -0.0725 -0.0362
   39MOL    N1638852   1.063   5.959   7.091  0.2969  0.4306 -0.0161
   39MOL    C1738853   1.089   6.071   7.171 -0.6251  0.2302  0.7408
   39MOL    C1838854   1.072   6.193   7.104  0.0264  0.1937  0.0339
   39MOL    C1938855   1.118   6.306   7.166  0.5975 -0.0481  0.1812
   39MOL    C2038856   1.175   6.305   7.298 -0.0420 -0.4428  0.0367
   39MOL    C2138857   1.227   6.424   7.370 -0.4035 -0.2431 -0.4180
   39MOL    C2238858   1.187   6.179   7.365  0.2228 -0.3785 -0.0751
   39MOL    C2338859   1.137   6.067   7.302  0.3129  1.0884  0.4270
   39MOL    C2438860   0.897   5.833   7.235 -0.1157 -0.2544 -0.0178
   39MOL    C2538861   0.817   5.718   7.253  0.1924 -0.5327  0.0220
   39MOL    C2638862   0.717   5.265   7.128 -0.1048  0.4005  0.3928
   39MOL    C2738863   0.760   5.134   7.083 -0.8776  0.0012  0.6073
   39MOL    C2838864   0.848   4.888   6.885  0.4666  0.4149 -0.4468
   39MOL    C2938865   0.791   4.792   6.797  0.0533  0.1194  0.2378
   39MOL    H3038866   0.774   4.461   6.775 -0.7247  0.5026  2.1918
   39MOL    H3138867   0.849   4.522   7.008 -0.8319  0.0190  2.0276
   39MOL    H3238868   0.944   4.699   7.139  0.4683  0.6083 -0.0517
   39MOL    H3338869   1.003   4.924   7.172 -0.0462 -1.2598 -0.0415
   39MOL    H3438870   1.070   5.154   7.196 -1.1886  0.5195  2.8318
   39MOL    H3538871   1.015   5.387   7.235 -0.9148  1.0676 -0.3959
   39MOL    H3638872   0.687   5.499   7.258  0.5070  0.8792  0.6020
   39MOL    H3738873   0.930   5.539   6.987 -2.1489  1.1660 -1.4590
   39MOL    H3838874   1.049   5.751   6.946 -0.2437 -0.7473  0.2616
   39MOL    H3938875   1.089   5.973   6.995  4.6990 -5.0056  0.1120
   39MOL    H4038876   1.037   6.202   7.002 -0.7573  0.8459  0.3555
   39MOL    H4138877   1.118   6.399   7.110  0.6030 -1.1072 -1.6018
   39MOL    H4238878   1.182   6.416   7.469 -0.4552 -0.9077 -0.4951
   39MOL    H4338879   1.200   6.511   7.309  0.3216 -0.2996 -0.8167
   39MOL    H4438880   1.218   6.168   7.468 -0.0567 -0.9623 -0.0529
   39MOL    H4538881   1.134   5.972   7.352 -3.4917  0.5276 -0.6897
   39MOL    H4638882   0.900   5.914   7.306  1.6376  1.0749 -1.5612
   39MOL    H4738883   0.756   5.716   7.343 -0.2784  0.4929 -0.2785
   39MOL    H4838884   0.613   5.285   7.107 -0.1244 -0.9372 -0.8246
   39MOL    H4938885   0.692   5.062   7.040 -0.0223  0.0294 -0.8134
   39MOL    H5038886   0.856   4.995   6.872  1.7471  0.5241  1.1221
   39MOL    H5138887   0.756   4.821   6.699 -2.6273  1.7071  1.5943
   39MOL    H5238888   0.770   4.571   6.652  0.2162 -1.2758 -0.2515
   39MOL    N5338889   1.372   6.407   7.374 -0.0637 -0.6080 -0.3346
   39MOL    C5438890   1.465   6.502   7.408 -0.2362  0.5065 -0.0004
   39MOL    C5538891   1.444   6.628   7.475  0.4410 -0.2313  0.3906
   39MOL    C5638892   1.545   6.713   7.515 -0.3282  0.0197  0.6134
   39MOL    C5738893   1.677   6.682   7.478 -0.6195  0.4658  0.2644
   39MOL    N5838894   1.786   6.769   7.488 -0.1027  0.7169 -0.4058
   39MOL    C5938895   1.811   6.883   7.558  0.8247  0.4683  0.3052
   39MOL    C6038896   1.899   6.976   7.504  0.7986  0.4030  0.3625
   39MOL    C6138897   1.938   7.098   7.565  0.0033  0.2020  0.2415
   39MOL    C6238898   1.888   7.122   7.694 -0.2974 -0.2517 -0.8095
   39MOL    N6338899   1.912   7.242   7.764  0.2998 -0.8238  0.0756
   39MOL    C6438900   1.966   7.366   7.724  0.2519 -0.3287  0.6513
   39MOL    C6538901   2.095   7.368   7.672 -0.4147 -0.1894  0.3259
   39MOL    C6638902   2.141   7.495   7.636 -0.2389 -0.7362  0.8043
   39MOL    C6738903   2.060   7.615   7.642 -0.5789 -0.3931  0.0116
   39MOL    N6838904   2.118   7.729   7.591  0.0423 -0.2116  0.1299
   39MOL    C6938905   2.076   7.861   7.611  0.1700  0.3148  0.5706
   39MOL    C7038906   2.034   7.911   7.737  0.0247 -0.4293 -0.3768
   39MOL    C7138907   1.993   0.064   7.758  0.0675  0.5057 -0.1594
   39MOL    C7238908   2.006   0.160   7.650  0.1974 -0.4117 -0.2799
   39MOL    C7338909   1.979   0.304   7.680  0.4766 -0.5594 -0.3741
   39MOL    C7438910   2.053   0.117   7.525  0.1774  0.0752  0.3682
   39MOL    C7538911   2.083   7.956   7.502 -0.0986 -0.0121 -0.1670
   39MOL    C7638912   1.935   7.600   7.702 -0.5868 -0.6784  0.0931
   39MOL    C7738913   1.889   7.479   7.747  0.0758  0.1945 -0.5826
   39MOL    C7838914   1.791   7.031   7.754 -0.1994 -0.0917 -0.4289
   39MOL    C7938915   1.759   6.908   7.688 -0.1390  0.2804 -0.1013
   39MOL    C8038916   1.702   6.561   7.421  0.5151  0.2312 -0.6953
   39MOL    C8138917   1.597   6.470   7.381 -0.4118 -0.0467  0.6305
   39MOL    H8238918   1.406   6.334   7.313 -0.5452 -0.9047 -0.2465
   39MOL    H8338919   1.339   6.653   7.481  0.7086  1.7691 -2.1654
   39MOL    H8438920   1.525   6.812   7.553 -0.9356  1.0433 -2.2312
   39MOL    H8538921   1.857   6.751   7.419 -0.9808  2.4207 -1.8118
   39MOL    H8638922   1.933   6.961   7.402  1.7621 -0.8593  0.8633
   39MOL    H8738923   2.007   7.167   7.520 -1.5713  1.9195  0.4270
   39MOL    H8838924   1.865   7.239   7.854 -2.6585 -0.7724 -1.3921
   39MOL    H8938925   2.151   7.278   7.655  2.4298  1.7605 -1.0466
   39MOL    H9038926   2.242   7.498   7.598 -1.5086  0.7568 -2.6605
   39MOL    H9138927   2.195   7.719   7.527  0.3725 -1.9769  0.7841
   39MOL    H9238928   2.028   7.844   7.822  1.8501 -0.7219 -0.4648
   39MOL    H9338929   1.966   0.091   7.859  2.3022  2.6069 -0.0856
   39MOL    H9438930   2.069   0.350   7.639 -0.9679  2.1007 -0.6859
   39MOL    H9538931   1.989   0.326   7.786 -1.0856 -0.9058 -0.1443
   39MOL    H9638932   2.062   0.175   7.435  1.5144 -3.5242 -1.9329
   39MOL    H9738933   2.117   7.916   7.408 -2.1364 -1.7995 -0.1800
   39MOL    H9838934   1.878   7.690   7.720  2.3804  0.9209  1.8227
   39MOL    H9938935   1.792   7.468   7.794  0.4452 -0.4467  0.0363
   39MOL   H10038936   1.745   7.062   7.846 -1.7946 -0.8705 -0.9551
   39MOL   H10138937   1.689   6.841   7.733 -0.8545  1.2331  0.2224
   39MOL   H10238938   1.803   6.541   7.388  0.2004 -1.0975 -0.8890
   39MOL   H10338939   1.614   6.375   7.333 -0.4625  0.1362  0.2524
   39MOL   N10438940   1.852   0.346   7.627  0.0051  0.6265 -0.0391
   39MOL   C10538941   1.830   0.412   7.505 -0.1937 -0.3451 -0.0068
   39MOL   C10638942   1.936   0.452   7.415  0.2600  0.0474 -0.6214
   39MOL   C10738943   1.905   0.511   7.290 -1.0769  0.1991 -0.1739
   39MOL   C10838944   1.767   0.528   7.255 -0.3345 -0.2423 -0.1882
   39MOL   N10938945   1.731   0.563   7.124  0.0223 -0.9847  0.0340
   39MOL   C11038946   1.617   0.525   7.054  0.3637  0.0929 -0.1076
   39MOL   C11138947   1.540   0.412   7.082 -0.6301 -0.5129  0.1185
   39MOL   C11238948   1.435   0.371   7.006 -0.1236  0.5739 -0.5876
   39MOL   C11338949   1.384   0.465   6.909 -0.5456  0.9120 -0.2053
   39MOL   N11438950   1.266   0.443   6.842 -0.9631 -0.0880  0.2240
   39MOL   C11538951   1.245   0.470   6.713  0.1603 -0.0882  0.1323
   39MOL   C11638952   1.142   0.565   6.676  1.0425  0.2703 -0.2137
   39MOL   C11738953   1.103   0.577   6.546  0.5334  0.5675  0.3657
   39MOL   C11838954   1.164   0.501   6.442  0.4429 -0.2531 -0.4399
   39MOL   N11938955   1.123   0.524   6.311 -0.0810  0.3134  0.6540
   39MOL   C12038956   1.141   0.442   6.197  0.0154  0.3472  0.1304
   39MOL   C12138957   1.145   0.493   6.067 -0.4938 -0.0387  0.4551
   39MOL   C12238958   1.151   0.408   5.958 -0.3161 -0.8858 -0.2076
   39MOL   C12338959   1.180   0.272   5.977  0.7542 -0.3705 -0.1851
   39MOL   C12438960   1.189   0.179   5.858 -0.2956 -0.5833 -0.3025
   39MOL   C12538961   1.187   0.219   6.102  0.2585  0.8568  0.0167
   39MOL   C12638962   1.161   0.304   6.207 -0.3381  0.5089 -1.2660
   39MOL   C12738963   1.273   0.419   6.476  0.1919 -0.1727  0.9314
   39MOL   C12838964   1.314   0.404   6.609  0.1151 -0.3857  0.9387
   39MOL   C12938965   1.458   0.582   6.881  0.2946 -0.1659 -0.5171
   39MOL   C13038966   1.577   0.602   6.944 -0.0007  0.8251 -0.0971
   39MOL   C13138967   1.669   0.495   7.348  0.3456 -0.6591  0.2158
   39MOL   C13238968   1.698   0.438   7.469 -0.1030 -0.2057 -0.3103
   39MOL   H13338969   1.782   0.352   7.700 -0.0923  1.9901 -0.2306
   39MOL   H13438970   2.040   0.435   7.437  0.6600  0.5066 -2.0919
   39MOL   H13538971   1.984   0.512   7.217 -1.7399 -0.5352 -0.9077
   39MOL   H13638972   1.789   0.628   7.072  0.2383 -0.6438  0.6859
   39MOL   H13738973   1.561   0.350   7.169  1.6093 -0.5866 -0.4606
   39MOL   H13838974   1.384   0.283   7.042  0.8881  0.4486  0.5578
   39MOL   H13938975   1.221   0.353   6.854  0.2960 -0.8970 -1.0408
   39MOL   H14038976   1.082   0.608   6.755  0.4858 -0.2897 -0.3306
   39MOL   H14138977   1.024   0.643   6.513 -0.1433 -2.5252 -4.7770
   39MOL   H14238978   1.059   0.600   6.292  1.3633  1.3841 -0.0925
   39MOL   H14338979   1.141   0.600   6.050  0.2023  0.2703  2.1401
   39MOL   H14438980   1.150   0.444   5.857  0.9060 -2.4860 -0.8090
   39MOL   H14538981   1.260   0.099   5.880  0.5850  0.8005  2.0258
   39MOL   H14638982   1.243   0.226   5.776  1.1340 -0.0161  0.9550
   39MOL   H14738983   1.207   0.115   6.125 -0.2793  0.4107 -1.5149
   39MOL   H14838984   1.160   0.263   6.307 -2.1713  0.5374 -1.2507
   39MOL   H14938985   1.331   0.356   6.410  0.2072 -1.5845  2.2543
   39MOL   H15038986   1.388   0.328   6.627  0.8634  0.0932 -0.0944
   39MOL   H15138987   1.426   0.655   6.809  0.9542 -0.6422 -1.2936
   39MOL   H15238988   1.634   0.687   6.911  0.2677  0.1431 -1.4255
   39MOL   H15338989   1.566   0.522   7.327  0.3297  0.3501  1.5182
   39MOL   H15438990   1.620   0.408   7.538 -0.5563 -0.8683 -1.1022
   39MOL   N15538991   1.057   0.128   5.814 -0.5644  0.4462  0.4096
   39MOL   C15638992   1.060   0.059   5.687  0.5023 -0.0071 -0.3522
   39MOL   C15738993   0.979   0.093   5.581  0.6340  0.2351 -0.1572
   39MOL   C15838994   0.989   0.029   5.454  0.6402  1.3477 -0.4102
   39MOL   C15938995   1.084   7.913   5.429 -0.0710  0.8704 -0.0927
   39MOL   N16038996   1.104   7.865   5.297  0.2986  0.4792  0.2895
   39MOL   C16138997   1.010   7.842   5.196 -0.0500 -0.9488  0.0222
   39MOL   C16238998   1.063   7.816   5.071 -0.8989 -0.0317 -0.3178
   39MOL   C16338999   0.981   7.777   4.960  0.0721  0.4571  0.1743
   39MOL   C16439000   0.841   7.771   4.976  0.2188 -0.2930 -0.2566
   39MOL   N16539001   0.750   7.737   4.875  0.0653  0.2712  0.9004
   39MOL   C16639002   0.768   7.731   4.734  0.1952  0.2035 -0.1991
   39MOL   C16739003   0.845   7.824   4.663 -0.4206  0.2768  0.6932
   39MOL   C16839004   0.861   7.802   4.527  0.1870  0.4692  0.1943
   39MOL   C16939005   0.800   7.692   4.461 -0.0936 -0.1741  0.4769
   39MOL   N17039006   0.808   7.681   4.318 -0.4965  0.0292  0.3939
   39MOL   C17139007   0.794   7.784   4.226 -0.3733  0.0474  0.4186
   39MOL   C17239008   0.820   7.763   4.088  0.0161  0.4001 -0.7403
   39MOL   C17339009   0.804   7.868   3.995 -0.8953  0.3112 -0.0551
   39MOL   C17439010   0.741   7.982   4.029  0.3153  0.7760 -0.0185
   39MOL   C17539011   0.703   0.097   3.914  0.4894  0.3182  0.3782
   39MOL   C17639012   0.699   0.017   4.160  0.5918  0.3762 -0.3680
   39MOL   C17739013   0.732   7.905   4.258  0.0945 -0.0431 -0.0336
   39MOL   C17839014   0.718   7.602   4.537  0.5818 -0.7497 -0.1460
   39MOL   C17939015   0.692   7.629   4.669 -0.3794 -0.3478  0.0525
   39MOL   C18039016   0.788   7.796   5.105  0.0141 -0.4620  0.0610
   39MOL   C18139017   0.872   7.827   5.213 -0.1856  0.1874 -0.2588
   39MOL   C18239018   1.159   7.869   5.538 -0.0958  0.2160  0.1711
   39MOL   C18339019   1.152   7.934   5.668  0.6905  0.2003  1.0221
   39MOL   H18439020   0.976   0.177   5.849 -0.3529  1.0933  0.0136
   39MOL   H18539021   0.906   0.172   5.591  2.0739  1.6877 -0.9034
   39MOL   H18639022   0.921   0.067   5.379  1.9732  0.8599 -1.8971
   39MOL   H18739023   1.198   7.833   5.281  0.3476  0.8689 -0.2354
   39MOL   H18839024   1.170   7.816   5.053 -1.1399 -0.9100 -1.8173
   39MOL   H18939025   1.024   7.758   4.863  1.2634  0.8932  0.6109
   39MOL   H19039026   0.655   7.719   4.903 -0.2237  0.3873 -0.0005
   39MOL   H19139027   0.889   7.908   4.714  0.1445  0.4671 -0.1067
   39MOL   H19239028   0.913   7.873   4.466  0.2044  1.3520  1.2243
   39MOL   H19339029   0.833   7.593   4.275 -0.2374  0.7684 -1.0210
   39MOL   H19439030   0.873   7.677   4.050  0.1020  0.8384 -1.6015
   39MOL   H19539031   0.821   7.853   3.889  0.5501 -0.3549  0.2459
   39MOL   H19639032   0.598   0.125   3.917  0.0825 -1.0529 -0.6329
   39MOL   H19739033   0.716   0.056   3.814  1.6011  1.8142 -0.1181
   39MOL   H19839034   0.641   0.105   4.183  0.9468  0.2428  1.0518
   39MOL   H19939035   0.700   7.930   4.357  0.8971  3.3897 -0.5839
   39MOL   H20039036   0.673   7.525   4.476  1.8291 -0.1416 -1.8835
   39MOL   H20139037   0.625   7.563   4.723 -0.0266 -0.0643  0.8332
   39MOL   H20239038   0.683   7.779   5.124 -0.3232  0.7880 -0.6657
   39MOL   H20339039   0.827   7.839   5.311 -2.2239 -0.4952 -1.0989
   39MOL   H20439040   1.224   7.783   5.529 -0.5258 -0.1316  0.3551
   39MOL   H20539041   1.216   7.902   5.749  0.1600 -1.0952  0.9407
   39MOL   N20639042   0.773   0.227   3.916  0.0469  0.5737 -0.2529
   39MOL   C20739043   0.775   0.312   3.807 -0.4369 -0.3458 -0.7494
   39MOL   C20839044   0.663   0.316   3.717 -0.3101  0.4473  0.1520
   39MOL   C20939045   0.662   0.398   3.603 -0.1134 -0.1943  0.5512
   39MOL   C21039046   0.776   0.485   3.579 -0.2578 -0.2655 -0.1915
   39MOL   N21139047   0.773   0.580   3.475  0.2422 -0.4251  0.0677
   39MOL   C21239048   0.769   0.555   3.342 -0.3568  0.0722  0.0494
   39MOL   C21339049   0.769   0.655   3.243  0.0539 -0.1782  0.0779
   39MOL   C21439050   0.775   0.619   3.105 -0.2013 -0.1711  0.4521
   39MOL   C21539051   0.757   0.488   3.063 -0.1467 -0.1771 -0.0636
   39MOL   N21639052   0.742   0.450   2.928  0.1159  0.0831 -0.3194
   39MOL   C21739053   0.799   0.499   2.812 -0.4552 -0.1065  0.2357
   39MOL   C21839054   0.929   0.555   2.819  0.1665  0.5385  0.1866
   39MOL   C21939055   0.996   0.592   2.704  0.2264  0.1705  0.1685
   39MOL   C22039056   0.933   0.582   2.579 -0.4519  0.2164 -0.4580
   39MOL   N22139057   0.998   0.642   2.464 -0.5230 -0.9359 -0.1569
   39MOL   C22239058   0.952   0.639   2.331 -0.3820  0.0118 -0.0210
   39MOL   C22339059   0.946   0.762   2.265 -0.4632 -0.1904 -0.0538
   39MOL   C22439060   0.893   0.777   2.142  0.2277  0.3632  0.0756
   39MOL   C22539061   0.833   0.661   2.084 -0.0659  0.8658 -0.1041
   39MOL   C22639062   0.743   0.681   1.967 -0.1507  0.1208  0.0356
   39MOL   C22739063   0.835   0.535   2.145  0.6342 -0.4506  0.4518
   39MOL   C22839064   0.891   0.525   2.270 -0.4640  0.1533 -0.4919
   39MOL   C22939065   0.801   0.527   2.572 -0.1791  0.1763 -0.2458
   39MOL   C23039066   0.742   0.475   2.686  0.2337  0.5376  0.4131
   39MOL   C23139067   0.743   0.388   3.160  0.3464  0.1552  0.0943
   39MOL   C23239068   0.759   0.421   3.300 -0.4850 -0.1072  0.0847
   39MOL   C23339069   0.883   0.483   3.671  0.5952  1.0461 -0.2513
   39MOL   C23439070   0.889   0.397   3.783  0.1566  0.0404  0.1316
   39MOL   H23539071   0.831   0.261   3.992 -1.1630  1.3052  0.3509
   39MOL   H23639072   0.581   0.247   3.728  1.8909 -2.3988 -0.8215
   39MOL   H23739073   0.578   0.390   3.535  1.5528  2.3140 -1.9311
   39MOL   H23839074   0.819   0.668   3.496  2.1200 -0.6888 -2.6598
   39MOL   H23939075   0.760   0.761   3.262  0.1823 -0.1653  0.0652
   39MOL   H24039076   0.776   0.693   3.026 -0.2660  1.8705  2.2884
   39MOL   H24139077   0.667   0.384   2.912 -0.1943  1.1898 -3.6936
   39MOL   H24239078   0.995   0.564   2.904  1.7701  0.8559 -1.0784
   39MOL   H24339079   1.093   0.638   2.707 -0.0552  0.8023 -0.3819
   39MOL   H24439080   1.077   0.701   2.487 -0.3141 -0.2199 -2.6263
   39MOL   H24539081   0.990   0.846   2.316 -0.4678 -0.4428  0.3673
   39MOL   H24639082   0.879   0.877   2.104 -2.1386  0.2237  0.5279
   39MOL   H24739083   0.753   0.590   1.907 -0.9111 -0.5650  0.9352
   39MOL   H24839084   0.782   0.755   1.897  2.4250 -1.5154 -0.3507
   39MOL   H24939085   0.788   0.450   2.097  2.1523 -0.7968 -0.4420
   39MOL   H25039086   0.873   0.436   2.328 -0.4058 -0.4330 -1.3660
   39MOL   H25139087   0.747   0.514   2.479 -2.3368 -0.8734  1.1275
   39MOL   H25239088   0.649   0.425   2.668 -0.7272  1.6403  2.0919
   39MOL   H25339089   0.717   0.287   3.132 -1.4163  0.7572 -0.5084
   39MOL   H25439090   0.737   0.338   3.365 -1.3306  0.2701  0.2813
   39MOL   H25539091   0.962   0.553   3.646 -1.1134  2.8702 -0.6291
   39MOL   H25639092   0.967   0.396   3.858 -0.8029  3.9655  1.3591
   39MOL   N25739093   0.610   0.726   1.999  0.0800 -0.6906 -0.2174
   39MOL   C25839094   0.515   0.745   1.894  0.4528  0.0756  0.1539
   39MOL   C25939095   0.438   0.861   1.908 -0.2391 -0.1273  0.1134
   39MOL   C26039096   0.348   0.891   1.804 -0.5361  0.5866  0.7349
   39MOL   C26139097   0.314   0.794   1.701  0.7839 -0.1288  0.1004
   39MOL   N26239098   0.207   0.824   1.613 -0.2030 -0.5097  0.6753
   39MOL   C26339099   0.096   0.903   1.640 -1.1952  0.3385 -0.5511
   39MOL   C26439100   0.047   1.001   1.553 -0.2820 -0.5443  0.0646
   39MOL   C26539101   7.920   1.080   1.583 -0.4444  0.0228  0.1586
   39MOL   C26639102   7.857   1.063   1.701 -0.0499 -0.8850 -0.1580
   39MOL   N26739103   7.767   1.162   1.739  0.5468  0.0384  0.4479
   39MOL   C26839104   7.671   1.144   1.837  0.2811 -0.1956  0.5414
   39MOL   C26939105   7.595   1.026   1.850  0.4053 -0.1461 -0.4829
   39MOL   C27039106   7.501   1.012   1.950 -0.5138 -0.8360  0.1940
   39MOL   C27139107   7.488   1.110   2.041 -0.1725  0.0527  0.2767
   39MOL   N27239108   7.388   1.102   2.141 -0.6900  0.6379 -0.5393
   39MOL   C27339109   7.315   0.983   2.181  0.4708  0.2644  0.0353
   39MOL   C27439110   7.176   0.977   2.180  0.6953  0.2957 -0.0013
   39MOL   C27539111   7.106   0.860   2.218 -0.5818  1.3515  0.0087
   39MOL   C27639112   7.180   0.759   2.281  0.7901  0.6890 -0.5603
   39MOL   C27739113   7.095   0.638   2.330  0.0960 -0.0693 -0.5570
   39MOL   C27839114   7.320   0.764   2.294 -0.1230 -0.1641 -0.0268
   39MOL   C27939115   7.386   0.875   2.242  0.2586  0.1838  0.0894
   39MOL   C28039116   7.562   1.232   2.037 -0.6913  0.4017  0.1628
   39MOL   C28139117   7.656   1.249   1.932  0.3408 -0.1149  0.5024
   39MOL   C28239118   7.890   0.955   1.787 -0.4085 -0.2009  0.0648
   39MOL   C28339119   0.021   0.877   1.756  0.5891  0.4940  0.0674
   39MOL   C28439120   0.392   0.677   1.695 -0.4828 -0.3565  0.0450
   39MOL   C28539121   0.492   0.658   1.788  0.1351 -0.2203  0.2640
   39MOL   H28639122   0.596   0.769   2.089 -0.4791 -3.1781  0.9516
   39MOL   H28739123   0.456   0.935   1.984  4.1045 -0.6061 -0.2842
   39MOL   H28839124   0.285   0.979   1.802 -1.0642  0.1934 -0.2219
   39MOL   H28939125   0.191   0.762   1.535  1.3760  0.9354 -0.8307
   39MOL   H29039126   0.102   1.032   1.466  0.3974  2.2597  1.4334
   39MOL   H29139127   7.891   1.157   1.513 -1.3962  0.5628  1.1369
   39MOL   H29239128   7.752   1.236   1.672 -0.7965 -1.2520 -0.7000
   39MOL   H29339129   7.604   0.947   1.777 -2.0934  1.1364 -2.2462
   39MOL   H29439130   7.439   0.925   1.960 -2.7884  0.8685  1.2402
   39MOL   H29539131   7.361   1.183   2.194  0.3042  1.5864 -1.4428
   39MOL   H29639132   7.118   1.060   2.141 -1.6021 -1.5345 -0.6140
   39MOL   H29739133   7.000   0.849   2.204 -0.2336  0.6800 -2.2759
   39MOL   H29839134   7.004   0.664   2.384  0.4063 -0.6889  0.2651
   39MOL   H29939135   7.154   0.589   2.406 -0.6301 -0.5170 -0.2760
   39MOL   H30039136   7.386   0.697   2.348  0.3131  0.6456  0.4595
   39MOL   H30139137   7.493   0.883   2.252  0.4409 -1.3018 -0.6167
   39MOL   H30239138   7.538   1.319   2.097 -1.7556  0.2151  0.0244
   39MOL   H30339139   7.721   1.335   1.930  1.6234 -1.0563  1.1863
   39MOL   H30439140   7.836   0.941   1.880  1.4164  0.8062  1.3107
   39MOL   H30539141   0.056   0.795   1.817 -0.7169  0.3198  0.5927
   39MOL   H30639142   0.375   0.598   1.623  0.5557  0.2479 -0.8729
   39MOL   H30739143   0.550   0.567   1.783 -0.3513 -0.5873  1.3250
   39MOL   N30839144   7.074   0.560   2.214  0.2342  0.1929 -0.0071
   39MOL   C30939145   7.027   0.431   2.210 -1.1936  0.6269 -0.3434
   39MOL   C31039146   7.068   0.343   2.103  0.0853 -0.7295  0.8092
   39MOL   C31139147   7.009   0.215   2.100 -0.0617 -0.0361  0.5098
   39MOL   C31239148   6.913   0.171   2.195  0.2549 -1.5668 -0.2585
   39MOL   N31339149   6.843   0.050   2.175 -0.4722  0.0660 -0.2510
   39MOL   C31439150   6.892   7.905   2.133  0.2633 -0.1326 -0.2251
   39MOL   C31539151   6.793   7.806   2.104  0.0393  0.6122  0.5159
   39MOL   C31639152   6.827   7.680   2.054 -0.2454 -0.0711 -0.6787
   39MOL   C31739153   6.962   7.641   2.033  0.0909 -0.2020  0.2783
   39MOL   N31839154   7.007   7.515   1.982 -0.1923  0.4609 -0.4448
   39MOL   C31939155   6.924   7.408   1.935 -0.2022  0.5316 -0.4654
   39MOL   C32039156   6.946   7.357   1.804 -0.4180 -0.6062 -0.2234
   39MOL   C32139157   6.858   7.257   1.756 -0.6528 -0.3474  0.5634
   39MOL   C32239158   6.762   7.200   1.842  0.1227  0.7247  0.6274
   39MOL   N32339159   6.665   7.112   1.797  0.2375  0.3449  0.5627
   39MOL   C32439160   6.537   7.137   1.816  0.4186 -0.3037  0.4694
   39MOL   C32539161   6.485   7.271   1.811  0.7928 -0.3891 -0.0845
   39MOL   C32639162   6.340   7.293   1.823  0.2635  0.3442  0.2088
   39MOL   C32739163   6.263   7.186   1.873 -0.0293 -0.3417 -0.0387
   39MOL   C32839164   6.113   7.198   1.899 -0.6929 -0.1792  0.2218
   39MOL   C32939165   6.327   7.055   1.886  0.5798  0.1788  0.3855
   39MOL   C33039166   6.457   7.029   1.852 -0.2295 -0.3395 -0.1111
   39MOL   C33139167   6.760   7.236   1.974  0.8749  0.2793 -0.3334
   39MOL   C33239168   6.834   7.348   2.023  0.3799  0.3644 -0.0019
   39MOL   C33339169   7.061   7.738   2.071  0.7956 -0.1775  0.0540
   39MOL   C33439170   7.028   7.865   2.120  0.2363 -0.1975 -0.1509
   39MOL   C33539171   6.878   0.255   2.300  0.2254 -0.2573  0.5324
   39MOL   C33639172   6.925   0.385   2.305 -0.0464 -0.5735  0.0855
   39MOL   H33739173   7.136   0.582   2.137 -0.3757 -0.0549 -0.5795
   39MOL   H33839174   7.133   0.366   2.020  0.0935  0.3194  1.1017
   39MOL   H33939175   7.032   0.151   2.017  1.0331  1.5728 -0.4629
   39MOL   H34039176   6.745   0.055   2.203 -0.2024  1.0765  0.5513
   39MOL   H34139177   6.686   7.818   2.119 -0.3187 -2.1756  0.6507
   39MOL   H34239178   6.750   7.605   2.038 -0.9916  0.5107  0.0957
   39MOL   H34339179   7.104   7.510   1.958 -0.0523 -0.2584  0.2505
   39MOL   H34439180   7.024   7.404   1.746  0.7395 -0.5190  1.3436
   39MOL   H34539181   6.872   7.206   1.662 -0.7381 -1.3199  1.0721
   39MOL   H34639182   6.677   7.113   1.697  0.2892 -0.3799  0.5601
   39MOL   H34739183   6.553   7.354   1.795 -0.1083  0.1856 -0.9744
   39MOL   H34839184   6.311   7.397   1.812  1.4125  0.4133 -2.6334
   39MOL   H34939185   6.074   7.105   1.940 -1.2441 -0.7335 -1.5248
   39MOL   H35039186   6.064   7.207   1.802 -0.4250  1.7906  0.2386
   39MOL   H35139187   6.264   6.974   1.919 -0.6313  1.9624  2.5508
   39MOL   H35239188   6.505   6.933   1.860  1.3271  0.2839 -1.6741
   39MOL   H35339189   6.681   7.200   2.037  1.8548 -1.3894 -0.0329
   39MOL   H35439190   6.824   7.391   2.121  0.6848 -0.5972  0.4619
   39MOL   H35539191   7.164   7.706   2.058  0.5430 -1.2949  0.7174
   39MOL   H35639192   7.108   7.925   2.162  0.8062 -0.8684 -0.2706
   39MOL   H35739193   6.818   0.228   2.385 -1.1152 -1.3725 -0.7566
   39MOL   H35839194   6.904   0.464   2.376 -0.3076 -0.8032  0.2646
   39MOL   N35939195   6.092   7.300   1.999 -0.1219 -0.3626 -0.3341
   39MOL   C36039196   5.961   7.334   2.031 -0.2614 -0.2983 -0.4904
   39MOL   C36139197   5.920   7.473   2.035  0.2662  0.5624  0.3765
   39MOL   C36239198   5.781   7.499   2.051  0.5299 -0.1229 -0.8144
   39MOL   C36339199   5.687   7.401   2.077  0.0653 -0.0290 -0.7268
   39MOL   N36439200   5.550   7.424   2.099 -0.3563  0.4826  0.1311
   39MOL   C36539201   5.488   7.540   2.149 -0.7757 -0.0217 -0.4605
   39MOL   C36639202   5.556   7.628   2.234  0.6396  0.4339 -0.3353
   39MOL   C36739203   5.493   7.742   2.278  0.0506  0.7509  0.4092
   39MOL   C36839204   5.360   7.768   2.251  1.0134 -0.0082  0.5554
   39MOL   N36939205   5.301   7.877   2.309 -0.1551 -0.7143  0.3234
   39MOL   C37039206   5.353   0.017   2.340 -0.7030 -0.0308  0.3064
   39MOL   C37139207   5.303   0.082   2.455 -0.1446 -0.4895 -0.5902
   39MOL   C37239208   5.342   0.212   2.486  0.2742  0.2779  0.4328
   39MOL   C37339209   5.444   0.275   2.414  0.0848 -0.6852  0.2608
   39MOL   N37439210   5.477   0.409   2.441  0.0110  0.0529  0.0221
   39MOL   C37539211   5.529   0.499   2.346  0.9362  0.7321 -0.1955
   39MOL   C37639212   5.633   0.593   2.378  0.6665 -0.4409  0.0565
   39MOL   C37739213   5.679   0.674   2.276  0.4919 -0.8220  0.0787
   39MOL   C37839214   5.618   0.670   2.146 -0.8413 -0.4292 -0.0020
   39MOL   C37939215   5.685   0.764   2.048  0.3932 -0.0362  0.0560
   39MOL   C38039216   5.515   0.580   2.117 -0.4415 -0.9831  0.5754
   39MOL   C38139217   5.471   0.498   2.218 -0.4773  0.4286  0.4331
   39MOL   C38239218   5.521   0.198   2.323 -0.3467  0.3027 -0.7120
   39MOL   C38339219   5.470   0.069   2.279 -0.2229 -0.2796 -0.6436
   39MOL   C38439220   5.283   7.678   2.169 -0.1943 -0.1072 -0.1405
   39MOL   C38539221   5.348   7.556   2.126  0.1367  0.2736  0.3119
   39MOL   C38639222   5.730   7.266   2.076  0.3292 -0.0177  0.4002
   39MOL   C38739223   5.869   7.230   2.052  0.8018  0.2161 -0.1732
   39MOL   H38839224   6.160   7.373   1.982  0.8432 -1.6423 -2.0794
   39MOL   H38939225   5.997   7.548   2.029 -1.1432  2.1764  2.0802
   39MOL   H39039226   5.757   7.604   2.058 -0.9405 -0.6172  2.6639
   39MOL   H39139227   5.497   7.339   2.084  0.6297  0.2546 -2.3089
   39MOL   H39239228   5.654   7.607   2.274  0.1314 -1.5749 -0.0925
   39MOL   H39339229   5.544   7.805   2.349  0.9744  2.4583 -1.7053
   39MOL   H39439230   5.206   7.856   2.335 -0.2622 -0.4799  0.1225
   39MOL   H39539231   5.228   0.036   2.519  0.1441  0.3664  0.3726
   39MOL   H39639232   5.297   0.276   2.560 -1.4992  1.0555 -1.2782
   39MOL   H39739233   5.482   0.431   2.540 -0.3798  1.2250 -0.2066
   39MOL   H39839234   5.673   0.581   2.477  0.9558 -1.3888 -0.1747
   39MOL   H39939235   5.759   0.744   2.297  0.3153  0.6247 -3.7577
   39MOL   H40039236   5.693   0.723   1.947  0.9139 -0.4831  0.2790
   39MOL   H40139237   5.788   0.784   2.076  0.6303 -2.0667  0.7169
   39MOL   H40239238   5.475   0.571   2.017 -0.7373  2.9794  0.2553
   39MOL   H40339239   5.390   0.430   2.200  0.3183 -0.5657  0.5744
   39MOL   H40439240   5.605   0.239   2.268 -0.8612  0.0578 -1.6802
   39MOL   H40539241   5.526   0.009   2.209  1.5392  0.8121 -0.2065
   39MOL   H40639242   5.179   7.694   2.144 -0.4970 -0.8993  0.5974
   39MOL   H40739243   5.287   7.493   2.063 -1.9779  0.6253  1.9677
   39MOL   H40839244   5.663   7.182   2.090  0.5976 -0.0559  1.5056
   39MOL   H40939245   5.890   7.124   2.059  1.4797  0.2120 -1.9815
   39MOL   N41039246   5.607   0.885   2.027  0.7973  0.5660 -0.6380
   39MOL   C41139247   5.681   0.999   2.037 -0.8705  0.2171  0.3959
   39MOL   C41239248   5.656   1.090   2.141  0.4423  0.3543  0.5942
   39MOL   C41339249   5.738   1.207   2.151 -0.1495  0.3743 -0.0131
   39MOL   C41439250   5.838   1.237   2.052 -0.3650 -0.2473 -0.6562
   39MOL   N41539251   5.917   1.349   2.063  0.1153 -0.3741 -0.8645
   39MOL   C41639252   5.951   1.437   1.956 -0.4723 -0.0538 -0.1918
   39MOL   C41739253   6.037   1.542   1.978  0.0930 -0.0114  0.2167
   39MOL   C41839254   6.063   1.642   1.883  1.0330 -0.3909  0.0315
   39MOL   C41939255   5.993   1.636   1.764 -0.1709 -0.0528 -0.8596
   39MOL   N42039256   6.005   1.739   1.666  0.0427  0.3560 -0.3074
   39MOL   C42139257   6.129   1.797   1.630 -0.2953  0.8174  0.1963
   39MOL   C42239258   6.130   1.942   1.618 -0.0085 -0.0533 -0.1058
   39MOL   C42339259   6.252   2.004   1.586  0.4321 -0.7961  0.1060
   39MOL   C42439260   6.364   1.926   1.540  0.0970  0.8151  0.0978
   39MOL   N42539261   6.490   1.981   1.512 -0.5086 -0.4575  0.0486
   39MOL   C42639262   6.542   2.106   1.553 -0.7794 -0.4908 -0.0035
   39MOL   C42739263   6.620   2.187   1.470 -0.6043 -0.0286 -0.1261
   39MOL   C42839264   6.664   2.317   1.508  0.3309 -0.5219 -0.0709
   39MOL   C42939265   6.628   2.366   1.635 -0.6110  0.0822  0.3610
   39MOL   C43039266   6.668   2.497   1.694  0.2748  0.3633  0.0241
   39MOL   C43139267   6.553   2.285   1.723  0.0225 -0.7986 -0.5152
   39MOL   C43239268   6.507   2.162   1.684  0.8016  0.3104  0.1995
   39MOL   C43339269   6.357   1.788   1.559 -0.3162 -0.1233  0.2106
   39MOL   C43439270   6.244   1.719   1.602 -0.3965 -0.7222 -0.6013
   39MOL   C43539271   5.908   1.530   1.735  0.8256 -0.7075  0.3423
   39MOL   C43639272   5.888   1.429   1.830 -0.3049 -0.6010 -0.1754
   39MOL   C43739273   5.858   1.142   1.950 -0.2575 -0.9677 -0.0906
   39MOL   C43839274   5.778   1.032   1.944  0.0874  0.1975  0.1996
   39MOL   H43939275   5.524   0.873   2.082  1.3181 -1.3916 -0.2386
   39MOL   H44039276   5.579   1.057   2.210 -1.7405 -2.4793 -3.0375
   39MOL   H44139277   5.715   1.271   2.235  0.3546  1.0299 -0.3670
   39MOL   H44239278   5.950   1.356   2.159 -0.0186 -1.8974 -0.6963
   39MOL   H44339279   6.082   1.556   2.075 -0.8905  1.9233  0.4227
   39MOL   H44439280   6.122   1.731   1.900  0.9293 -0.4817  0.8560
   39MOL   H44539281   5.946   1.738   1.584 -0.2804  0.0447 -0.0709
   39MOL   H44639282   6.040   2.001   1.627  0.1646  0.0309  1.0728
   39MOL   H44739283   6.261   2.111   1.578 -0.2947 -0.7538 -0.1640
   39MOL   H44839284   6.556   1.925   1.459  0.8500 -1.7453  3.0060
   39MOL   H44939285   6.650   2.148   1.373 -0.9892 -1.7923  0.4564
   39MOL   H45039286   6.728   2.373   1.443  1.0247 -0.4732  0.6519
   39MOL   H45139287   6.773   2.515   1.670  0.1715  0.1304 -0.6093
   39MOL   H45239288   6.650   2.491   1.801 -2.3198 -2.1060 -0.4805
   39MOL   H45339289   6.525   2.321   1.821  1.3978 -0.7016 -0.1449
   39MOL   H45439290   6.455   2.110   1.763  2.6220 -1.8553  0.0090
   39MOL   H45539291   6.445   1.728   1.541  0.2827  0.8030 -0.0158
   39MOL   H45639292   6.250   1.613   1.622  0.2233 -0.1631  2.5416
   39MOL   H45739293   5.856   1.533   1.641  0.0071 -2.3174  0.7261
   39MOL   H45839294   5.826   1.349   1.792 -0.0569 -0.8158 -0.1287
   39MOL   H45939295   5.939   1.157   1.879 -0.3270 -0.1237  0.0010
   39MOL   H46039296   5.801   0.954   1.872  0.9418  0.9643 -0.3619
   39MOL   N46139297   6.590   2.609   1.631  0.6565 -0.1009 -0.5090
   39MOL   C46239298   6.566   2.732   1.699  0.1017 -0.4949 -0.6123
   39MOL   C46339299   6.546   2.849   1.618 -0.3441  0.5870  0.5398
   39MOL   C46439300   6.522   2.977   1.672  0.1882  0.4928  0.1939
   39MOL   C46539301   6.509   2.991   1.807  0.1584 -0.4102  0.9852
   39MOL   N46639302   6.475   3.120   1.850 -0.3121  0.1129 -0.1188
   39MOL   C46739303   6.480   3.178   1.975  0.3277 -0.2554  0.6642
   39MOL   C46839304   6.381   3.283   2.000  0.6097 -1.1384 -0.0510
   39MOL   C46939305   6.384   3.353   2.125 -0.1744 -0.1312  0.2782
   39MOL   C47039306   6.474   3.318   2.226  0.3617  1.1334 -0.0248
   39MOL   N47139307   6.470   3.393   2.345 -0.0400  0.1475 -0.2110
   39MOL   C47239308   6.566   3.414   2.449 -0.6957 -0.1173 -0.8517
   39MOL   C47339309   6.510   3.453   2.569  0.0766  0.3593  0.0979
   39MOL   C47439310   6.590   3.492   2.679 -0.1700  0.3250  0.2035
   39MOL   C47539311   6.731   3.497   2.666  0.6368 -0.4193  0.3469
   39MOL   N47639312   6.815   3.536   2.768  0.1371 -0.6299 -0.1945
   39MOL   C47739313   6.805   3.497   2.907  0.4914 -0.0102  0.4099
   39MOL   C47839314   6.887   3.563   3.007  1.3772  0.4109  0.1385
   39MOL   C47939315   6.863   3.546   3.141 -0.1319 -0.0869 -0.6566
   39MOL   C48039316   6.766   3.452   3.184 -0.8154  0.6381 -0.2511
   39MOL   C48139317   6.731   3.444   3.330  0.5819 -0.1134 -0.7953
   39MOL   C48239318   6.694   3.380   3.086  0.6793 -0.2333 -0.1679
   39MOL   C48339319   6.715   3.395   2.947  0.0099 -0.0109 -1.2344
   39MOL   C48439320   6.786   3.460   2.538  0.2363 -0.3515 -0.3039
   39MOL   C48539321   6.704   3.434   2.424  0.4550 -0.1716  0.5048
   39MOL   C48639322   6.567   3.222   2.204  0.0434 -0.0857 -0.1018
   39MOL   C48739323   6.572   3.153   2.077 -0.0963  0.2149 -0.3328
   39MOL   C48839324   6.520   2.881   1.888 -0.6866  0.2393  0.6666
   39MOL   C48939325   6.555   2.754   1.840 -0.8387  0.0954 -0.4543
   39MOL   H49039326   6.613   2.619   1.533  0.9205  2.7773 -0.2095
   39MOL   H49139327   6.541   2.843   1.510  0.1938 -2.2569  0.6262
   39MOL   H49239328   6.535   3.062   1.605  2.3281 -0.7042 -0.9708
   39MOL   H49339329   6.405   3.155   1.786 -0.2894 -1.6553 -1.1353
   39MOL   H49439330   6.316   3.323   1.924 -0.1716 -2.1572  0.0710
   39MOL   H49539331   6.310   3.428   2.145  0.5783  0.0941  2.3336
   39MOL   H49639332   6.380   3.436   2.363 -0.2060 -0.3245  0.0919
   39MOL   H49739333   6.403   3.450   2.582 -0.0565 -0.7120 -1.2579
   39MOL   H49839334   6.545   3.512   2.775 -0.0703  0.1050  0.2971
   39MOL   H49939335   6.878   3.607   2.733 -0.2696 -0.2631 -0.1814
   39MOL   H50039336   6.965   3.633   2.983  2.8092 -1.3562 -0.5128
   39MOL   H50139337   6.905   3.607   3.219  0.0546  0.7489 -1.3985
   39MOL   H50239338   6.632   3.487   3.349  0.3708 -0.8539 -0.1798
   39MOL   H50339339   6.811   3.493   3.385 -0.5473  1.3212 -0.3880
   39MOL   H50439340   6.624   3.304   3.117  0.3667  0.0161 -0.2556
   39MOL   H50539341   6.655   3.341   2.874  0.8809 -2.1841 -0.3935
   39MOL   H50639342   6.893   3.458   2.523  0.4364 -1.2775  1.1676
   39MOL   H50739343   6.754   3.418   2.330 -0.5261  1.1063 -0.2421
   39MOL   H50839344   6.629   3.196   2.288 -2.9737 -2.8807  1.3936
   39MOL   H50939345   6.646   3.077   2.058 -0.8699 -0.8679  0.9177
   39MOL   H51039346   6.492   2.889   1.992 -1.4427  0.4557  0.4521
   39MOL   H51139347   6.568   2.667   1.902 -2.2271 -1.9159 -2.8915
   39MOL   N51239348   6.730   3.310   3.377 -0.1952  0.2089  0.1739
   39MOL   C51339349   6.664   3.260   3.483  0.0211  0.0487 -0.3469
   39MOL   C51439350   6.614   3.354   3.574  0.2744 -0.1155 -0.1460
   39MOL   C51539351   6.556   3.313   3.693  0.1639 -0.2931  0.2414
   39MOL   C51639352   6.522   3.179   3.716 -0.2628  0.4296  0.1956
   39MOL   N51739353   6.449   3.139   3.829  0.4567 -0.6437 -0.3681
   39MOL   C51839354   6.419   3.009   3.868 -0.3322 -0.2608 -0.9163
   39MOL   C51939355   6.516   2.908   3.880  0.3939 -0.2247 -0.2847
   39MOL   C52039356   6.493   2.784   3.943 -0.9692 -0.1997 -0.5157
   39MOL   C52139357   6.365   2.749   3.986 -0.4322  0.1512 -0.0071
   39MOL   N52239358   6.345   2.625   4.057  0.3299 -0.8880  0.3407
   39MOL   C52339359   6.357   2.497   4.006 -0.0070 -0.9631  0.6756
   39MOL   C52439360   6.289   2.464   3.888  0.0594 -0.6546 -0.5787
   39MOL   C52539361   6.300   2.335   3.839 -0.5488 -0.2396 -0.0813
   39MOL   C52639362   6.358   2.234   3.915 -0.6578  0.6834  0.0915
   39MOL   N52739363   6.367   2.099   3.881  0.3279  0.4251  0.1065
   39MOL   C52839364   6.329   2.025   3.770 -0.1292 -0.2158 -1.6310
   39MOL   C52939365   6.328   1.886   3.791 -0.8963  0.5944  0.3866
   39MOL   C53039366   6.299   1.795   3.694  1.2775  0.1538  0.6228
   39MOL   C53139367   6.287   1.839   3.562 -0.4050 -0.0961 -0.1143
   39MOL   C53239368   6.288   1.736   3.454 -0.0917  0.4457 -0.4679
   39MOL   C53339369   6.287   1.977   3.541  0.2499  0.5492  0.7273
   39MOL   C53439370   6.315   2.078   3.639 -0.2597  0.1991  0.5370
   39MOL   C53539371   6.423   2.269   4.036 -0.4003  0.5842 -0.6170
   39MOL   C53639372   6.417   2.400   4.084 -0.5257 -0.5471 -0.1430
   39MOL   C53739373   6.268   2.852   3.975  0.3716 -0.0580  0.3074
   39MOL   C53839374   6.293   2.981   3.921 -0.1974 -0.0194  0.7306
   39MOL   C53939375   6.559   3.082   3.616 -0.0576 -0.2130 -0.2982
   39MOL   C54039376   6.642   3.125   3.502 -0.0534  0.0514 -0.2776
   39MOL   H54139377   6.763   3.251   3.301  0.1699 -3.1622  2.8236
   39MOL   H54239378   6.620   3.461   3.562 -1.2626  0.2095  1.6835
   39MOL   H54339379   6.537   3.383   3.773  0.5722  1.5241 -1.2115
   39MOL   H54439380   6.378   3.209   3.846  1.5314  0.3709  0.0678
   39MOL   H54539381   6.618   2.934   3.857  1.5229 -2.3934  2.0617
   39MOL   H54639382   6.573   2.715   3.966 -0.7344  0.6974  1.5240
   39MOL   H54739383   6.262   2.613   4.113 -1.0555  0.5786 -1.3733
   39MOL   H54839384   6.251   2.550   3.834 -1.8649 -1.9798 -1.3915
   39MOL   H54939385   6.257   2.320   3.742 -1.6109  0.3206  0.2939
   39MOL   H55039386   6.437   2.053   3.937  1.9010  2.7151  0.0918
   39MOL   H55139387   6.353   1.844   3.887  0.0489  0.0901 -0.0724
   39MOL   H55239388   6.286   1.692   3.722  1.6589  0.1146  0.6640
   39MOL   H55339389   6.234   1.649   3.492  0.2789  0.5872  0.3925
   39MOL   H55439390   6.395   1.715   3.448 -0.3613 -1.2960  0.3635
   39MOL   H55539391   6.286   2.011   3.439 -1.7124 -2.2957 -0.2768
   39MOL   H55639392   6.327   2.181   3.610 -0.2798  0.4252  1.3212
   39MOL   H55739393   6.479   2.197   4.094 -1.0896 -1.8297 -2.8426
   39MOL   H55839394   6.463   2.421   4.179  1.1215  0.4448 -1.1270
   39MOL   H55939395   6.167   2.839   4.010  1.0205 -2.0241  1.5761
   39MOL   H56039396   6.220   3.060   3.912 -2.4596 -1.9761  1.5636
   39MOL   H56139397   6.514   2.984   3.608 -0.1407 -0.1523 -0.5819
   39MOL   H56239398   6.664   3.056   3.422 -0.7652 -0.8715  0.3190
   39MOL   N56339399   6.245   1.782   3.325 -0.1823 -0.0601 -0.3403
   39MOL   C56439400   6.114   1.760   3.287  0.9023  0.1188  0.2921
   39MOL   C56539401   6.097   1.737   3.153 -0.1650  0.2679 -0.1604
   39MOL   C56639402   5.963   1.716   3.105  0.1476 -0.1164  0.1530
   39MOL   C56739403   5.853   1.721   3.196 -0.4582 -0.5536  0.2507
   39MOL   N56839404   5.717   1.688   3.165 -0.3963  0.5756 -0.5050
   39MOL   C56939405   5.679   1.619   3.055  0.0079  0.5760  0.7241
   39MOL   C57039406   5.686   1.676   2.929 -0.3213 -0.7611  0.0790
   39MOL   C57139407   5.642   1.606   2.812 -0.0386 -0.1428  0.2279
   39MOL   C57239408   5.590   1.479   2.824  0.0392 -0.3124  0.0366
   39MOL   N57339409   5.545   1.407   2.713  0.1909  0.5222 -0.0405
   39MOL   C57439410   5.457   1.444   2.607 -0.8924 -0.5413  0.1112
   39MOL   C57539411   5.370   1.555   2.618  0.2569 -0.9163  0.2968
   39MOL   C57639412   5.256   1.567   2.531 -0.3777  0.2117  0.5341
   39MOL   C57739413   5.245   1.474   2.419  0.5458 -0.3564 -0.2282
   39MOL   N57839414   5.135   1.479   2.333 -0.3659  0.1196 -0.1469
   39MOL   C57939415   5.073   1.596   2.300 -0.0563 -0.0438  0.1939
   39MOL   C58039416   5.085   1.647   2.170  0.1236  0.4131 -0.3653
   39MOL   C58139417   5.029   1.769   2.128 -0.8787 -0.3670 -0.1195
   39MOL   C58239418   4.951   1.837   2.225  0.4284  0.1948 -0.2017
   39MOL   C58339419   4.891   1.973   2.181  0.1309  0.6952  0.1371
   39MOL   C58439420   4.929   1.781   2.350 -0.4968  0.0887  0.1817
   39MOL   C58539421   4.982   1.661   2.386 -0.2843  0.0592 -0.2810
   39MOL   C58639422   5.342   1.370   2.407 -0.3412 -0.0804  0.4823
   39MOL   C58739423   5.454   1.358   2.496 -0.2911  0.0568 -0.4218
   39MOL   C58839424   5.587   1.417   2.951 -0.0944 -0.0433 -0.4303
   39MOL   C58939425   5.637   1.482   3.066 -0.3492  0.2867  0.1592
   39MOL   C59039426   5.876   1.768   3.330 -0.6367  0.2954 -0.4139
   39MOL   C59139427   6.008   1.787   3.371 -0.5417  0.3475  0.1154
   39MOL   H59239428   6.316   1.758   3.257  0.6653  0.6660  0.2760
   39MOL   H59339429   6.185   1.725   3.093  0.5616  2.1664  0.5020
   39MOL   H59439430   5.945   1.694   3.001 -0.8720  2.0106 -0.1406
   39MOL   H59539431   5.661   1.656   3.243 -0.2207  1.0793 -0.1682
   39MOL   H59639432   5.718   1.779   2.925  1.9029 -1.4123  0.4721
   39MOL   H59739433   5.646   1.646   2.712 -0.5111  0.4931  0.4609
   39MOL   H59839434   5.555   1.307   2.711  1.6586  0.6372  0.6128
   39MOL   H59939435   5.377   1.625   2.699 -0.9044  0.3982 -0.7013
   39MOL   H60039436   5.198   1.658   2.535  1.4365  1.5214 -1.7143
   39MOL   H60139437   5.135   1.411   2.258 -0.6251 -1.3582  1.1598
   39MOL   H60239438   5.145   1.598   2.094  1.4767 -1.7171  2.0238
   39MOL   H60339439   5.045   1.811   2.030  1.6114  1.5642  1.0672
   39MOL   H60439440   4.821   2.007   2.258  1.6410 -0.8628  2.2394
   39MOL   H60539441   4.833   1.974   2.088  0.6106  0.7970 -0.1604
   39MOL   H60639442   4.867   1.835   2.420 -2.6434 -0.1090 -1.5354
   39MOL   H60739443   4.966   1.636   2.490  1.1197  3.8863  0.9367
   39MOL   H60839444   5.338   1.301   2.324 -0.9700 -1.3658  1.5830
   39MOL   H60939445   5.523   1.279   2.469 -2.5130 -1.3148 -2.3285
   39MOL   H61039446   5.547   1.316   2.955 -0.6647  0.2080  0.4435
   39MOL   H61139447   5.634   1.415   3.151  1.4992 -1.9967 -1.5247
   39MOL   H61239448   5.794   1.784   3.399 -0.9085  1.1639 -0.9360
   39MOL   H61339449   6.027   1.820   3.472  0.8999  1.1642 -0.4059
   39MOL   N61439450   4.994   2.071   2.163 -0.0970 -0.1256 -0.0817
   39MOL   C61539451   4.962   2.206   2.152 -0.3527  0.1913 -0.2984
   39MOL   C61639452   5.057   2.298   2.193  0.1688  0.4864 -0.1067
   39MOL   C61739453   5.035   2.435   2.182 -0.1989  0.0222 -0.1203
   39MOL   C61839454   4.910   2.484   2.139 -0.0927  0.0828 -0.0492
   39MOL   N61939455   4.901   2.623   2.116 -0.2042 -0.5259 -0.4601
   39MOL   C62039456   4.837   2.699   2.017 -0.0337 -0.0445  0.2502
   39MOL   C62139457   4.822   2.838   2.033 -0.6313 -0.4528 -0.1714
   39MOL   C62239458   4.758   2.916   1.933 -0.0731  0.1550 -0.0959
   39MOL   C62339459   4.712   2.853   1.812  0.2043 -0.6909  1.2579
   39MOL   N62439460   4.644   2.922   1.710  0.0291 -0.1481  0.5596
   39MOL   C62539461   4.561   3.034   1.731  0.1188 -0.0510 -0.1918
   39MOL   C62639462   4.485   3.051   1.845 -0.9916 -0.7111  0.2686
   39MOL   C62739463   4.396   3.164   1.847 -0.2637 -0.0273 -0.0444
   39MOL   C62839464   4.389   3.260   1.742  0.5298 -0.3670 -0.2409
   39MOL   N62939465   4.298   3.363   1.740  0.4869  0.7815  0.0232
   39MOL   C63039466   4.163   3.348   1.736  0.0225 -0.8879 -0.3861
   39MOL   C63139467   4.073   3.460   1.763  0.2211 -0.7117  0.1683
   39MOL   C63239468   3.933   3.444   1.755  0.3412 -0.5173 -0.0252
   39MOL   C63339469   3.878   3.316   1.738 -0.1366 -0.5020 -0.3437
   39MOL   C63439470   3.723   3.305   1.757 -0.2452 -0.2995  0.3570
   39MOL   C63539471   3.963   3.209   1.709  0.2992 -0.1548 -0.4522
   39MOL   C63639472   4.105   3.225   1.717  0.0948  0.2580  0.1955
   39MOL   C63739473   4.477   3.244   1.632 -0.2139 -0.1537 -0.8516
   39MOL   C63839474   4.566   3.134   1.636 -0.6305  0.0063 -0.3762
   39MOL   C63939475   4.741   2.718   1.788 -0.1698 -0.4438  0.3374
   39MOL   C64039476   4.807   2.643   1.890  0.4470 -0.3714  0.2482
   39MOL   C64139477   4.814   2.391   2.098 -0.5654 -1.3048 -0.8379
   39MOL   C64239478   4.840   2.254   2.106 -0.1049 -0.4187  0.4799
   39MOL   H64339479   5.086   2.040   2.191 -0.3366  0.8795  1.8573
   39MOL   H64439480   5.156   2.262   2.220  0.7562  1.4782 -0.9245
   39MOL   H64539481   5.119   2.496   2.214 -1.8995  0.9908  2.6723
   39MOL   H64639482   4.963   2.678   2.174 -0.2476  1.6584 -2.4561
   39MOL   H64739483   4.850   2.887   2.125 -0.5319 -1.7443  0.5016
   39MOL   H64839484   4.733   3.019   1.950 -1.2889 -0.2272  0.4640
   39MOL   H64939485   4.653   2.886   1.617 -2.1898 -1.9200  1.0111
   39MOL   H65039486   4.491   2.980   1.925  2.4871 -2.2613 -1.2309
   39MOL   H65139487   4.325   3.174   1.928 -0.2389  0.8466 -0.1269
   39MOL   H65239488   4.339   3.447   1.779  0.4307 -0.1263  2.1135
   39MOL   H65339489   4.114   3.553   1.799 -0.9289  0.2778 -1.0619
   39MOL   H65439490   3.873   3.533   1.761 -2.4677 -2.3569  0.0740
   39MOL   H65539491   3.709   3.198   1.772  3.1365 -0.8492  0.1636
   39MOL   H65639492   3.674   3.336   1.665  2.1761  1.2311 -0.4556
   39MOL   H65739493   3.915   3.114   1.695 -0.0150  0.0685 -0.9005
   39MOL   H65839494   4.161   3.134   1.704 -0.7177 -0.0954 -0.9637
   39MOL   H65939495   4.480   3.310   1.547 -0.5462 -0.6357 -1.2399
   39MOL   H66039496   4.636   3.130   1.554  1.4264  0.7899  1.3097
   39MOL   H66139497   4.730   2.673   1.690  2.2410  0.0971 -0.2147
   39MOL   H66239498   4.838   2.540   1.880  2.2461 -0.1573  3.0506
   39MOL   H66339499   4.721   2.422   2.052 -0.7741 -1.3135 -0.4344
   39MOL   H66439500   4.772   2.180   2.067 -0.1470 -0.6086  0.9055
   39MOL   N66539501   3.671   3.393   1.857 -0.1774 -0.4861 -0.5712
   39MOL   C66639502   3.532   3.391   1.873  0.0742  0.3274 -0.1068
   39MOL   C66739503   3.478   3.513   1.914  0.4935  0.5246  1.2045
   39MOL   C66839504   3.339   3.533   1.935  0.6648 -0.0713  0.4847
   39MOL   C66939505   3.250   3.422   1.897 -0.5859 -0.0413  0.2109
   39MOL   N67039506   3.114   3.416   1.912 -0.8432  0.3027  0.2465
   39MOL   C67139507   3.026   3.513   1.948 -0.3726  0.1291 -0.1975
   39MOL   C67239508   3.042   3.649   1.906  0.7703  0.1425 -0.0349
   39MOL   C67339509   2.926   3.728   1.918  0.1238  0.4140  0.3832
   39MOL   C67439510   2.802   3.676   1.971 -0.2563 -0.9978 -0.5659
   39MOL   N67539511   2.700   3.761   1.994  0.1164  0.1562 -0.3300
   39MOL   C67639512   2.643   3.795   2.125 -0.6552 -0.4935 -0.0895
   39MOL   C67739513   2.510   3.843   2.137  0.0346  0.4484  0.1170
   39MOL   C67839514   2.459   3.883   2.265  0.1583 -0.2073 -0.3247
   39MOL   C67939515   2.538   3.868   2.377 -0.6572  0.5374  0.2004
   39MOL   N68039516   2.495   3.892   2.507  0.0836 -0.5333 -0.0381
   39MOL   C68139517   2.393   3.982   2.541 -0.4957 -0.3467 -0.1845
   39MOL   C68239518   2.411   4.123   2.525 -0.3028  0.6177 -0.0942
   39MOL   C68339519   2.315   4.218   2.558 -0.9845  0.0594  0.0980
   39MOL   C68439520   2.201   4.170   2.628 -0.8111 -0.4475  0.9681
   39MOL   C68539521   2.101   4.267   2.684 -0.5491 -0.3836  0.1168
   39MOL   C68639522   2.176   4.033   2.642 -0.4095 -0.0014 -0.4896
   39MOL   C68739523   2.275   3.937   2.602 -0.0429  1.0873 -0.1298
   39MOL   C68839524   2.667   3.811   2.365  0.0449 -0.8582  0.2176
   39MOL   C68939525   2.725   3.783   2.241 -0.3928  0.6677 -1.2267
   39MOL   C69039526   2.793   3.545   2.010  0.2212 -0.0775  0.2092
   39MOL   C69139527   2.906   3.466   2.005  0.7793 -0.0825  0.0654
   39MOL   C69239528   3.303   3.309   1.840  0.2470  0.5214  0.7418
   39MOL   C69339529   3.439   3.296   1.832 -0.3675  0.6733 -0.3118
   39MOL   H69439530   3.710   3.486   1.859 -1.6229  0.1178 -0.0977
   39MOL   H69539531   3.540   3.599   1.933  1.0160  0.1983  0.9783
   39MOL   H69639532   3.306   3.630   1.973  2.0140  0.8848 -0.7451
   39MOL   H69739533   3.066   3.328   1.905 -1.7600  0.7189  1.2048
   39MOL   H69839534   3.127   3.688   1.852  0.7009 -2.5920 -2.2693
   39MOL   H69939535   2.933   3.826   1.874  2.7605 -0.3662 -1.0038
   39MOL   H70039536   2.687   3.826   1.918  0.9285 -1.4847 -1.8951
   39MOL   H70139537   2.451   3.842   2.046 -2.5473 -0.5890  1.7385
   39MOL   H70239538   2.359   3.924   2.266  0.6960  1.1534  2.7442
   39MOL   H70339539   2.560   3.867   2.580 -1.9503 -0.9353  1.6816
   39MOL   H70439540   2.491   4.166   2.465 -0.1895 -0.1618 -0.5113
   39MOL   H70539541   2.331   4.322   2.534 -0.2842 -0.3951 -1.4818
   39MOL   H70639542   2.145   4.366   2.692  0.2450 -0.7928  0.7894
   39MOL   H70739543   2.089   4.238   2.788 -1.3430 -3.3770 -0.7688
   39MOL   H70839544   2.088   3.996   2.691  1.0250 -0.1569  2.0579
   39MOL   H70939545   2.258   3.832   2.624  2.2341  0.7756  0.2677
   39MOL   H71039546   2.740   3.810   2.444  0.8152  0.1696 -0.4573
   39MOL   H71139547   2.818   3.729   2.237 -0.2814  0.7542 -0.0479
   39MOL   H71239548   2.702   3.505   2.051  1.0019 -1.1089  0.9832
   39MOL   H71339549   2.899   3.359   2.021  0.6162 -0.0411  0.2727
   39MOL   H71439550   3.240   3.226   1.809  0.6397  1.2485 -2.0476
   39MOL   H71539551   3.468   3.207   1.778 -0.7361 -0.1604  0.8374
   39MOL   N71639552   1.974   4.274   2.612 -0.2818  0.4958  0.1534
   39MOL   C71739553   1.875   4.175   2.617  0.2100 -0.5175 -0.4785
   39MOL   C71839554   1.793   4.155   2.502 -0.1707  0.0571 -0.1293
   39MOL   C71939555   1.691   4.064   2.506 -0.2723  0.9895  0.5325
   39MOL   C72039556   1.684   3.972   2.616  0.2039 -0.2521 -0.0653
   39MOL   N72139557   1.568   3.890   2.631  0.4067 -0.5855 -0.0023
   39MOL   C72239558   1.559   3.760   2.689 -0.3455 -0.1676  0.1754
   39MOL   C72339559   1.424   3.714   2.690 -0.3899  0.9144 -0.8682
   39MOL   C72439560   1.402   3.580   2.728  0.1940 -0.5858 -0.9965
   39MOL   C72539561   1.509   3.490   2.764  0.5691  0.0423  0.0867
   39MOL   N72639562   1.492   3.352   2.778  0.3480 -0.2353  0.3742
   39MOL   C72739563   1.367   3.287   2.759 -0.1701  0.1469  0.2177
   39MOL   C72839564   1.309   3.291   2.634  0.0865  0.7412 -0.0576
   39MOL   C72939565   1.187   3.226   2.614 -0.6576  0.3719  0.4356
   39MOL   C73039566   1.125   3.164   2.718 -0.0403 -0.7901 -0.5470
   39MOL   N73139567   1.007   3.097   2.681  0.0708  0.3901  0.3377
   39MOL   C73239568   0.888   3.084   2.759  0.2057  0.7796 -0.7546
   39MOL   C73339569   0.867   3.163   2.873 -0.0811  0.1765  0.5300
   39MOL   C73439570   0.745   3.154   2.944  0.3007  0.3683 -0.0413
   39MOL   C73539571   0.656   3.057   2.907  0.0544 -0.3638 -0.1837
   39MOL   C73639572   0.529   3.044   2.984 -0.1268 -0.3588  0.9645
   39MOL   C73739573   0.677   2.973   2.793  0.1141 -0.2701 -0.4339
   39MOL   C73839574   0.793   2.990   2.721 -0.4388  0.6364 -0.1189
   39MOL   C73939575   1.186   3.152   2.842 -0.6757  0.0021 -0.4116
   39MOL   C74039576   1.312   3.211   2.859 -0.5299  0.4897 -0.1921
   39MOL   C74139577   1.637   3.542   2.772  0.5554  0.2992  0.3122
   39MOL   C74239578   1.665   3.676   2.733  0.1235  0.6386 -0.3657
   39MOL   C74339579   1.766   3.989   2.727  0.0506 -0.7040 -0.3030
   39MOL   C74439580   1.858   4.097   2.730  0.1655 -0.2540 -1.2309
   39MOL   H74539581   1.977   4.324   2.524 -1.1059 -0.3031 -0.3357
   39MOL   H74639582   1.803   4.227   2.423 -0.8854  0.5816  0.2460
   39MOL   H74739583   1.629   4.060   2.417 -1.3806  2.7082  1.2028
   39MOL   H74839584   1.492   3.912   2.570  0.3248  0.2381  0.3817
   39MOL   H74939585   1.341   3.774   2.656 -1.3790 -0.9212 -1.7103
   39MOL   H75039586   1.300   3.548   2.711 -0.2995  0.9821 -1.1520
   39MOL   H75139587   1.564   3.305   2.832 -0.5641 -0.6401  1.2518
   39MOL   H75239588   1.360   3.342   2.553  0.2438  1.0722  0.2468
   39MOL   H75339589   1.142   3.231   2.515 -0.1811 -1.2372  0.1283
   39MOL   H75439590   1.004   3.061   2.587 -1.4017 -1.1764  0.9827
   39MOL   H75539591   0.944   3.233   2.903 -1.0230  0.9453  1.1713
   39MOL   H75639592   0.727   3.218   3.029 -0.5080  1.2434 -0.8629
   39MOL   H75739593   0.541   3.090   3.081 -0.7204 -2.4108  2.0379
   39MOL   H75839594   0.525   2.937   3.005 -1.0397 -0.4537  0.3483
   39MOL   H75939595   0.597   2.903   2.772 -0.1503  0.0098 -0.3640
   39MOL   H76039596   0.813   2.924   2.638 -1.5464 -0.6337  0.6144
   39MOL   H76139597   1.143   3.105   2.929 -0.5035 -0.5414 -0.6193
   39MOL   H76239598   1.354   3.203   2.959  0.5403 -2.0803 -0.8185
   39MOL   H76339599   1.724   3.482   2.793 -0.6569 -1.7398 -0.3333
   39MOL   H76439600   1.766   3.703   2.706 -0.4781 -0.3076 -3.8719
   39MOL   H76539601   1.752   3.925   2.813  2.7464 -2.2976 -0.9957
   39MOL   H76639602   1.909   4.119   2.823 -0.7774  2.0339 -1.2209
   39MOL   N76739603   0.417   3.105   2.912  0.2193  0.2052  0.0603
   39MOL   C76839604   0.282   3.089   2.945  0.3668 -0.3454  0.3663
   39MOL   C76939605   0.222   2.968   3.005 -0.0206  0.2740 -0.2672
   39MOL   C77039606   0.085   2.950   3.027 -0.1572  0.0831  0.2958
   39MOL   C77139607   7.978   3.044   2.967  0.1018 -0.4455  0.0261
   39MOL   N77239608   7.846   3.012   2.957  0.2298 -0.5875  0.4182
   39MOL   C77339609   7.762   3.008   2.845  0.1655  0.2955  0.2327
   39MOL   C77439610   7.811   3.018   2.714  0.0418  0.1097  0.0038
   39MOL   C77539611   7.728   2.981   2.605  0.3740  0.8093  0.4951
   39MOL   C77639612   7.592   2.953   2.622 -0.7622  0.0114  0.6081
   39MOL   N77739613   7.510   2.905   2.520 -0.4078 -0.1151 -0.5121
   39MOL   C77839614   7.525   2.925   2.381  0.8162 -0.0009  0.1224
   39MOL   C77939615   7.457   2.838   2.295 -0.0895 -0.0702  0.0743
   39MOL   C78039616   7.452   2.864   2.158 -0.3025  0.3535  0.4299
   39MOL   C78139617   7.519   2.968   2.103 -0.5788  0.6508  0.2940
   39MOL   N78239618   7.530   2.987   1.965  0.3559  0.0245  0.3317
   39MOL   C78339619   7.496   2.902   1.861  0.1115 -0.3236 -0.4198
   39MOL   C78439620   7.410   2.947   1.761  0.2240 -0.5360  0.2168
   39MOL   C78539621   7.382   2.858   1.654 -0.2650  0.5624  0.5603
   39MOL   C78639622   7.451   2.732   1.634 -0.5886 -0.8484 -0.8105
   39MOL   C78739623   7.421   2.643   1.516  0.5088  0.5858  0.6106
   39MOL   C78839624   7.547   2.694   1.732  0.3298 -0.0095 -0.3057
   39MOL   C78939625   7.567   2.780   1.843 -0.3578  0.5030 -0.3266
   39MOL   C79039626   7.588   3.063   2.188 -0.7865  0.0866  0.6847
   39MOL   C79139627   7.579   3.044   2.325 -0.4588 -0.7219 -0.3106
   39MOL   C79239628   7.541   2.958   2.751 -0.5187 -0.3852 -0.2958
   39MOL   C79339629   7.623   2.984   2.863 -0.3387 -0.4532  0.6395
   39MOL   C79439630   0.046   3.172   2.918  0.0771 -0.0191 -0.0945
   39MOL   C79539631   0.186   3.191   2.914 -0.1448 -0.3638  1.0747
   39MOL   H79639632   0.438   3.171   2.839  0.1105  0.4841  0.2796
   39MOL   H79739633   0.291   2.888   3.030 -0.7413 -0.1255  0.4581
   39MOL   H79839634   0.047   2.855   3.059  0.8723 -1.5922 -3.1958
   39MOL   H79939635   7.801   2.975   3.040  1.1604 -1.9772  0.3319
   39MOL   H80039636   7.911   3.041   2.682 -0.9116  1.0187 -2.4759
   39MOL   H80139637   7.787   2.969   2.516  0.2761  2.3591  0.2128
   39MOL   H80239638   7.430   2.849   2.546 -0.3907  0.2858  0.4325
   39MOL   H80339639   7.409   2.753   2.341 -0.6684 -0.3775 -1.0638
   39MOL   H80439640   7.393   2.793   2.102 -0.6286  2.1694 -1.5806
   39MOL   H80539641   7.520   3.084   1.938 -0.1576 -0.1375 -0.0552
   39MOL   H80639642   7.352   3.038   1.772  2.0802  0.3213  3.8793
   39MOL   H80739643   7.307   2.890   1.583  1.0689  1.8155 -0.3064
   39MOL   H80839644   7.377   2.705   1.438  1.1089  0.8560  0.4833
   39MOL   H80939645   7.344   2.572   1.544 -2.0835  3.0499 -0.1332
   39MOL   H81039646   7.598   2.599   1.731  0.4516  0.0093  1.9370
   39MOL   H81139647   7.638   2.754   1.920 -0.7433 -0.8530 -0.4174
   39MOL   H81239648   7.635   3.153   2.152 -0.3085 -0.5710 -0.3658
   39MOL   H81339649   7.617   3.117   2.395 -0.3148 -1.0322 -0.0662
   39MOL   H81439650   7.436   2.933   2.765 -0.4141 -2.4059 -2.7400
   39MOL   H81539651   7.579   2.978   2.961  1.3337 -1.0463  1.3720
   39MOL   H81639652   7.965   3.253   2.885 -0.7814 -1.6399 -2.6064
   39MOL   H81739653   0.226   3.279   2.867  0.5022 -0.2511  1.8432
   39MOL   N81839654   7.535   2.566   1.470 -0.4677  0.0109 -0.4757
   39MOL   C81939655   7.646   2.624   1.410  0.1222 -0.2535  0.0255
   39MOL   C82039656   7.643   2.759   1.373 -0.4963  0.1765  0.2385
   39MOL   C82139657   7.753   2.823   1.313 -0.5555 -0.6415  0.6242
   39MOL   C82239658   7.870   2.750   1.272  0.2265  0.1481  0.0692
   39MOL   N82339659   7.970   2.806   1.192 -0.7528 -0.5490 -0.0750
   39MOL   C82439660   0.026   2.938   1.176 -0.0107 -0.5116 -0.3494
   39MOL   C82539661   0.010   3.031   1.281 -0.4262  0.3913  0.5129
   39MOL   C82639662   0.044   3.163   1.272  0.3488 -0.0195  0.1220
   39MOL   C82739663   0.089   3.210   1.145 -0.6321 -0.3733  0.3713
   39MOL   N82839664   0.140   3.338   1.129  0.2978 -0.7825 -0.3147
   39MOL   C82939665   0.110   3.458   1.202  0.1219  0.1151  0.6035
   39MOL   C83039666   0.205   3.558   1.214  0.2013  0.2630  0.3473
   39MOL   C83139667   0.192   3.668   1.304 -0.6173 -0.2111 -0.2804
   39MOL   C83239668   0.067   3.681   1.380  0.0924 -0.3740 -0.1392
   39MOL   N83339669   0.047   3.778   1.477  0.9698 -0.4104  0.0026
   39MOL   C83439670   7.928   3.872   1.468  0.9887  0.3779  0.0998
   39MOL   C83539671   7.925   3.969   1.571  0.2046 -0.4034 -0.1585
   39MOL   C83639672   7.840   4.081   1.562 -0.4742  0.1167 -0.5148
   39MOL   C83739673   7.738   4.081   1.464  0.0079 -0.1901  0.2708
   39MOL   C83839674   7.641   4.190   1.444  0.2302  0.3433  0.0240
   39MOL   C83939675   7.726   3.980   1.370 -0.0534 -0.1578 -0.2538
   39MOL   C84039676   7.820   3.874   1.372 -0.5062 -0.7847  0.1712
   39MOL   C84139677   7.956   3.572   1.357 -0.7242  0.9283 -0.1470
   39MOL   C84239678   7.973   3.472   1.261 -0.2290  0.0889 -0.0509
   39MOL   C84339679   0.103   3.121   1.036  0.5073 -0.0643  0.0120
   39MOL   C84439680   0.072   2.985   1.049  0.3611 -0.8421  0.7248
   39MOL   C84539681   7.870   2.614   1.307 -0.1652 -0.2222  0.1495
   39MOL   C84639682   7.769   2.551   1.387  0.5523 -0.1883  0.4126
   39MOL   H84739683   7.534   2.469   1.500  1.6011 -0.2848 -1.3186
   39MOL   H84839684   7.560   2.824   1.396 -0.4742  0.7141 -1.1309
   39MOL   H84939685   7.740   2.928   1.294 -0.5963 -1.0512 -1.6852
   39MOL   H85039686   0.025   2.744   1.122 -0.9364 -1.6070  0.7595
   39MOL   H85139687   7.964   2.989   1.376 -0.0363  0.1955  0.5433
   39MOL   H85239688   0.035   3.232   1.355 -1.6907  2.1403 -1.8340
   39MOL   H85339689   0.213   3.355   1.062  0.9385 -0.0466  0.5605
   39MOL   H85439690   0.304   3.548   1.171 -0.2836 -1.1477 -0.4872
   39MOL   H85539691   0.271   3.741   1.312 -1.0384  0.2003  0.1936
   39MOL   H85639692   0.124   3.799   1.539  0.6205  0.4707  0.1569
   39MOL   H85739693   0.008   3.967   1.657  0.9854 -0.5540 -0.7570
   39MOL   H85839694   7.849   4.156   1.638 -0.4598  0.1584 -0.5577
   39MOL   H85939695   7.566   4.154   1.374  0.0511 -1.4397  1.1034
   39MOL   H86039696   7.701   4.272   1.404 -0.1891  0.5861 -0.1163
   39MOL   H86139697   7.648   3.982   1.296 -0.1529 -2.9232 -0.2842
   39MOL   H86239698   7.800   3.801   1.295  1.7152 -0.2980 -0.8900
   39MOL   H86339699   7.873   3.575   1.427  0.1532  1.3061  0.9081
   39MOL   H86439700   7.899   3.396   1.244 -0.1574  0.3139 -1.3902
   39MOL   H86539701   0.142   3.152   0.940 -0.3939  0.1968 -0.2737
   39MOL   H86639702   0.105   2.929   0.963  0.1893 -0.0346  0.1264
   39MOL   H86739703   7.943   2.541   1.276  0.9472  1.0674 -0.3137
   39MOL   H86839704   7.776   2.449   1.422  0.4413 -0.4135 -0.2179
   39MOL   N86939705   7.574   4.221   1.565  0.4316  0.8584  0.5600
   39MOL   C87039706   7.514   4.344   1.590  0.0222 -0.1844  0.4114
   39MOL   C87139707   7.490   4.376   1.726 -0.1230 -0.0667  0.3905
   39MOL   C87239708   7.434   4.498   1.758  0.2434 -0.5841  0.5605
   39MOL   C87339709   7.396   4.590   1.663 -0.0537 -0.2536 -0.2633
   39MOL   N87439710   7.320   4.707   1.689  0.7654 -0.1193  0.1197
   39MOL   C87539711   7.360   4.837   1.654  0.2115  0.4149  0.0472
   39MOL   C87639712   7.481   4.891   1.693 -0.1750 -0.1059  0.0298
   39MOL   C87739713   7.510   5.028   1.667 -0.1393 -0.3677  0.9810
   39MOL   C87839714   7.417   5.113   1.610  0.5915 -0.0772 -0.1625
   39MOL   N87939715   7.443   5.246   1.586 -0.3822 -0.1251 -0.4977
   39MOL   C88039716   7.537   5.301   1.498  0.9841 -0.2633 -0.2268
   39MOL   C88139717   7.591   5.229   1.388 -0.0869 -0.2401  0.3268
   39MOL   C88239718   7.674   5.294   1.294 -0.3481 -0.1286  0.3899
   39MOL   C88339719   7.700   5.428   1.307  0.1915 -0.1792 -0.9420
   39MOL   N88439720   7.780   5.485   1.205 -0.4682 -0.0940 -0.3090
   39MOL   C88539721   7.735   5.493   1.076 -0.0148 -0.3376 -0.2745
   39MOL   C88639722   7.596   5.474   1.045  0.4795  0.2605  0.3687
   39MOL   C88739723   7.550   5.503   0.919  0.2999  0.0759  0.6126
   39MOL   C88839724   7.638   5.556   0.819  0.1732 -0.0730  0.2434
   39MOL   C88939725   7.584   5.593   0.686 -0.3032  0.1718 -0.5550
   39MOL   C89039726   7.773   5.571   0.854 -0.4410  0.7473  0.0062
   39MOL   C89139727   7.818   5.541   0.982  1.8091 -0.3483  0.0751
   39MOL   C89239728   7.656   5.506   1.414  0.8333 -0.0656  0.2091
   39MOL   C89339729   7.567   5.438   1.506 -0.1392 -0.7580 -0.3756
   39MOL   C89439730   7.293   5.055   1.571  0.3494 -0.6966  0.3084
   39MOL   C89539731   7.271   4.919   1.584 -0.1920 -0.0582  0.3035
   39MOL   C89639732   7.415   4.559   1.528  0.7248  0.0432 -0.0472
   39MOL   C89739733   7.483   4.438   1.491  0.7022  0.2199  0.5864
   39MOL   H89839734   7.622   4.166   1.635 -2.3525 -0.1391  1.7521
   39MOL   H89939735   7.518   4.307   1.804 -0.0720  1.1633  1.4694
   39MOL   H90039736   7.407   4.520   1.860  0.7574  1.1333  0.3441
   39MOL   H90139737   7.221   4.691   1.699  0.9007 -0.6600  0.5727
   39MOL   H90239738   7.545   4.832   1.757  0.4028  1.8127  1.2743
   39MOL   H90339739   7.596   5.082   1.702 -0.7856 -0.3729  2.6265
   39MOL   H90439740   7.423   5.309   1.662 -0.0919  1.2716 -1.5440
   39MOL   H90539741   7.568   5.124   1.375 -1.3305 -0.3373  3.0549
   39MOL   H90639742   7.717   5.238   1.212 -0.3869  0.3701  0.0274
   39MOL   H90739743   7.847   5.549   1.245 -1.7324  0.9630  0.1563
   39MOL   H90839744   7.523   5.445   1.120 -0.8910 -0.0335 -1.0662
   39MOL   H90939745   7.448   5.477   0.895 -0.4667  0.7478  2.9992
   39MOL   H91039746   7.505   5.519   0.676 -0.8641  0.6278  0.4625
   39MOL   H91139747   7.661   5.577   0.610  1.1797  0.5327  0.8564
   39MOL   H91239748   7.845   5.610   0.784  1.3047 -4.8786 -1.6078
   39MOL   H91339749   7.921   5.555   1.013  1.2311 -0.4263  2.1078
   39MOL   H91439750   7.690   5.608   1.426 -0.6855  0.3794  0.7670
   39MOL   H91539751   7.517   5.496   1.582  1.9615  3.8338 -2.2911
   39MOL   H91639752   7.215   5.118   1.531  1.5042 -1.1826 -2.8108
   39MOL   H91739753   7.175   4.888   1.546 -1.1522  3.7932 -0.6790
   39MOL   H91839754   7.397   4.632   1.451 -0.2167  0.6951  0.7680
   39MOL   H91939755   7.497   4.409   1.388 -1.5027 -0.9503  0.5970
   39MOL   N92039756   7.513   5.721   0.690 -0.0251 -0.1513 -0.1253
   39MOL   C92139757   7.496   5.789   0.569  0.4421 -0.5112 -0.4296
   39MOL   C92239758   7.517   5.727   0.446  0.8771  0.4174  0.1347
   39MOL   C92339759   7.527   5.801   0.327  0.0204  0.9854  0.2467
   39MOL   C92439760   7.513   5.941   0.341  0.0965 -0.2017 -0.1439
   39MOL   N92539761   7.526   6.015   0.222  0.1141  0.5603  0.4994
   39MOL   C92639762   7.640   6.019   0.144  0.0843  0.2284 -0.0890
   39MOL   C92739763   7.622   6.060   0.008  0.0713 -0.3059 -0.1477
   39MOL   C92839764   7.734   6.073   7.908 -0.1117 -0.9848  0.2398
   39MOL   C92939765   7.862   6.045   7.962  0.2106 -0.4313 -0.1477
   39MOL   N93039766   7.979   6.073   7.884  0.6883 -0.8242  0.5256
   39MOL   C93139767   0.028   6.037   7.754  0.3471  0.2341 -0.0997
   39MOL   C93239768   0.155   6.059   7.700  0.0146 -0.3139  0.5102
   39MOL   C93339769   0.188   6.031   7.573 -0.3037 -0.0703  0.0836
   39MOL   C93439770   0.098   5.974   7.485  0.6486  0.4050  0.1800
   39MOL   N93539771   0.129   5.943   7.353 -0.2229  0.4439 -0.0839
   39MOL   C93639772   0.250   5.940   7.282 -0.0602  0.1418  0.1757
   39MOL   C93739773   0.245   5.976   7.143  0.4105  0.9415 -0.7459
   39MOL   C93839774   0.369   5.961   7.070  1.0253 -0.4026 -0.1440
   39MOL   C93939775   0.483   5.904   7.127  0.0202  0.3238  0.0728
   39MOL   C94039776   0.610   5.920   7.046  0.0488 -0.4249  0.3489
   39MOL   C94139777   0.475   5.856   7.260 -1.0969 -0.9180 -0.1253
   39MOL   C94239778   0.362   5.878   7.338 -0.3453  0.4867 -0.2059
   39MOL   C94339779   7.949   5.944   7.537 -0.3720  1.0099  0.0432
   39MOL   C94439780   7.917   5.968   7.674 -0.1156  0.8295 -0.0570
   39MOL   C94539781   7.874   6.006   0.116 -0.2604 -0.3839  0.5440
   39MOL   C94639782   7.763   5.983   0.198 -1.2546  0.0006  0.3488
   39MOL   C94739783   7.479   6.006   0.461  0.9776  0.5718 -0.2253
   39MOL   C94839784   7.467   5.927   0.574  0.3023 -0.5596  0.8376
   39MOL   H94939785   7.499   5.768   0.779 -2.4512 -1.3412  0.1824
   39MOL   H95039786   7.538   5.621   0.438  0.7415  0.5988 -2.9828
   39MOL   H95139787   7.550   5.760   0.230  0.8588  1.1921  0.3519
   39MOL   H95239788   7.459   6.089   0.202 -1.1658 -0.8908 -0.7326
   39MOL   H95339789   7.526   6.082   7.945  0.5077  1.8211 -0.1004
   39MOL   H95439790   7.722   6.109   7.808 -0.4730  1.5429  1.1691
   39MOL   H95539791   0.077   6.097   7.939  0.2049  0.5612  0.6523
   39MOL   H95639792   0.229   6.097   7.769  0.3682  0.5573 -0.3386
   39MOL   H95739793   0.283   6.066   7.534 -0.4706  1.8556  1.3423
   39MOL   H95839794   0.051   5.908   7.300  1.7428 -1.6522 -1.6641
   39MOL   H95939795   0.157   6.014   7.095 -1.1231 -1.1642  0.3059
   39MOL   H96039796   0.363   5.996   6.968  1.4956  1.1118  0.3381
   39MOL   H96139797   0.685   5.846   7.074 -0.0881 -0.8964 -0.4908
   39MOL   H96239798   0.655   6.016   7.071  0.7193 -0.2994 -1.2679
   39MOL   H96339799   0.561   5.805   7.301 -0.7760 -0.1695  0.1350
   39MOL   H96439800   0.360   5.836   7.438 -0.2876 -0.5716 -0.6458
   39MOL   H96539801   7.872   5.897   7.477 -0.8107  1.1603  0.4885
   39MOL   H96639802   7.820   5.949   7.716  1.0165  0.1620  2.3392
   39MOL   H96739803   7.974   6.005   0.155 -0.1860  0.0788  0.3751
   39MOL   H96839804   7.772   5.958   0.303 -0.6703 -3.2224 -0.4123
   39MOL   H96939805   7.481   6.114   0.473  1.0766  0.4700  0.7304
   39MOL   H97039806   7.451   5.968   0.672 -0.7698 -2.2153  1.3811
   39MOL   N97139807   0.591   5.914   6.900  0.6279  0.1038 -0.1545
   39MOL   C97239808   0.707   5.917   6.822  0.5931 -0.4206  0.4061
   39MOL   C97339809   0.716   5.843   6.696 -0.2840  0.0303 -0.1604
   39MOL   C97439810   0.834   5.847   6.625  0.3060 -0.0075 -0.5018
   39MOL   C97539811   0.941   5.936   6.666 -0.4815  0.3841  0.3464
   39MOL   N97639812   1.058   5.928   6.585  0.1792  0.0348 -0.3324
   39MOL   C97739813   1.191   5.960   6.615  0.2440 -0.3975  0.4710
   39MOL   C97839814   1.237   5.950   6.753  0.2818  0.0763 -0.1568
   39MOL   C97939815   1.368   5.981   6.778 -1.1537 -0.2355 -0.0845
   39MOL   C98039816   1.456   6.025   6.677  0.8144 -0.4527 -0.2772
   39MOL   N98139817   1.592   6.058   6.698  0.3033 -0.2540  0.1277
   39MOL   C98239818   1.674   6.019   6.799  0.4652  0.5169 -0.1649
   39MOL   C98339819   1.649   5.895   6.870 -1.0793 -0.1330  0.0563
   39MOL   C98439820   1.738   5.858   6.965  0.3635  0.0086 -0.0784
   39MOL   C98539821   1.856   5.929   6.992 -0.4315  0.0166 -0.8859
   39MOL   N98639822   1.932   5.868   7.090 -0.2438 -0.0526 -0.0067
   39MOL   C98739823   2.058   5.910   7.118 -0.3131  0.5017 -0.1051
   39MOL   C98839824   2.076   6.008   7.210  0.1317  0.0750  0.2246
   39MOL   C98939825   2.209   6.053   7.237  0.8273 -0.2550 -0.1438
   39MOL   C99039826   2.318   6.016   7.153  0.5914  0.4358  0.2075
   39MOL   C99139827   2.452   6.083   7.164  0.0887  0.1357 -0.4407
   39MOL   C99239828   2.294   5.930   7.043 -0.0063 -0.4383 -0.4797
   39MOL   C99339829   2.166   5.876   7.028 -0.1788 -0.4735  0.1074
   39MOL   C99439830   1.882   6.045   6.924 -0.2030 -0.3487  0.9568
   39MOL   C99539831   1.794   6.088   6.822  0.0442  0.6057 -0.1465
   39MOL   C99639832   1.405   6.039   6.547  0.2574 -0.1270 -0.2443
   39MOL   C99739833   1.280   5.995   6.516 -0.1100 -0.6039  0.3179
   39MOL   C99839834   0.925   6.020   6.774  0.0847  0.7209  0.2099
   39MOL   C99939835   0.815   5.996   6.860  0.9535  0.5146 -0.0361
   39MOL     H139836   0.517   5.850   6.873  0.3364 -0.1456  1.1811
   39MOL     H239837   0.632   5.784   6.661 -0.4137  1.5964 -2.6273
   39MOL     H339838   0.854   5.775   6.546  0.5202  0.5817 -0.9897
   39MOL     H439839   1.033   5.915   6.488  1.5009 -0.3788 -0.6205
   39MOL     H539840   1.177   5.929   6.840  0.2335  1.2655  0.0941
   39MOL     H639841   1.389   5.978   6.884 -0.7003 -0.0307 -0.1648
   39MOL     H739842   1.634   6.116   6.627  2.4604  0.3243  1.8378
   39MOL     H839843   1.567   5.831   6.840  0.5229 -2.1354 -0.1427
   39MOL     H939844   1.724   5.768   7.023 -1.6027 -0.8224 -1.7888
   39MOL    H1039845   1.883   5.811   7.158 -0.3933  0.8734  0.6666
   39MOL    H1139846   1.992   6.056   7.258  0.2751  0.7228 -0.1586
   39MOL    H1239847   2.216   6.131   7.312  0.7359  0.1756 -0.5816
   39MOL    H1339848   2.453   6.138   7.070  0.4943  2.0147  0.6388
   39MOL    H1439849   2.531   6.010   7.178 -0.3674 -0.2977 -0.1056
   39MOL    H1539850   2.367   5.929   6.963 -1.1876  0.2531 -1.6002
   39MOL    H1639851   2.145   5.827   6.934 -0.8755  0.2163 -0.1036
   39MOL    H1739852   1.960   6.116   6.946 -0.1684  0.6546 -2.1545
   39MOL    H1839853   1.819   6.176   6.765  3.2822  0.4200  0.8747
   39MOL    H1939854   1.473   6.078   6.473 -1.5266  1.0263 -1.2912
   39MOL    H2039855   1.250   5.995   6.413  1.1360 -1.6737 -0.0589
   39MOL    H2139856   1.005   6.086   6.803  1.6780 -1.0465 -0.0332
   39MOL    H2239857   0.811   6.056   6.950 -0.7838  2.3577 -1.2955
   39MOL    H2339858   2.456   6.149   7.250  0.5470 -0.7123  0.1935
   40MOL     N139859   3.156   7.044   5.929  0.3774  0.0905  0.4539
   40MOL     C239860   3.071   7.154   5.955 -0.0459  0.7166 -0.1957
   40MOL     C339861   3.122   7.287   5.960 -0.3120  0.3966  1.1312
   40MOL     C439862   3.040   7.402   5.975 -0.2070 -0.6194  0.3208
   40MOL     C539863   2.905   7.380   5.996 -0.5653 -0.4977 -0.4608
   40MOL     N639864   2.816   7.489   6.006 -0.1285  0.6016  0.3210
   40MOL     C739865   2.708   7.512   6.090  0.3384  0.0714  0.8935
   40MOL     C839866   2.630   7.626   6.069 -0.3672  0.2083 -0.3847
   40MOL     C939867   2.529   7.657   6.164 -0.7354 -0.8417  0.0959
   40MOL    C1039868   2.504   7.576   6.272  0.1108  1.3246  0.2799
   40MOL    N1139869   2.393   7.600   6.352  0.1798  0.4120  0.2207
   40MOL    C1239870   2.382   7.576   6.487 -0.0423 -0.1499  0.0049
   40MOL    C1339871   2.479   7.639   6.567  0.4237  0.2735  0.3455
   40MOL    C1439872   2.476   7.612   6.709 -0.4111 -0.7311  0.0884
   40MOL    C1539873   2.370   7.529   6.763  0.6540 -0.1094 -0.6926
   40MOL    N1639874   2.366   7.521   6.902 -0.4112 -0.3853  0.0379
   40MOL    C1739875   2.300   7.418   6.969 -0.2209  0.5660 -0.6616
   40MOL    C1839876   2.260   7.440   7.105 -0.3444  0.2145  0.3126
   40MOL    C1939877   2.223   7.328   7.186  0.3085 -0.0768 -0.0601
   40MOL    C2039878   2.225   7.196   7.131  0.5217 -0.5169 -0.7647
   40MOL    C2139879   2.174   7.079   7.224 -0.0222  0.5634 -0.1386
   40MOL    C2239880   2.258   7.183   6.997 -0.5490 -0.5335  1.1580
   40MOL    C2339881   2.302   7.287   6.917 -0.7824 -0.4914 -0.1096
   40MOL    C2439882   2.276   7.475   6.676 -0.1502 -0.5945 -0.5504
   40MOL    C2539883   2.279   7.502   6.539 -0.5042 -0.2384  0.5916
   40MOL    C2639884   2.594   7.469   6.301 -0.0785 -0.4461  0.5841
   40MOL    C2739885   2.689   7.427   6.203  0.3788  0.0146  0.1485
   40MOL    C2839886   2.852   7.248   6.009 -0.3579 -0.4090  0.8102
   40MOL    C2939887   2.936   7.135   5.990 -0.2580  0.2231  0.1830
   40MOL    H3039888   3.110   6.955   5.914 -0.5610  0.7033 -0.3889
   40MOL    H3139889   3.226   7.301   5.937 -0.9126  2.6131 -0.2756
   40MOL    H3239890   3.090   7.498   5.978  0.9882 -1.2064 -0.2000
   40MOL    H3339891   2.836   7.571   5.950 -0.2352 -0.1068 -0.7733
   40MOL    H3439892   2.658   7.698   5.993  0.9004  1.6505  1.4034
   40MOL    H3539893   2.471   7.746   6.143  1.5012  1.0898  1.8203
   40MOL    H3639894   2.302   7.615   6.309 -0.9816 -2.1146  1.6629
   40MOL    H3739895   2.558   7.698   6.525 -1.2005  1.8176 -0.6257
   40MOL    H3839896   2.547   7.652   6.780 -0.7067  0.3391 -0.2085
   40MOL    H3939897   2.391   7.603   6.954  0.5295  0.5730 -1.8791
   40MOL    H4039898   2.262   7.537   7.152  1.3239  1.7628 -2.8153
   40MOL    H4139899   2.196   7.352   7.288 -1.4657  0.3948 -0.6357
   40MOL    H4239900   2.079   7.113   7.263 -0.5975 -1.3233  0.1503
   40MOL    H4339901   2.228   7.065   7.318 -2.7648  0.9873  1.5392
   40MOL    H4439902   2.269   7.084   6.956  0.6869 -0.0663  0.3557
   40MOL    H4539903   2.340   7.269   6.817 -1.5397  1.3334 -0.7423
   40MOL    H4639904   2.191   7.420   6.714 -1.4492 -0.9990 -3.8482
   40MOL    H4739905   2.200   7.458   6.479 -0.3943  3.9139 -2.8669
   40MOL    H4839906   2.564   7.403   6.381 -2.1591 -0.4224 -0.1391
   40MOL    H4939907   2.751   7.342   6.227  0.2182 -0.0826  0.2217
   40MOL    H5039908   2.753   7.238   6.050 -0.1194  1.2512  1.8645
   40MOL    H5139909   2.893   7.038   6.007 -0.9614  0.6846  1.0998
   40MOL    H5239910   3.240   7.059   5.876 -0.9099 -0.2015 -1.7509
   40MOL    N5339911   2.175   6.946   7.152  0.1238 -0.6106 -0.0220
   40MOL    C5439912   2.086   6.915   7.044  0.3363  0.4047 -0.1293
   40MOL    C5539913   1.956   6.969   7.033 -0.4212  0.4259 -0.2410
   40MOL    C5639914   1.874   6.923   6.931 -0.3114 -0.3792  0.2868
   40MOL    C5739915   1.907   6.829   6.832 -0.6481 -0.7697 -0.3415
   40MOL    N5839916   1.811   6.790   6.744  0.2082  1.3609  0.1983
   40MOL    C5939917   1.829   6.729   6.617  0.3273  0.1741 -0.1545
   40MOL    C6039918   1.711   6.669   6.559  0.3814  0.4533 -0.6716
   40MOL    C6139919   1.721   6.582   6.444 -0.2525 -0.1754 -1.1925
   40MOL    C6239920   1.844   6.567   6.378 -0.0622  0.3276 -0.9992
   40MOL    N6339921   1.862   6.475   6.270  0.6463 -0.3060  0.2924
   40MOL    C6439922   1.789   6.356   6.259 -0.0033  0.7770 -0.1235
   40MOL    C6539923   1.764   6.275   6.371  0.2806 -0.0188  0.3541
   40MOL    C6639924   1.701   6.152   6.361  0.2538 -0.3201  0.4675
   40MOL    C6739925   1.657   6.109   6.237  0.0915  0.2667 -0.2630
   40MOL    N6839926   1.602   5.980   6.229  0.0228  0.3052  0.3972
   40MOL    C6939927   1.470   5.945   6.198  0.0688 -0.3790  0.0234
   40MOL    C7039928   1.430   5.810   6.218 -0.0666 -0.8172  0.0090
   40MOL    C7139929   1.298   5.768   6.187 -0.2665 -0.3838  0.2116
   40MOL    C7239930   1.202   5.868   6.151 -0.7431 -0.2492 -0.2904
   40MOL    C7339931   1.059   5.831   6.121  0.9268 -0.2167 -0.1202
   40MOL    C7439932   1.236   6.001   6.145 -0.0014  0.6550 -0.1375
   40MOL    C7539933   1.373   6.039   6.156 -0.0357 -0.2309 -0.2859
   40MOL    C7639934   1.673   6.188   6.120 -0.0292  0.7971 -0.0547
   40MOL    C7739935   1.749   6.310   6.131 -0.2134 -0.1900  0.4424
   40MOL    C7839936   1.955   6.638   6.428 -0.6091  0.1720 -0.7217
   40MOL    C7939937   1.946   6.718   6.541 -0.8323 -0.5959  0.3225
   40MOL    C8039938   2.043   6.778   6.836  0.9050 -0.3149 -0.0230
   40MOL    C8139939   2.129   6.823   6.940 -0.1746 -0.5860 -0.2029
   40MOL    H8239940   2.264   6.897   7.151 -0.9062 -2.5964  1.5854
   40MOL    H8339941   1.915   7.020   7.119 -0.4493 -3.2237  1.9927
   40MOL    H8439942   1.777   6.970   6.943  0.1951  0.8989 -0.4818
   40MOL    H8539943   1.723   6.808   6.790  0.2047 -1.6193  1.4461
   40MOL    H8639944   1.614   6.673   6.607  0.8273 -0.6402  0.3526
   40MOL    H8739945   1.634   6.530   6.407 -1.9723  1.1855  0.7930
   40MOL    H8839946   1.933   6.507   6.205 -0.3483  1.2332 -0.0584
   40MOL    H8939947   1.809   6.306   6.464  2.5333  1.9612 -1.3545
   40MOL    H9039948   1.701   6.083   6.445  0.6173 -0.3704  0.4271
   40MOL    H9139949   1.656   5.906   6.271  0.2401  0.3416  0.1842
   40MOL    H9239950   1.497   5.727   6.236  0.8185  0.2069  1.5173
   40MOL    H9339951   1.266   5.666   6.195  0.8287 -0.6538  1.3142
   40MOL    H9439952   1.043   5.790   6.021 -0.8926 -1.2139  0.5572
   40MOL    H9539953   0.993   5.918   6.126 -0.0972 -1.0099  0.4500
   40MOL    H9639954   1.152   6.062   6.114 -0.5055 -0.7811 -1.6565
   40MOL    H9739955   1.399   6.143   6.147  0.2936 -0.2356  0.5121
   40MOL    H9839956   1.633   6.156   6.025  1.0302  0.6620 -0.4585
   40MOL    H9939957   1.771   6.369   6.044 -0.3441  1.4508  1.5125
   40MOL   H10039958   2.051   6.629   6.378 -0.1323 -0.1170  0.2240
   40MOL   H10139959   2.032   6.780   6.565 -1.8200 -0.0316  2.5710
   40MOL   H10239960   2.074   6.708   6.760  1.3682 -0.9338  0.7262
   40MOL   H10339961   2.233   6.795   6.941 -0.1046 -0.5904 -3.8838
   40MOL   N10439962   0.996   5.731   6.215  0.2904 -0.1621  0.1174
   40MOL   C10539963   0.860   5.683   6.202  0.3171 -0.2796 -0.0757
   40MOL   C10639964   0.767   5.746   6.123  0.2281 -0.2525  0.5175
   40MOL   C10739965   0.631   5.703   6.119  0.6181 -0.3380 -0.1932
   40MOL   C10839966   0.587   5.600   6.201 -0.2455  0.6435 -0.2209
   40MOL   N10939967   0.455   5.564   6.209  0.1353 -0.9905 -0.0358
   40MOL   C11039968   0.384   5.513   6.107 -0.0949  0.6239 -0.2411
   40MOL   C11139969   0.422   5.506   5.973  0.9826 -0.5430  0.0131
   40MOL   C11239970   0.336   5.439   5.879  0.4120 -0.0613 -0.2526
   40MOL   C11339971   0.225   5.365   5.924  0.3913  0.0312  0.0809
   40MOL   N11439972   0.168   5.264   5.847  0.1296 -0.1585 -0.2292
   40MOL   C11539973   0.219   5.137   5.858 -0.8224  0.3679  0.5687
   40MOL   C11639974   0.135   5.028   5.904  0.1775  1.1678 -0.5270
   40MOL   C11739975   0.193   4.902   5.935 -0.2949 -0.2476  0.1272
   40MOL   C11839976   0.331   4.888   5.921 -0.3859  0.2538  0.0209
   40MOL   N11939977   0.392   4.765   5.957 -0.7347 -0.0280 -0.6620
   40MOL   C12039978   0.516   4.768   6.034  0.0376  0.5677  0.4021
   40MOL   C12139979   0.554   4.874   6.121  0.0273 -0.1336  0.1661
   40MOL   C12239980   0.685   4.890   6.169  0.3906 -0.8505 -0.8346
   40MOL   C12339981   0.787   4.797   6.143 -0.8382  0.0438 -0.6090
   40MOL   C12439982   0.926   4.823   6.201  0.0075  0.5135  0.6587
   40MOL   C12539983   0.753   4.692   6.052  0.6587  0.4379 -0.3289
   40MOL   C12639984   0.621   4.681   5.997 -0.9188 -0.1397  0.3977
   40MOL   C12739985   0.412   4.988   5.863  0.0997  0.2732 -0.1543
   40MOL   C12839986   0.358   5.115   5.831  0.4330 -0.6374 -0.6494
   40MOL   C12939987   0.184   5.374   6.059  0.5984  0.1520  0.6582
   40MOL   C13039988   0.270   5.443   6.150 -1.0642 -0.2719  0.4770
   40MOL   C13139989   0.681   5.542   6.294  0.6705 -0.8256 -0.2904
   40MOL   C13239990   0.816   5.582   6.292  0.1670  0.2348 -0.1358
   40MOL   H13339991   1.057   5.668   6.265 -1.2377 -1.1653  0.7614
   40MOL   H13439992   0.791   5.833   6.062 -4.4528  0.5656 -0.3342
   40MOL   H13539993   0.562   5.759   6.058  0.3150 -0.8827 -0.3486
   40MOL   H13639994   0.431   5.540   6.304  1.5413  1.3690  0.9534
   40MOL   H13739995   0.513   5.549   5.933  0.0311  1.1974 -0.3427
   40MOL   H13839996   0.374   5.436   5.778  2.5906 -0.6982  0.5743
   40MOL   H13939997   0.068   5.261   5.832  0.3478 -2.4313 -1.4990
   40MOL   H14039998   0.029   5.038   5.920 -0.2663  0.3276 -2.8914
   40MOL   H14139999   0.131   4.817   5.957 -0.0560 -0.4825 -0.1025
   40MOL   H14240000   0.370   4.687   5.897  0.6151 -0.6046 -0.4236
   40MOL   H14340001   0.485   4.953   6.147 -1.2732 -1.2473  0.1444
   40MOL   H14440002   0.704   4.980   6.226 -1.6934 -0.2086 -1.1310
   40MOL   H14540003   0.974   4.884   6.124 -1.1327  0.0835 -0.4119
   40MOL   H14640004   0.977   4.728   6.220  2.0752  1.6408  0.8815
   40MOL   H14740005   0.825   4.620   6.016 -0.6174 -0.1686 -1.7471
   40MOL   H14840006   0.601   4.605   5.922  1.1995 -1.2308  0.8914
   40MOL   H14940007   0.516   4.962   5.849  0.7597  1.6420  1.9591
   40MOL   H15040008   0.417   5.203   5.810  1.1406 -0.9255  0.0825
   40MOL   H15140009   0.103   5.319   6.104 -1.4154  1.5883 -1.1244
   40MOL   H15240010   0.251   5.446   6.256  1.3065 -0.1020  0.9124
   40MOL   H15340011   0.658   5.468   6.369 -0.9252 -0.0777 -0.0162
   40MOL   H15440012   0.895   5.530   6.345  0.4168  0.2311 -0.5100
   40MOL   N15540013   0.914   4.917   6.313 -0.1016  0.3148  0.6807
   40MOL   C15640014   1.022   4.918   6.402 -0.9494  0.0785 -0.3020
   40MOL   C15740015   1.158   4.902   6.371  0.3037  0.0424  0.3833
   40MOL   C15840016   1.257   4.926   6.469 -0.0506 -0.1051 -0.1085
   40MOL   C15940017   1.225   4.941   6.602  0.1918  0.0202  0.0249
   40MOL   N16040018   1.329   4.961   6.694  0.0520  0.0915  0.5799
   40MOL   C16140019   1.324   4.948   6.829 -0.9060  0.3543 -0.0995
   40MOL   C16240020   1.264   4.840   6.886 -0.8155  0.0420 -0.3449
   40MOL   C16340021   1.246   4.825   7.024  0.4539 -0.6002 -0.7534
   40MOL   C16440022   1.288   4.931   7.108  0.7827 -0.2421 -0.8524
   40MOL   N16540023   1.249   4.937   7.244  0.3714  0.3057  0.1101
   40MOL   C16640024   1.319   4.998   7.350  0.5107 -0.2226 -0.4530
   40MOL   C16740025   1.463   5.008   7.355  0.1904  0.2947 -0.3585
   40MOL   C16840026   1.526   5.058   7.468 -0.1401  0.2266  1.1564
   40MOL   C16940027   1.455   5.099   7.584 -0.3859 -0.5763 -0.0955
   40MOL   N17040028   1.524   5.172   7.684 -0.6109  0.5049  1.0657
   40MOL   C17140029   1.468   5.240   7.790 -0.1996  0.0879 -0.6363
   40MOL   C17240030   1.502   5.203   7.921  0.1157 -0.4104 -0.2937
   40MOL   C17340031   1.443   5.268   0.053  0.0397  0.2633  0.3831
   40MOL   C17440032   1.360   5.380   0.034  0.4611  0.4612  0.2945
   40MOL   C17540033   1.306   5.464   0.145  0.4114 -0.3156 -0.3030
   40MOL   C17640034   1.335   5.419   7.884 -0.5591 -0.0678  0.5390
   40MOL   C17740035   1.378   5.350   7.772  0.5468  0.1991  0.4919
   40MOL   C17840036   1.318   5.082   7.582 -0.5451  0.6906  0.4943
   40MOL   C17940037   1.248   5.040   7.465 -0.1694 -1.3241  0.5078
   40MOL   C18040038   1.361   5.042   7.047  0.0478  0.9871 -0.0369
   40MOL   C18140039   1.372   5.056   6.903 -0.1622  0.0347  0.2752
   40MOL   C18240040   1.091   4.961   6.636  0.9979 -0.0015 -0.0624
   40MOL   C18340041   0.992   4.949   6.536 -0.1098  0.3563 -0.9353
   40MOL   H18440042   0.823   4.903   6.353 -0.2037  1.3539  0.8460
   40MOL   H18540043   1.192   4.873   6.273 -2.0478  0.2168 -0.5277
   40MOL   H18640044   1.359   4.927   6.435  1.2538  0.5915  3.6356
   40MOL   H18740045   1.417   4.991   6.655  0.3504 -0.1887  1.0340
   40MOL   H18840046   1.230   4.768   6.813  0.1097 -0.2396 -0.4981
   40MOL   H18940047   1.191   4.735   7.049 -0.4017 -0.6213 -2.5696
   40MOL   H19040048   1.188   4.864   7.278  0.5531  0.8562  1.6735
   40MOL   H19140049   1.534   4.973   7.281  0.3035 -3.1258  1.2587
   40MOL   H19240050   1.633   5.067   7.458 -0.0116 -2.7607 -0.6281
   40MOL   H19340051   1.623   5.159   7.700 -0.6332 -0.5858  0.3392
   40MOL   H19440052   1.569   5.122   7.944  1.7923  1.1762  0.5643
   40MOL   H19540053   1.452   5.245   0.158  0.4552  1.3813  0.5986
   40MOL   H19640054   1.344   5.565   0.130  2.1691 -0.8123  0.7481
   40MOL   H19740055   1.355   5.436   0.238 -0.5018  1.8951  0.8801
   40MOL   H19840056   1.276   5.508   7.868  1.4196  1.2887  0.6934
   40MOL   H19940057   1.336   5.379   7.676 -0.9119 -1.0692  0.7267
   40MOL   H20040058   1.264   5.117   7.669 -2.4269  1.7754 -1.0824
   40MOL   H20140059   1.141   5.032   7.471 -0.3143 -0.1325 -0.3264
   40MOL   H20240060   1.398   5.121   7.110  0.6351 -0.7911  1.9186
   40MOL   H20340061   1.422   5.139   6.856 -0.4582 -0.3564 -0.7454
   40MOL   H20440062   1.064   4.983   6.738 -0.8779  0.5601 -0.6643
   40MOL   H20540063   0.887   4.955   6.562 -0.2139 -2.7731 -0.4967
   40MOL   N20640064   1.165   5.475   0.143 -0.2251  0.2061 -0.0889
   40MOL   C20740065   1.096   5.559   0.233 -0.3833  0.0172  0.1458
   40MOL   C20840066   0.958   5.533   0.246 -0.1025  0.0028 -0.1213
   40MOL   C20940067   0.876   5.611   0.332  0.3962  0.6612  0.4926
   40MOL   C21040068   0.934   5.716   0.400  0.2450  0.4575 -0.1606
   40MOL   N21140069   0.861   5.802   0.485 -0.2042  0.1838  0.0137
   40MOL   C21240070   0.732   5.778   0.523  0.1793  0.9387 -0.8425
   40MOL   C21340071   0.631   5.866   0.488  0.8881 -0.5503  0.3619
   40MOL   C21440072   0.499   5.839   0.533  0.5341  0.2928  0.1408
   40MOL   C21540073   0.472   5.720   0.604 -0.0665  0.0485  0.3614
   40MOL   N21640074   0.341   5.694   0.637 -0.7218 -0.3910  0.3315
   40MOL   C21740075   0.287   5.606   0.738 -0.1493  0.1161 -0.4166
   40MOL   C21840076   0.363   5.587   0.853 -0.6147 -0.6970 -0.0702
   40MOL   C21940077   0.318   5.507   0.960  1.0267 -0.7112 -0.5996
   40MOL   C22040078   0.190   5.446   0.956  0.0848  0.4668 -0.8561
   40MOL   N22140079   0.144   5.360   1.055  0.1287 -0.7041  0.3735
   40MOL   C22240080   0.099   5.233   1.035  0.8180 -0.2710  0.5113
   40MOL   C22340081   0.030   5.171   1.138 -0.5203 -0.7281  0.2135
   40MOL   C22440082   7.962   5.036   1.120  0.7054 -0.4419  0.6213
   40MOL   C22540083   0.018   4.963   1.000  0.1752 -0.4634 -0.0997
   40MOL   C22640084   7.964   4.817   0.989  0.1231 -0.3256  0.0621
   40MOL   C22740085   0.097   5.024   0.907  0.6196 -0.6869  0.0892
   40MOL   C22840086   0.125   5.163   0.913 -0.0847  0.7451  0.8126
   40MOL   C22940087   0.111   5.467   0.839  0.6871 -1.3457 -0.1685
   40MOL   C23040088   0.160   5.547   0.732  1.0349 -0.7979  0.0086
   40MOL   C23140089   0.576   5.624   0.631  0.5218 -0.3169  1.1481
   40MOL   C23240090   0.705   5.658   0.591  0.4384 -0.6559 -0.3825
   40MOL   C23340091   1.072   5.736   0.392 -0.2453 -0.9262  0.3939
   40MOL   C23440092   1.158   5.655   0.307  0.6143 -0.2944  0.4630
   40MOL   H23540093   1.122   5.416   0.073 -0.5400  0.6271 -0.2543
   40MOL   H23640094   0.903   5.461   0.187  2.5190 -1.3751 -0.9280
   40MOL   H23740095   0.769   5.604   0.345  0.6096 -1.4049  1.2811
   40MOL   H23840096   0.866   5.894   0.444 -1.5607  0.0073 -0.5805
   40MOL   H23940097   0.670   5.953   0.437  0.7482 -1.3273 -1.1251
   40MOL   H24040098   0.416   5.907   0.524 -0.0078 -0.3258  0.4386
   40MOL   H24140099   0.274   5.735   0.573  0.0990  0.7241  0.1861
   40MOL   H24240100   0.454   5.644   0.868  0.1041 -1.9775  0.5370
   40MOL   H24340101   0.372   5.495   1.053 -1.2839 -1.6180  0.6684
   40MOL   H24440102   0.116   5.399   1.144  0.3872  0.2916  0.0254
   40MOL   H24540103   0.003   5.234   1.222  2.8326 -0.6557  1.3140
   40MOL   H24640104   7.910   4.988   1.202  2.3104 -0.5571  1.5757
   40MOL   H24740105   7.869   4.823   0.936  0.0352 -2.6452 -0.0816
   40MOL   H24840106   7.951   4.774   1.088  0.3922  1.1372  0.7356
   40MOL   H24940107   0.131   4.968   0.820 -0.0715  0.0991 -0.6913
   40MOL   H25040108   0.177   5.212   0.832 -0.6482  0.5445  0.3386
   40MOL   H25140109   0.010   5.430   0.850  0.0503  0.6232  0.9307
   40MOL   H25240110   0.093   5.564   0.649 -0.0254 -2.7847  0.4152
   40MOL   H25340111   0.549   5.528   0.671 -0.6833 -0.6276 -0.3598
   40MOL   H25440112   0.774   5.575   0.597  2.2990  0.9871  1.8339
   40MOL   H25540113   1.111   5.806   0.464 -1.2452  1.4450 -1.3115
   40MOL   H25640114   1.260   5.677   0.279  0.9736 -0.5590  1.5585
   40MOL   N25740115   0.078   4.739   0.914  0.2345  0.6645 -0.5122
   40MOL   C25840116   0.060   4.598   0.917 -0.1942 -0.0411 -0.3000
   40MOL   C25940117   7.911   4.541   0.940 -0.0868  0.8324  0.3745
   40MOL   C26040118   7.888   4.405   0.930 -0.1756 -0.6829  1.0113
   40MOL   C26140119   0.016   4.313   0.912 -0.1667  0.2963  0.3147
   40MOL   N26240120   7.979   4.176   0.882 -0.3217 -0.0715  0.1812
   40MOL   C26340121   7.866   4.096   0.874 -1.0817 -0.2923 -0.3021
   40MOL   C26440122   7.770   4.100   0.976  0.1875  0.4837 -0.6279
   40MOL   C26540123   7.662   4.013   0.974 -0.2118 -0.2522  0.4454
   40MOL   C26640124   7.634   3.936   0.862 -0.5960  0.1916 -0.0613
   40MOL   N26740125   7.516   3.859   0.857 -0.6742 -0.4932 -0.0705
   40MOL   C26840126   7.515   3.722   0.818 -0.2165 -0.3940 -0.0168
   40MOL   C26940127   7.631   3.654   0.779 -0.5557 -1.0794  0.1589
   40MOL   C27040128   7.619   3.531   0.723  0.0222  1.4849 -0.4041
   40MOL   C27140129   7.494   3.468   0.706  0.0566  0.1118  0.2038
   40MOL   N27240130   7.490   3.343   0.649 -0.4992  0.3556 -0.6869
   40MOL   C27340131   7.572   3.233   0.676  0.3065 -0.1337  0.1010
   40MOL   C27440132   7.563   3.109   0.602  0.5481  0.5308  0.0967
   40MOL   C27540133   7.637   2.991   0.638 -0.3177  0.1991  0.1480
   40MOL   C27640134   7.729   2.998   0.744 -0.1423 -0.0285  0.8768
   40MOL   C27740135   7.816   2.876   0.779 -0.5103 -0.4755 -0.5590
   40MOL   C27840136   7.746   3.121   0.813 -0.6068  0.1969  0.3436
   40MOL   C27940137   7.665   3.230   0.784 -0.0611 -0.0796 -0.1896
   40MOL   C28040138   7.371   3.530   0.733  0.2922  0.0026 -0.6403
   40MOL   C28140139   7.386   3.662   0.792 -0.1105  0.7558  0.8333
   40MOL   C28240140   7.714   3.950   0.750 -0.1073  0.0856 -0.7688
   40MOL   C28340141   7.842   4.014   0.760  0.3423 -0.2995 -0.6285
   40MOL   C28440142   0.144   4.365   0.911  0.0297  0.0736 -0.2804
   40MOL   C28540143   0.166   4.505   0.906 -0.6211  0.7133 -0.8159
   40MOL   H28640144   0.169   4.783   0.921  0.3566  0.1221  1.5256
   40MOL   H28740145   7.830   4.612   0.945 -0.8894 -0.1550  1.5178
   40MOL   H28840146   7.790   4.359   0.930 -0.1450 -0.7634  1.8644
   40MOL   H28940147   0.076   4.121   0.853  0.2197  0.7012  0.1539
   40MOL   H29040148   7.788   4.152   1.068  0.0255 -0.3672 -0.1047
   40MOL   H29140149   7.593   4.013   1.058 -1.5780 -0.0919 -0.6583
   40MOL   H29240150   7.446   3.892   0.922  2.5240  0.1662  3.1994
   40MOL   H29340151   7.724   3.709   0.786 -1.0254  0.0640 -2.2831
   40MOL   H29440152   7.706   3.478   0.686 -0.6989 -0.7009  0.9653
   40MOL   H29540153   7.398   3.321   0.613 -2.0632  1.4015  2.5389
   40MOL   H29640154   7.498   3.096   0.517  1.2014 -0.2593 -0.2836
   40MOL   H29740155   7.623   2.899   0.583 -1.2879  0.8318 -0.6800
   40MOL   H29840156   7.919   2.908   0.796 -0.7497 -0.0820  0.1904
   40MOL   H29940157   7.829   2.814   0.690 -1.0609 -0.2359 -0.8090
   40MOL   H30040158   7.815   3.127   0.896 -1.7616 -0.2173  1.3664
   40MOL   H30140159   7.682   3.321   0.840 -1.4386  1.1982 -1.8046
   40MOL   H30240160   7.274   3.502   0.696  1.1153 -1.7245 -1.5361
   40MOL   H30340161   7.291   3.705   0.823 -0.8417 -0.5791  0.4959
   40MOL   H30440162   7.679   3.906   0.658 -0.7136  0.5572 -0.7667
   40MOL   H30540163   7.905   4.020   0.672  1.2738 -2.1285 -0.1100
   40MOL   H30640164   0.231   4.300   0.912 -0.3739 -0.4608  1.8637
   40MOL   H30740165   0.267   4.544   0.901 -0.2856 -0.2085 -1.4013
   40MOL   N30840166   7.777   2.805   0.901  0.2565 -0.1979  0.0566
   40MOL   C30940167   7.643   2.759   0.907 -0.6813 -0.3296 -0.1195
   40MOL   C31040168   7.558   2.794   1.016 -0.2675  0.3512 -0.2244
   40MOL   C31140169   7.428   2.755   1.011  0.6982  0.9555 -0.3421
   40MOL   C31240170   7.372   2.683   0.903 -0.0842 -0.3019  0.2360
   40MOL   N31340171   7.237   2.646   0.904 -0.3305  0.1390 -0.3097
   40MOL   C31440172   7.124   2.707   0.958 -0.0825  0.6651  0.3858
   40MOL   C31540173   7.012   2.631   0.993  0.1762 -0.3535  0.2878
   40MOL   C31640174   6.899   2.690   1.051  0.6792  0.9508 -0.2762
   40MOL   C31740175   6.901   2.828   1.081  0.2989  0.6368  0.0434
   40MOL   N31840176   6.792   2.899   1.127 -0.0011 -0.5406  0.0702
   40MOL   C31940177   6.671   2.846   1.169 -0.0674 -0.0329  0.6142
   40MOL   C32040178   6.547   2.912   1.142 -0.3240 -0.5401  0.6905
   40MOL   C32140179   6.422   2.860   1.188  0.1281 -0.2193  0.7408
   40MOL   C32240180   6.418   2.741   1.263 -0.0812  0.3406 -0.1439
   40MOL   N32340181   6.295   2.676   1.297  0.0697  0.1617 -0.4096
   40MOL   C32440182   6.170   2.734   1.308 -0.7129 -0.4162  0.1402
   40MOL   C32540183   6.110   2.789   1.194 -0.3338 -0.3338 -0.2163
   40MOL   C32640184   5.989   2.856   1.212  0.2298  0.4281  0.8065
   40MOL   C32740185   5.917   2.866   1.332 -0.2985 -0.6006 -0.0082
   40MOL   C32840186   5.788   2.950   1.343 -0.3414 -0.8164 -0.2220
   40MOL   C32940187   5.977   2.815   1.447  0.1196 -0.9546 -0.3653
   40MOL   C33040188   6.100   2.744   1.432 -0.0215 -0.8579 -0.2807
   40MOL   C33140189   6.539   2.677   1.293 -0.5919 -0.5337 -0.0975
   40MOL   C33240190   6.664   2.733   1.246 -0.0689  0.3767 -0.2362
   40MOL   C33340191   7.013   2.904   1.051 -0.1047  0.2976  0.5433
   40MOL   C33440192   7.120   2.844   0.984  0.3375  1.0720  0.2495
   40MOL   C33540193   7.459   2.642   0.802  0.2264  0.1696 -0.0417
   40MOL   C33640194   7.592   2.683   0.800 -0.5867  0.1990  0.4099
   40MOL   H33740195   7.813   2.847   0.986 -0.1492  1.8810 -0.7716
   40MOL   H33840196   7.592   2.853   1.099 -2.4105  0.5634  0.5273
   40MOL   H33940197   7.362   2.787   1.090 -0.1507  0.6683 -0.9259
   40MOL   H34040198   7.218   2.562   0.851 -2.1362 -0.4939  1.2753
   40MOL   H34140199   7.016   2.523   0.988 -2.0185 -0.4515  0.0624
   40MOL   H34240200   6.816   2.625   1.073  0.2674  0.7772 -2.2293
   40MOL   H34340201   6.798   2.996   1.098  1.2900 -0.8498 -0.7305
   40MOL   H34440202   6.555   3.008   1.091 -0.4223  0.1748  2.0047
   40MOL   H34540203   6.339   2.922   1.156  0.5284 -0.6649 -1.2009
   40MOL   H34640204   6.308   2.587   1.344  0.5536 -0.2648 -1.3288
   40MOL   H34740205   6.160   2.786   1.098 -1.0658 -2.8381 -0.5586
   40MOL   H34840206   5.946   2.905   1.126 -0.9976 -0.8808  0.6570
   40MOL   H34940207   5.704   2.889   1.312 -1.4940  1.2088 -1.2211
   40MOL   H35040208   5.781   3.028   1.267  1.5891 -0.9142 -0.5293
   40MOL   H35140209   5.936   2.816   1.547  1.5659  1.2037  0.2464
   40MOL   H35240210   6.146   2.704   1.521 -1.2935  0.4577  0.9745
   40MOL   H35340211   6.543   2.589   1.354  0.1295 -1.0348 -0.8528
   40MOL   H35440212   6.750   2.673   1.273  0.2395  0.3451 -1.2390
   40MOL   H35540213   7.008   3.011   1.066 -0.9351  0.3326  0.0562
   40MOL   H35640214   7.207   2.899   0.951 -0.5815  0.8610 -2.6467
   40MOL   H35740215   7.427   2.584   0.716  1.7691 -1.4264  0.4196
   40MOL   H35840216   7.647   2.658   0.711 -0.6719  1.2982  0.0405
   40MOL   N35940217   5.754   3.002   1.476  0.5507 -0.0594 -0.1388
   40MOL   C36040218   5.701   2.911   1.577 -0.8180  0.6017  0.4981
   40MOL   C36140219   5.699   2.960   1.707 -0.2665 -0.2532  0.3367
   40MOL   C36240220   5.663   2.875   1.812 -0.0323  0.1684  0.0242
   40MOL   C36340221   5.637   2.740   1.792  0.6267  0.5861 -0.1796
   40MOL   N36440222   5.596   2.658   1.899 -0.1438  0.1857  0.1139
   40MOL   C36540223   5.638   2.670   2.036 -0.5499 -0.3044  0.0440
   40MOL   C36640224   5.583   2.768   2.115 -0.0227 -0.6599  0.0002
   40MOL   C36740225   5.616   2.784   2.251 -0.3572 -0.3023 -0.5978
   40MOL   C36840226   5.704   2.690   2.312 -0.2115 -0.9408 -0.3882
   40MOL   N36940227   5.720   2.699   2.452  0.0594  0.5445 -0.0353
   40MOL   C37040228   5.693   2.811   2.531  0.2515 -0.0565  0.2042
   40MOL   C37140229   5.604   2.795   2.645 -0.4165  0.1067  0.9178
   40MOL   C37240230   5.574   2.903   2.728  0.3800 -0.2185  0.5127
   40MOL   C37340231   5.613   3.035   2.699  0.1954 -0.1253 -0.1121
   40MOL   N37440232   5.582   3.142   2.784 -0.0918  0.5873  0.0517
   40MOL   C37540233   5.519   3.139   2.910  0.3446 -0.4583 -0.1817
   40MOL   C37640234   5.557   3.049   3.014  0.5314  0.1713  0.4659
   40MOL   C37740235   5.499   3.054   3.136  0.2857  0.0638  0.2171
   40MOL   C37840236   5.396   3.147   3.166  0.2120  0.2114 -0.0069
   40MOL   C37940237   5.337   3.151   3.305 -0.2591  0.1169 -0.5168
   40MOL   C38040238   5.357   3.235   3.061 -0.1179 -0.6386  0.0384
   40MOL   C38140239   5.428   3.242   2.938 -0.2657 -0.0129 -0.0789
   40MOL   C38240240   5.696   3.052   2.586 -0.1681  0.0768  0.3092
   40MOL   C38340241   5.734   2.945   2.501  0.1303  0.4717  0.5698
   40MOL   C38440242   5.760   2.585   2.240 -0.1667  0.2561 -0.4421
   40MOL   C38540243   5.730   2.576   2.097  0.6629 -0.2342 -0.8164
   40MOL   C38640244   5.642   2.685   1.661 -0.2572  0.5062  0.4223
   40MOL   C38740245   5.678   2.769   1.553 -0.0129  0.5816 -0.8549
   40MOL   H38840246   5.819   3.073   1.508  0.1496 -0.0090  0.5926
   40MOL   H38940247   5.725   3.064   1.719 -0.6547  0.0795 -1.5705
   40MOL   H39040248   5.642   2.927   1.904 -0.1927 -2.6495  1.6295
   40MOL   H39140249   5.576   2.562   1.878  0.0415  0.1655  0.0281
   40MOL   H39240250   5.508   2.839   2.084 -0.0693 -0.2929  0.9271
   40MOL   H39340251   5.558   2.863   2.296 -0.0217 -0.2116 -0.3281
   40MOL   H39440252   5.709   2.618   2.513 -1.6865  0.1267 -0.8748
   40MOL   H39540253   5.569   2.698   2.676 -0.2036  0.6433  2.9083
   40MOL   H39640254   5.508   2.876   2.810 -0.3491  0.6970  0.2389
   40MOL   H39740255   5.564   3.229   2.736  1.9534  0.1792 -1.5223
   40MOL   H39840256   5.623   2.964   3.005 -1.7142 -1.5791  0.1863
   40MOL   H39940257   5.520   2.985   3.216  3.2148  0.6213 -0.0335
   40MOL   H40040258   5.417   3.166   3.378  0.8037  0.6572 -1.7529
   40MOL   H40140259   5.298   3.050   3.317  1.4682 -0.4105  0.8674
   40MOL   H40240260   5.287   3.316   3.075  2.3472  1.4100  0.9880
   40MOL   H40340261   5.397   3.301   2.853  0.3940  1.0395  0.4000
   40MOL   H40440262   5.737   3.151   2.571 -0.3996  0.2964  1.1184
   40MOL   H40540263   5.799   2.962   2.417  1.1613  1.3155  1.5201
   40MOL   H40640264   5.832   2.514   2.279 -2.0583 -0.7829  1.2407
   40MOL   H40740265   5.761   2.489   2.039 -2.2845 -1.6508 -0.3567
   40MOL   H40840266   5.616   2.582   1.642 -0.8864  0.2553  2.4701
   40MOL   H40940267   5.680   2.732   1.452  1.1422  1.4646 -1.1704
   40MOL   N41040268   5.231   3.243   3.327 -0.1073  0.5512 -0.5705
   40MOL   C41140269   5.252   3.383   3.323 -0.4206 -0.1047  0.3951
   40MOL   C41240270   5.376   3.437   3.303 -0.2079  0.0052  0.1538
   40MOL   C41340271   5.388   3.581   3.295 -0.7292  0.2755 -0.6417
   40MOL   C41440272   5.271   3.662   3.289  0.2328  0.2828  0.2648
   40MOL   N41540273   5.294   3.800   3.271  0.1934  0.2594 -0.3886
   40MOL   C41640274   5.368   3.859   3.164  0.5529  0.2774 -0.3353
   40MOL   C41740275   5.419   3.786   3.056  0.1396  0.7085  0.0958
   40MOL   C41840276   5.493   3.844   2.956  0.6950  0.0128 -0.9798
   40MOL   C41940277   5.511   3.983   2.964 -0.4015  0.6520  0.5572
   40MOL   N42040278   5.569   4.049   2.859 -0.7278  0.1491  0.2883
   40MOL   C42140279   5.674   3.992   2.783 -0.0299 -0.1458  0.1759
   40MOL   C42240280   5.679   4.034   2.650 -0.2127  0.8155 -0.0447
   40MOL   C42340281   5.797   4.007   2.582  0.7993  0.3510  0.6272
   40MOL   C42440282   5.895   3.918   2.639  0.1514  0.3893  0.0409
   40MOL   N42540283   6.008   3.883   2.567 -0.6744  0.4658  1.0132
   40MOL   C42640284   6.033   3.893   2.428  0.1812 -0.1376  0.4495
   40MOL   C42740285   5.934   3.843   2.341 -0.0389 -0.2234  0.7148
   40MOL   C42840286   5.948   3.867   2.201 -0.3824 -0.2037  0.2128
   40MOL   C42940287   6.056   3.945   2.151 -0.2765 -0.1404 -1.1568
   40MOL   C43040288   6.066   3.979   2.003  0.0578  0.0765  0.4790
   40MOL   C43140289   6.153   3.983   2.241  0.9569  0.5989  0.5173
   40MOL   C43240290   6.141   3.959   2.379  0.3681  0.0949  0.4059
   40MOL   C43340291   5.881   3.871   2.770 -0.5974  0.0849  0.1599
   40MOL   C43440292   5.767   3.904   2.843  0.3061 -0.1935 -0.4294
   40MOL   C43540293   5.453   4.056   3.069  0.5713 -0.4685  0.1829
   40MOL   C43640294   5.387   3.998   3.177 -0.6730 -0.8210 -0.1432
   40MOL   C43740295   5.144   3.599   3.304  0.3739 -0.5352  0.2730
   40MOL   C43840296   5.134   3.462   3.323  0.3876 -0.3055  0.5935
   40MOL   H43940297   5.140   3.228   3.287  0.0823  1.3089 -1.3167
   40MOL   H44040298   5.468   3.380   3.310 -0.3238  0.0650  2.6474
   40MOL   H44140299   5.485   3.627   3.290 -1.6296  2.1804 -0.8520
   40MOL   H44240300   5.238   3.869   3.319  1.3858  1.5961 -0.9056
   40MOL   H44340301   5.389   3.684   3.038  0.1643  1.2217 -3.0864
   40MOL   H44440302   5.525   3.787   2.870 -0.1817 -0.2676 -1.1221
   40MOL   H44540303   5.507   4.102   2.801  0.1670  1.0997  0.1824
   40MOL   H44640304   5.606   4.098   2.603 -0.1538  1.8980  1.2862
   40MOL   H44740305   5.816   4.042   2.482  0.9759  2.4527  1.3600
   40MOL   H44840306   6.069   3.820   2.618 -0.1009  1.1536  1.1831
   40MOL   H44940307   5.849   3.791   2.381 -0.8964 -0.2501 -1.0679
   40MOL   H45040308   5.875   3.826   2.132 -1.1099  1.2764  0.0878
   40MOL   H45140309   5.972   3.942   1.961  0.1522 -1.3414  1.4907
   40MOL   H45240310   6.144   3.922   1.954 -1.3967 -1.2508 -0.3566
   40MOL   H45340311   6.236   4.040   2.204  2.0484 -2.0059 -1.2239
   40MOL   H45440312   6.218   3.992   2.446 -0.5167 -1.1183  2.0935
   40MOL   H45540313   5.953   3.801   2.809 -0.3321  0.8115  0.9789
   40MOL   H45640314   5.756   3.870   2.944 -0.1598 -0.9454 -0.7321
   40MOL   H45740315   5.454   4.164   3.070 -0.7318 -0.4424 -0.1827
   40MOL   H45840316   5.351   4.060   3.258 -0.7108 -2.1281  0.8353
   40MOL   H45940317   5.055   3.660   3.306  1.4478  1.3330 -3.0535
   40MOL   H46040318   5.040   3.410   3.335  0.1207  0.0306 -0.0459
   40MOL   N46140319   6.070   4.124   1.989  0.2051  0.1254  0.2087
   40MOL   C46240320   6.190   4.195   1.963  0.8732 -0.2263  0.8565
   40MOL   C46340321   6.303   4.140   1.911  0.4502 -0.2683  0.9253
   40MOL   C46440322   6.413   4.217   1.873 -0.0246  0.0831  0.6426
   40MOL   C46540323   6.406   4.359   1.899 -0.2825 -0.0068  1.0758
   40MOL   N46640324   6.526   4.433   1.874 -0.3577 -0.2868  0.2869
   40MOL   C46740325   6.640   4.387   1.809  0.1997  0.5436  0.3635
   40MOL   C46840326   6.676   4.439   1.684 -0.2635 -0.0059  0.8535
   40MOL   C46940327   6.800   4.396   1.631  0.7331 -0.2016 -0.5442
   40MOL   C47040328   6.886   4.307   1.702 -0.1477  0.3796 -0.2627
   40MOL   N47140329   7.001   4.249   1.650  0.2367  0.2305  0.5222
   40MOL   C47240330   7.042   4.219   1.525 -0.1791 -0.0916 -0.2758
   40MOL   C47340331   7.178   4.252   1.489 -0.1779  0.3012  1.2950
   40MOL   C47440332   7.219   4.239   1.355 -0.2700  0.0428 -0.1263
   40MOL   C47540333   7.128   4.191   1.257 -0.8038 -0.0106 -0.3223
   40MOL   N47640334   7.155   4.175   1.116 -0.4427  0.9055  0.6391
   40MOL   C47740335   7.229   4.259   1.030  0.1044  0.3364  0.0141
   40MOL   C47840336   7.256   4.219   0.895  0.0193  0.0654 -0.3051
   40MOL   C47940337   7.310   4.318   0.813 -0.7202 -0.1552 -0.0521
   40MOL   C48040338   7.347   4.447   0.850  0.6196 -0.5010  0.1514
   40MOL   C48140339   7.396   4.542   0.752 -0.6541 -0.6877  0.4455
   40MOL   C48240340   7.319   4.487   0.983 -0.1756 -0.6556  0.2647
   40MOL   C48340341   7.270   4.384   1.075  0.0720 -0.3295  0.0078
   40MOL   C48440342   6.996   4.158   1.296  0.4989  1.0347  0.8097
   40MOL   C48540343   6.956   4.185   1.425  0.5286  0.1444  0.6065
   40MOL   C48640344   6.848   4.269   1.833 -0.0936  1.6655  0.0255
   40MOL   C48740345   6.721   4.300   1.885  0.8041 -0.5985  0.7705
   40MOL   C48840346   6.282   4.416   1.938 -0.0233  0.0091  0.3783
   40MOL   C48940347   6.183   4.334   1.982  0.4190 -0.1597 -0.0458
   40MOL   H49040348   5.981   4.168   2.006  0.6375  1.1112 -0.0181
   40MOL   H49140349   6.315   4.034   1.897 -0.6617 -0.3858  0.7543
   40MOL   H49240350   6.509   4.170   1.856 -0.7119 -1.0365 -0.1660
   40MOL   H49340351   6.514   4.534   1.876  2.9914  0.1640 -0.7851
   40MOL   H49440352   6.618   4.518   1.640  1.0380  0.2640 -0.4211
   40MOL   H49540353   6.826   4.435   1.534  0.0546  2.0898  0.1653
   40MOL   H49640354   7.062   4.224   1.726 -0.1553 -0.6652  0.5436
   40MOL   H49740355   7.239   4.278   1.575  0.0532  1.4606  0.7875
   40MOL   H49840356   7.322   4.262   1.331  0.4068  0.4451  2.9929
   40MOL   H49940357   7.099   4.102   1.075  2.3697 -0.3310 -1.1065
   40MOL   H50040358   7.233   4.125   0.847 -0.5770  0.0956 -0.0928
   40MOL   H50140359   7.333   4.283   0.713 -3.3601 -2.7272  0.1905
   40MOL   H50240360   7.387   4.647   0.781 -2.1646 -0.7006  0.0979
   40MOL   H50340361   7.317   4.533   0.677 -0.3951 -0.3704  0.1381
   40MOL   H50440362   7.337   4.589   1.015 -1.0182 -0.9029  1.5608
   40MOL   H50540363   7.248   4.413   1.177 -0.7010  1.5963 -0.6863
   40MOL   H50640364   6.937   4.118   1.215 -0.0665  1.9603  0.7517
   40MOL   H50740365   6.850   4.173   1.443  0.8741 -1.5357  1.6302
   40MOL   H50840366   6.912   4.206   1.893 -0.7072  0.7273 -0.2901
   40MOL   H50940367   6.698   4.275   1.987  0.2777  0.4608  0.9168
   40MOL   H51040368   6.267   4.522   1.956  0.6203  0.6761 -2.7799
   40MOL   H51140369   6.099   4.383   2.029  0.0081 -1.3024  0.4424
   40MOL   N51240370   7.524   4.515   0.691 -0.4440 -0.0518 -0.2834
   40MOL   C51340371   7.574   4.603   0.600 -0.3626 -0.1739  0.0966
   40MOL   C51440372   7.594   4.738   0.632 -0.0239  0.5347 -0.4101
   40MOL   C51540373   7.641   4.820   0.528  0.0957  0.3163  0.2044
   40MOL   C51640374   7.660   4.777   0.398 -0.1807  0.2421  0.1015
   40MOL   N51740375   7.707   4.874   0.306 -0.5063  0.4903  0.3552
   40MOL   C51840376   7.770   4.836   0.188 -0.1456 -1.0538  0.1091
   40MOL   C51940377   7.697   4.788   0.079 -0.4894  0.0319 -0.2876
   40MOL   C52040378   7.769   4.763   7.939  0.4810  0.3899  0.2966
   40MOL   C52140379   7.912   4.763   7.937  0.2848  0.3393 -0.5178
   40MOL   N52240380   7.970   4.708   7.825 -0.3025 -0.1829  0.4222
   40MOL   C52340381   0.120   4.679   7.803 -0.8015  0.1279  0.1878
   40MOL   C52440382   0.207   4.599   7.885 -0.1178 -0.6832 -0.0755
   40MOL   C52540383   0.344   4.584   7.849  0.9764  0.3840  0.5608
   40MOL   C52640384   0.393   4.639   7.731  1.6833 -0.1227  0.3255
   40MOL   N52740385   0.524   4.613   7.683  0.0877 -0.4365 -0.4531
   40MOL   C52840386   0.634   4.583   7.762 -0.2329 -0.2351 -0.1078
   40MOL   C52940387   0.659   4.666   7.875 -0.8704  0.5411  0.5750
   40MOL   C53040388   0.776   4.644   7.950  0.3926  0.3526  0.1720
   40MOL   C53140389   0.863   4.536   7.913 -0.6326 -0.1563  0.3516
   40MOL   C53240390   1.000   4.507   0.008  0.2520  0.3685 -0.3873
   40MOL   C53340391   0.836   4.464   7.797  0.7640 -0.3756 -0.0027
   40MOL   C53440392   0.727   4.484   7.719 -0.0927 -0.4630  0.1395
   40MOL   C53540393   0.309   4.709   7.646  0.0734  0.9686 -0.3119
   40MOL   C53640394   0.175   4.729   7.682  0.3451 -0.5467 -0.2993
   40MOL   C53740395   7.982   4.796   0.074 -0.1661  0.3478 -0.5045
   40MOL   C53840396   7.908   4.838   0.185  0.5036  0.3405  0.0254
   40MOL   C53940397   7.634   4.640   0.362 -0.3900  0.5505 -0.6785
   40MOL   C54040398   7.593   4.551   0.468 -0.7126 -0.5240 -0.4040
   40MOL   H54140399   7.523   4.420   0.657 -2.5219  0.9128 -3.1186
   40MOL   H54240400   7.569   4.776   0.729  1.8633 -0.2467  0.4131
   40MOL   H54340401   7.671   4.921   0.554 -0.4968  0.5664 -0.0877
   40MOL   H54440402   7.747   4.963   0.332 -0.0463  0.7742 -1.2721
   40MOL   H54540403   7.590   4.791   0.072 -0.5576 -1.6665 -0.1154
   40MOL   H54640404   7.709   4.731   7.855 -2.1788  2.0683  1.5049
   40MOL   H54740405   7.917   4.736   7.744 -0.3665 -2.4458 -0.3422
   40MOL   H54840406   0.173   4.550   7.975  1.5706  0.0391  0.9855
   40MOL   H54940407   0.409   4.522   7.909 -1.1837 -1.3196  1.2006
   40MOL   H55040408   0.542   4.615   7.583 -1.3785 -2.1695 -0.7743
   40MOL   H55140409   0.590   4.742   7.909  1.1961  1.7594  2.1587
   40MOL   H55240410   0.795   4.712   0.049  0.2196  1.6787 -0.8692
   40MOL   H55340411   1.078   4.503   7.914  0.6069 -1.7408  0.0523
   40MOL   H55440412   0.991   4.412   0.062  0.2453  0.8560  0.4828
   40MOL   H55540413   0.893   4.376   7.770  1.9052  0.7569 -1.3153
   40MOL   H55640414   0.706   4.422   7.633 -0.0908 -0.9798  0.5037
   40MOL   H55740415   0.340   4.748   7.550 -3.2447  0.9847 -1.4555
   40MOL   H55840416   0.103   4.781   7.621 -0.3074 -0.0482  0.8816
   40MOL   H55940417   0.106   4.810   0.088 -0.2740 -0.2243  0.9119
   40MOL   H56040418   7.973   4.870   0.265 -0.2474 -0.7085  1.0756
   40MOL   H56140419   7.663   4.601   0.265 -0.9667 -0.2567 -0.5270
   40MOL   H56240420   7.571   4.450   0.440 -0.4305 -0.4551 -0.8771
   40MOL   N56340421   1.044   4.622   0.098 -0.1475  0.2394 -0.3479
   40MOL   C56440422   1.010   4.642   0.230  0.4734  0.2771  0.6613
   40MOL   C56540423   0.932   4.546   0.302  0.2373  0.0236 -0.4735
   40MOL   C56640424   0.892   4.583   0.434 -0.0107 -0.1526 -0.6158
   40MOL   C56740425   0.926   4.704   0.500 -0.1119  0.2653  0.3357
   40MOL   N56840426   0.892   4.729   0.631  0.6460 -0.7841 -0.1178
   40MOL   C56940427   0.977   4.780   0.730  0.4740  0.1406  0.5303
   40MOL   C57040428   1.109   4.831   0.720 -0.1883  0.1945  0.7728
   40MOL   C57140429   1.183   4.892   0.821 -0.3451 -0.0834  1.3122
   40MOL   C57240430   1.122   4.906   0.947  0.0039  0.6990  0.2135
   40MOL   N57340431   1.186   4.963   1.054 -0.1106  0.2056 -0.4704
   40MOL   C57440432   1.318   5.017   1.070  0.1874 -0.5816  1.0210
   40MOL   C57540433   1.327   5.134   1.148 -0.4488  1.1765 -0.5068
   40MOL   C57640434   1.452   5.186   1.181  0.7353  0.3318 -0.0127
   40MOL   C57740435   1.569   5.130   1.133 -0.3027 -0.1350 -0.6191
   40MOL   N57840436   1.690   5.191   1.171  0.1076  0.1991 -0.2045
   40MOL   C57940437   1.781   5.241   1.076  0.1797 -0.5586 -0.8523
   40MOL   C58040438   1.913   5.265   1.124  0.7892  0.7517  0.6107
   40MOL   C58140439   2.009   5.313   1.033  0.2193  0.4516  0.6162
   40MOL   C58240440   1.979   5.335   0.898  0.5065  0.1210 -0.5399
   40MOL   C58340441   2.087   5.382   0.796  0.4357 -0.1730 -1.1741
   40MOL   C58440442   1.846   5.309   0.854  0.1616  0.4391  0.1711
   40MOL   C58540443   1.754   5.267   0.946 -0.5035 -0.1868  0.1280
   40MOL   C58640444   1.560   5.006   1.064 -0.4939  0.0089 -0.2528
   40MOL   C58740445   1.435   4.949   1.028  0.3982 -0.2012 -0.7618
   40MOL   C58840446   1.000   4.840   0.972 -0.4144 -0.4299 -0.5494
   40MOL   C58940447   0.921   4.791   0.866 -0.4014  0.0906  0.7091
   40MOL   C59040448   1.001   4.798   0.420  0.5121 -0.3183  0.3406
   40MOL   C59140449   1.040   4.769   0.288  1.1765 -0.0877  0.4168
   40MOL   H59240450   1.123   4.677   0.067 -0.2459  0.6936  0.2170
   40MOL   H59340451   0.904   4.454   0.255  0.1848 -0.2088  0.0042
   40MOL   H59440452   0.834   4.514   0.494 -0.2389  1.8229  1.5061
   40MOL   H59540453   0.809   4.684   0.669 -0.3261  1.0723  0.0008
   40MOL   H59640454   1.155   4.818   0.624  0.8645 -0.0860  1.3041
   40MOL   H59740455   1.283   4.933   0.813  0.2812 -1.3728  2.3447
   40MOL   H59840456   1.129   4.974   1.137  0.0370 -0.6540 -0.2557
   40MOL   H59940457   1.242   5.183   1.192  0.9183 -0.1117  3.8567
   40MOL   H60040458   1.438   5.273   1.244 -2.0481  0.5931 -0.9028
   40MOL   H60140459   1.705   5.234   1.262 -0.6349  1.5826 -0.7334
   40MOL   H60240460   1.929   5.247   1.229 -0.2156 -0.9291  0.4880
   40MOL   H60340461   2.108   5.331   1.071  0.8364 -0.9891 -0.3041
   40MOL   H60440462   2.174   5.435   0.835  0.5944 -1.4460  0.2690
   40MOL   H60540463   2.040   5.455   0.730 -3.1354 -0.6027  0.7198
   40MOL   H60640464   1.818   5.336   0.753 -1.3823 -2.0400 -0.1055
   40MOL   H60740465   1.657   5.233   0.913  0.3823 -3.1595  0.4514
   40MOL   H60840466   1.649   4.968   1.015  1.0762  1.3512  1.5016
   40MOL   H60940467   1.434   4.854   0.977  0.7507 -0.2017 -0.7677
   40MOL   H61040468   0.967   4.838   1.075  0.3182 -1.0052 -0.3256
   40MOL   H61140469   0.818   4.765   0.886 -0.5077  0.4169  0.5834
   40MOL   H61240470   1.038   4.884   0.474  0.4533 -0.5343  0.7270
   40MOL   H61340471   1.097   4.841   0.231 -1.7601  1.9292 -0.1073
   40MOL   N61440472   2.113   5.275   0.704  0.5447 -0.8469 -0.0440
   40MOL   C61540473   2.168   5.158   0.754  0.0154  0.7429  0.5072
   40MOL   C61640474   2.127   5.037   0.687  0.3074  0.2256 -0.0098
   40MOL   C61740475   2.162   4.914   0.745  0.0952 -0.1775 -0.5016
   40MOL   C61840476   2.249   4.909   0.852  0.7773  0.0358 -0.4814
   40MOL   N61940477   2.293   4.784   0.902  0.5758 -0.1305 -0.1099
   40MOL   C62040478   2.289   4.744   1.033 -0.8499  0.2986  0.1259
   40MOL   C62140479   2.367   4.629   1.072 -0.7418  0.2391 -0.5330
   40MOL   C62240480   2.365   4.580   1.202  0.0701 -0.2043 -0.6945
   40MOL   C62340481   2.284   4.646   1.294  0.3547  0.6641 -0.4218
   40MOL   N62440482   2.287   4.592   1.423  0.6970 -0.2229 -0.5396
   40MOL   C62540483   2.302   4.666   1.541 -0.0182 -0.2035  0.0536
   40MOL   C62640484   2.385   4.773   1.541  0.3442 -0.1087 -0.4763
   40MOL   C62740485   2.378   4.857   1.656  0.1128  0.0185  0.8030
   40MOL   C62840486   2.293   4.828   1.762  0.0767 -0.2699  0.1541
   40MOL   N62940487   2.303   4.911   1.876  0.2385  0.8041 -0.0850
   40MOL   C63040488   2.197   4.925   1.970 -0.4610 -0.0382 -0.0346
   40MOL   C63140489   2.057   4.921   1.930 -0.3257 -0.0143 -0.1336
   40MOL   C63240490   1.959   4.951   2.025 -0.5095  0.4561 -0.8845
   40MOL   C63340491   1.998   4.980   2.156 -0.0887 -0.2295 -0.4005
   40MOL   C63440492   1.896   5.005   2.263 -0.0170  0.6201  0.0623
   40MOL   C63540493   2.131   4.970   2.197  0.8106 -0.2895  0.0400
   40MOL   C63640494   2.235   4.958   2.104 -0.5252  0.4391 -0.0563
   40MOL   C63740495   2.231   4.707   1.768  0.0491 -0.4926  0.0348
   40MOL   C63840496   2.230   4.628   1.655 -0.2418  0.4264 -0.1715
   40MOL   C63940497   2.202   4.758   1.261  0.7581  0.3268 -0.6706
   40MOL   C64040498   2.213   4.814   1.133  0.7394  0.1278 -0.0518
   40MOL   C64140499   2.295   5.030   0.911  0.0172  0.1106  0.0884
   40MOL   C64240500   2.256   5.155   0.867  0.1099 -0.0370  0.4345
   40MOL   H64340501   2.046   5.256   0.631  0.8108  1.4244 -0.9185
   40MOL   H64440502   2.059   5.027   0.604  0.0066  1.9287  0.0117
   40MOL   H64540503   2.130   4.820   0.701 -0.7049 -2.0435  3.7858
   40MOL   H64640504   2.317   4.718   0.830  0.0755  0.2091 -0.5890
   40MOL   H64740505   2.430   4.582   0.998 -2.0118 -1.5845 -0.4876
   40MOL   H64840506   2.421   4.495   1.237 -0.0487  0.0116  0.0180
   40MOL   H64940507   2.235   4.507   1.437  1.5592 -0.7978 -0.7547
   40MOL   H65040508   2.452   4.787   1.457 -1.3843 -1.9233 -2.2068
   40MOL   H65140509   2.445   4.942   1.648  1.8894 -1.5621 -2.0647
   40MOL   H65240510   2.389   4.960   1.892  1.1111 -0.9135  0.6585
   40MOL   H65340511   2.017   4.911   1.830 -1.3074 -0.6123  0.3211
   40MOL   H65440512   1.853   4.959   2.009 -1.0358  0.1828  2.2082
   40MOL   H65540513   1.817   5.065   2.220 -1.3320 -0.2508  1.2041
   40MOL   H65640514   1.940   5.066   2.342  0.7951 -1.1891  1.0433
   40MOL   H65740515   2.156   4.999   2.298 -1.6937  1.3348  0.2479
   40MOL   H65840516   2.338   4.953   2.135 -1.1419 -0.1392  1.9552
   40MOL   H65940517   2.182   4.689   1.863  0.0484 -1.9389 -0.2249
   40MOL   H66040518   2.171   4.538   1.662  1.1307 -0.2210  4.6952
   40MOL   H66140519   2.156   4.815   1.341  0.3131  0.1083 -0.7706
   40MOL   H66240520   2.166   4.909   1.112  2.8044  1.4201  0.9123
   40MOL   H66340521   2.365   5.022   0.993  1.0949  0.7067 -0.7581
   40MOL   H66440522   2.286   5.250   0.909  0.9460 -0.0815 -0.0317
   40MOL   N66540523   1.821   4.887   2.311 -0.0632  0.3726  0.0009
   40MOL   C66640524   1.847   4.809   2.422 -1.0390  1.1919 -0.9783
   40MOL   C66740525   1.950   4.841   2.510  0.0153 -0.3398 -0.2840
   40MOL   C66840526   1.983   4.752   2.621  0.5265  0.0633 -0.0631
   40MOL   C66940527   1.915   4.632   2.641 -0.1046  0.4810 -0.5215
   40MOL   N67040528   1.948   4.556   2.752  0.2337  0.8483  0.0171
   40MOL   C67140529   1.931   4.594   2.884  0.1044 -0.0606  0.3504
   40MOL   C67240530   1.924   4.729   2.925  0.0147 -0.5182 -0.5310
   40MOL   C67340531   1.907   4.763   3.062 -0.2080 -0.7366  0.3027
   40MOL   C67440532   1.908   4.667   3.159  0.2984  0.5923  0.1513
   40MOL   N67540533   1.914   4.714   3.291 -0.3842 -0.0257  0.0369
   40MOL   C67640534   1.875   4.650   3.408 -0.5229  0.2227 -0.2444
   40MOL   C67740535   1.948   4.666   3.527  0.4479 -0.3220  0.2261
   40MOL   C67840536   1.904   4.593   3.641 -0.2044 -0.5451  0.6120
   40MOL   C67940537   1.785   4.518   3.635 -0.0199  0.1658  0.4260
   40MOL   N68040538   1.730   4.462   3.750  0.3224  0.2985  0.2085
   40MOL   C68140539   1.770   4.482   3.884  0.1154 -0.0861  0.4764
   40MOL   C68240540   1.670   4.522   3.975 -0.1147  0.7383 -0.2980
   40MOL   C68340541   1.703   4.533   4.111  0.8073 -0.1255  0.3969
   40MOL   C68440542   1.831   4.498   4.159  0.5046 -0.6801  0.3592
   40MOL   C68540543   1.886   4.510   4.295  0.5375 -0.3755  0.5466
   40MOL   C68640544   1.928   4.460   4.063  0.3415 -0.6276  0.1525
   40MOL   C68740545   1.902   4.453   3.930 -0.3861  0.7442  0.4294
   40MOL   C68840546   1.716   4.503   3.515 -0.1062  0.7364 -0.1312
   40MOL   C68940547   1.761   4.571   3.402  0.2480 -0.4227 -0.0213
   40MOL   C69040548   1.916   4.529   3.124 -0.5182 -0.5209 -1.0849
   40MOL   C69140549   1.921   4.494   2.987  0.5922  0.1566 -0.1708
   40MOL   C69240550   1.802   4.604   2.558 -0.7063 -0.4385 -0.4204
   40MOL   C69340551   1.766   4.696   2.448 -0.1962  0.2438  0.1804
   40MOL   H69440552   1.732   4.871   2.266 -0.5668  0.0142  1.1044
   40MOL   H69540553   2.020   4.922   2.491 -0.3499 -0.1863 -0.9966
   40MOL   H69640554   2.077   4.774   2.671  1.8035 -2.3303 -1.3415
   40MOL   H69740555   1.950   4.456   2.740 -0.8744  1.1584 -3.3243
   40MOL   H69840556   1.940   4.816   2.863 -2.8107  0.4362 -0.0064
   40MOL   H69940557   1.917   4.866   3.092  1.2334 -0.2975 -1.5819
   40MOL   H70040558   1.965   4.799   3.311 -0.3761 -0.0141 -0.0315
   40MOL   H70140559   2.040   4.722   3.531  0.4507 -0.2677 -0.4703
   40MOL   H70240560   1.962   4.607   3.731  2.9095 -1.4223 -1.2048
   40MOL   H70340561   1.637   4.425   3.737  1.4731 -1.9003 -2.2293
   40MOL   H70440562   1.569   4.545   3.944 -0.6384 -2.8243 -1.4736
   40MOL   H70540563   1.624   4.574   4.173  0.1263  0.6349 -0.9437
   40MOL   H70640564   1.927   4.413   4.321 -1.7644 -1.4054  0.4419
   40MOL   H70740565   1.805   4.527   4.366  0.9670 -0.3651  1.0321
   40MOL   H70840566   2.031   4.438   4.087  1.1869  0.4458 -2.2572
   40MOL   H70940567   1.971   4.421   3.852 -0.4353  2.8239 -0.4980
   40MOL   H71040568   1.620   4.452   3.513  0.4915 -0.3922 -0.7172
   40MOL   H71140569   1.702   4.560   3.312  0.0420 -0.3466  0.1057
   40MOL   H71240570   1.925   4.458   3.205 -0.2219  1.0053  0.2458
   40MOL   H71340571   1.921   4.389   2.961 -1.4365 -0.5803  2.6471
   40MOL   H71440572   1.741   4.519   2.581 -1.4259  0.0759 -0.4296
   40MOL   H71540573   1.682   4.665   2.386  0.7913  0.8931 -1.5269
   40MOL   N71640574   1.995   4.607   4.306 -0.1486 -0.3159  0.2249
   40MOL   C71740575   2.124   4.570   4.350 -0.2773  0.2174  0.3206
   40MOL   C71840576   2.242   4.610   4.279 -0.2829  0.2068  0.6567
   40MOL   C71940577   2.375   4.603   4.333  0.2650  0.1949  0.6071
   40MOL   C72040578   2.384   4.568   4.467  0.0908 -0.0749 -0.9150
   40MOL   N72140579   2.507   4.567   4.526  0.1333 -0.4400 -1.0461
   40MOL   C72240580   2.546   4.651   4.633  0.3995 -0.0467  0.0439
   40MOL   C72340581   2.455   4.726   4.710 -0.5051 -0.3318  0.0448
   40MOL   C72440582   2.503   4.804   4.817 -0.1774 -0.0411  0.0809
   40MOL   C72540583   2.640   4.803   4.855  0.2112  1.4302  0.2683
   40MOL   N72640584   2.699   4.868   4.967  0.4192  0.0948  0.3590
   40MOL   C72740585   2.820   4.865   5.033  0.1572  0.0891  0.1417
   40MOL   C72840586   2.890   4.741   5.055 -0.7004 -0.6720 -0.1108
   40MOL   C72940587   3.003   4.743   5.136  0.1578 -0.1597  0.2697
   40MOL   C73040588   3.045   4.860   5.202  0.0647 -0.9746 -0.0769
   40MOL   N73140589   3.154   4.853   5.293  0.0786 -0.2439  0.0801
   40MOL   C73240590   3.259   4.763   5.291  0.5251 -0.4808 -0.6676
   40MOL   C73340591   3.257   4.649   5.373  0.7359 -0.2052 -0.0953
   40MOL   C73440592   3.359   4.551   5.357  0.2991 -0.0415 -0.5058
   40MOL   C73540593   3.465   4.580   5.270  0.9517 -0.0286 -0.2315
   40MOL   C73640594   3.584   4.487   5.268  0.4191  0.2592 -1.2561
   40MOL   C73740595   3.470   4.693   5.189 -0.6852  0.3990  1.0179
   40MOL   C73840596   3.371   4.789   5.200 -0.1745  0.3293  0.6544
   40MOL   C73940597   2.976   4.980   5.180 -0.5710  0.1321 -0.1068
   40MOL   C74040598   2.865   4.982   5.092 -0.1843 -0.0797  0.0917
   40MOL   C74140599   2.730   4.731   4.772 -0.7016  0.4289  0.0244
   40MOL   C74240600   2.683   4.654   4.664 -0.3536  0.7541 -0.5321
   40MOL   C74340601   2.272   4.531   4.548 -0.7175  0.0169  0.4458
   40MOL   C74440602   2.142   4.533   4.487 -0.3257  0.2415  0.5832
   40MOL   H74540603   1.994   4.679   4.235 -0.8438 -0.9081 -0.3701
   40MOL   H74640604   2.240   4.652   4.179  1.8866  1.1885  0.9811
   40MOL   H74740605   2.458   4.652   4.284 -0.3934 -0.4168 -1.1557
   40MOL   H74840606   2.577   4.531   4.462  1.0765  0.5895 -0.6197
   40MOL   H74940607   2.349   4.727   4.691 -0.3510  0.9975 -0.7709
   40MOL   H75040608   2.435   4.864   4.875  0.4476 -0.1958  0.9762
   40MOL   H75140609   2.640   4.940   5.006  1.4974  1.1488  0.0704
   40MOL   H75240610   2.852   4.655   5.001  0.2930 -0.9567 -0.3645
   40MOL   H75340611   3.059   4.653   5.154 -0.5871 -0.6801  0.0267
   40MOL   H75440612   3.166   4.940   5.344  1.1608 -2.0028  2.8959
   40MOL   H75540613   3.174   4.645   5.442 -1.4186 -1.4456 -2.6563
   40MOL   H75640614   3.373   4.459   5.411 -0.1358 -1.0449 -2.0507
   40MOL   H75740615   3.609   4.466   5.372  1.0356  2.2794 -0.9784
   40MOL   H75840616   3.666   4.539   5.220  1.7786 -0.0142  0.6797
   40MOL   H75940617   3.549   4.707   5.117 -0.2634 -2.6832  0.7942
   40MOL   H76040618   3.382   4.886   5.153 -4.1497  0.3497 -0.4047
   40MOL   H76140619   3.011   5.067   5.233  1.2114 -1.4106  1.3143
   40MOL   H76240620   2.808   5.074   5.090  0.0032  0.0262 -0.8806
   40MOL   H76340621   2.835   4.751   4.786 -0.4974  0.5787 -1.6291
   40MOL   H76440622   2.752   4.587   4.614  0.2725  1.4104 -0.5487
   40MOL   H76540623   2.279   4.523   4.655 -1.0600  0.1708  0.4804
   40MOL   H76640624   2.054   4.501   4.541 -1.2581 -0.0153 -1.0384
   40MOL   N76740625   3.557   4.358   5.208 -0.3493 -0.2690  0.5079
   40MOL   C76840626   3.650   4.266   5.191  0.5841 -0.6223  0.1213
   40MOL   C76940627   3.768   4.252   5.279  0.1767 -0.0129  0.0559
   40MOL   C77040628   3.836   4.130   5.269  0.6148  0.2896 -0.5330
   40MOL   C77140629   3.798   4.025   5.182  0.3317  0.3278  0.8273
   40MOL   N77240630   3.875   3.900   5.181  0.3596 -0.0077 -0.0551
   40MOL   C77340631   3.821   3.782   5.228 -0.5513 -0.6354 -0.1513
   40MOL   C77440632   3.876   3.663   5.178 -0.2181 -0.2307 -0.0980
   40MOL   C77540633   3.823   3.542   5.218 -0.0681  0.7263  0.2600
   40MOL   C77640634   3.700   3.542   5.291  0.0533  0.3165 -0.1538
   40MOL   N77740635   3.638   3.424   5.335 -0.5500 -0.4048 -0.6277
   40MOL   C77840636   3.628   3.305   5.262  0.3305  0.7078  0.1818
   40MOL   C77940637   3.600   3.185   5.328  0.0562  0.4866 -0.2828
   40MOL   C78040638   3.572   3.064   5.261 -0.0963 -0.3924 -0.1021
   40MOL   C78140639   3.589   3.061   5.117  0.2619 -0.2875 -0.2753
   40MOL   N78240640   3.555   2.949   5.048  0.2419  0.1289  0.1046
   40MOL   C78340641   3.550   2.943   4.910 -0.6883  0.8112 -0.5417
   40MOL   C78440642   3.434   2.899   4.846  0.1790  0.4655  0.1423
   40MOL   C78540643   3.435   2.884   4.709  0.5218 -0.5103 -0.2234
   40MOL   C78640644   3.548   2.927   4.629 -0.0476 -0.7296 -0.4386
   40MOL   C78740645   3.543   2.912   4.479  0.1980  0.1885 -0.5485
   40MOL   C78840646   3.662   2.971   4.696 -0.2686  0.0687 -0.1346
   40MOL   C78940647   3.660   2.976   4.835 -0.6246  0.0069 -0.6308
   40MOL   C79040648   3.632   3.180   5.054 -0.0879  0.0784  0.1276
   40MOL   C79140649   3.644   3.302   5.123  0.3664  0.1327  0.3700
   40MOL   C79240650   3.652   3.660   5.345 -0.2587  0.2770  0.3033
   40MOL   C79340651   3.708   3.780   5.313  0.3622 -0.8735 -0.1963
   40MOL   C79440652   3.688   4.041   5.099 -0.5962 -0.1575  0.0270
   40MOL   C79540653   3.620   4.164   5.102 -0.2711 -0.1827  1.0032
   40MOL   H79640654   3.470   4.345   5.160  1.1516 -1.4932 -1.9399
   40MOL   H79740655   3.800   4.324   5.354 -1.2953 -1.0173  1.6642
   40MOL   H79840656   3.917   4.112   5.338  0.5581  1.1603 -0.2248
   40MOL   H79940657   3.970   3.914   5.214  1.1659  0.7542 -2.5936
   40MOL   H80040658   3.961   3.670   5.111 -1.1270  0.6386 -1.1858
   40MOL   H80140659   3.877   3.455   5.182 -0.6593  1.0293 -1.4027
   40MOL   H80240660   3.583   3.437   5.419  0.0154  2.0649 -0.6000
   40MOL   H80340661   3.593   3.180   5.436 -1.4451 -2.7468 -0.4606
   40MOL   H80440662   3.533   2.980   5.317 -2.5246  0.4186 -0.5254
   40MOL   H80540663   3.492   2.893   5.104  2.2621 -0.1867  2.1269
   40MOL   H80640664   3.341   2.877   4.896  0.9340 -2.2004  0.4106
   40MOL   H80740665   3.350   2.850   4.651 -0.2441  0.5060  0.2778
   40MOL   H80840666   3.589   2.998   4.431 -1.1340  0.6080 -1.0966
   40MOL   H80940667   3.436   2.902   4.459 -0.1122 -3.4682  2.4549
   40MOL   H81040668   3.745   3.010   4.638 -1.1009 -1.6375 -2.5467
   40MOL   H81140669   3.750   3.012   4.883 -0.9562  0.9575 -0.7029
   40MOL   H81240670   3.638   3.197   4.948 -0.8104 -1.1799 -0.1304
   40MOL   H81340671   3.689   3.385   5.071 -3.0844  3.3987  2.3524
   40MOL   H81440672   3.560   3.663   5.400  0.7590  1.5389  1.9847
   40MOL   H81540673   3.663   3.868   5.357 -0.7934 -1.9110  0.7392
   40MOL   H81640674   3.670   3.962   5.028 -0.3244 -0.5421  0.3803
   40MOL   H81740675   3.530   4.173   5.043  0.8727 -1.5025 -0.9963
   40MOL   N81840676   3.607   2.794   4.424 -0.2357 -0.1219  0.6462
   40MOL   C81940677   3.639   2.776   4.288  0.0549  0.6329 -0.1852
   40MOL   C82040678   3.576   2.847   4.187 -0.2874 -0.1115  0.5083
   40MOL   C82140679   3.609   2.829   4.052 -0.1270 -0.0643 -0.2150
   40MOL   C82240680   3.707   2.733   4.021  0.0100  0.3536 -0.4680
   40MOL   N82340681   3.746   2.719   3.886 -0.1382  0.0419  0.1974
   40MOL   C82440682   3.704   2.616   3.798 -0.5360  0.2094 -0.3837
   40MOL   C82540683   3.707   2.650   3.657  0.2454  0.4622  1.1519
   40MOL   C82640684   3.652   2.555   3.571 -0.2775  0.2014  0.2266
   40MOL   C82740685   3.619   2.428   3.610 -0.0683 -0.3626 -0.1230
   40MOL   N82840686   3.578   2.344   3.507 -0.5600  0.1059 -0.4137
   40MOL   C82940687   3.572   2.205   3.509 -1.0380  0.5052  0.3599
   40MOL   C83040688   3.463   2.135   3.446  0.3767  0.1549  0.4351
   40MOL   C83140689   3.462   1.998   3.430  0.3689  0.1960 -0.2555
   40MOL   C83240690   3.571   1.918   3.471 -0.1520  0.3707  0.1737
   40MOL   N83340691   3.569   1.776   3.451  0.1527  0.3619  0.2560
   40MOL   C83440692   3.682   1.688   3.440  0.1361 -0.1093 -0.1433
   40MOL   C83540693   3.813   1.727   3.417 -0.7564  0.2050  0.5647
   40MOL   C83640694   3.908   1.624   3.402 -0.3678  0.2711  0.4807
   40MOL   C83740695   3.879   1.488   3.434  0.7896  0.2662  0.2774
   40MOL   C83840696   3.976   1.375   3.444 -0.9845  0.5737 -0.5144
   40MOL   C83940697   3.747   1.453   3.465  0.7549  0.5576  0.0702
   40MOL   C84040698   3.648   1.554   3.464 -0.6469  0.5318 -0.1407
   40MOL   C84140699   3.676   1.979   3.541 -0.1820  0.1505  0.2257
   40MOL   C84240700   3.682   2.126   3.554  0.7126  0.2631 -0.8094
   40MOL   C84340701   3.634   2.394   3.748 -0.0647  0.1956  0.5647
   40MOL   C84440702   3.661   2.491   3.846 -0.2452  0.1154 -0.0675
   40MOL   C84540703   3.766   2.657   4.120 -1.2138 -0.2279 -0.1083
   40MOL   C84640704   3.738   2.682   4.258 -0.7618  0.0323  0.1550
   40MOL   H84740705   3.646   2.722   4.484 -0.3670 -1.5089 -0.8820
   40MOL   H84840706   3.499   2.922   4.199 -0.0116 -0.0204  1.8597
   40MOL   H84940707   3.565   2.890   3.974 -1.0869 -0.1800  0.2263
   40MOL   H85040708   3.762   2.802   3.832 -1.8053 -0.1973 -0.6908
   40MOL   H85140709   3.737   2.750   3.629  1.3997  0.3443  1.9114
   40MOL   H85240710   3.644   2.583   3.467 -0.1926 -1.9816 -0.3852
   40MOL   H85340711   3.571   2.390   3.418 -0.3720 -0.6434 -0.8162
   40MOL   H85440712   3.387   2.195   3.397  0.7292  1.0165  0.9295
   40MOL   H85540713   3.371   1.948   3.402 -0.2700 -0.1709  2.2942
   40MOL   H85640714   3.478   1.732   3.445  0.3348  0.0955 -0.6547
   40MOL   H85740715   3.843   1.823   3.378  1.3623 -0.1278  1.2625
   40MOL   H85840716   3.997   1.659   3.352  1.2706 -1.4548  2.0841
   40MOL   H85940717   3.984   1.332   3.344  0.8755  2.7843 -1.3404
   40MOL   H86040718   3.952   1.301   3.521  2.6691 -0.0025  0.1415
   40MOL   H86140719   3.713   1.352   3.477  0.7765  0.3045 -1.8236
   40MOL   H86240720   3.550   1.524   3.499  0.9557 -2.7774  1.8496
   40MOL   H86340721   3.762   1.921   3.572  0.0481  1.8367  2.9319
   40MOL   H86440722   3.764   2.178   3.601  0.0543  2.3521 -1.9151
   40MOL   H86540723   3.600   2.297   3.782  0.0594 -0.2812 -0.6415
   40MOL   H86640724   3.647   2.466   3.950 -1.7334 -0.5246 -0.4006
   40MOL   H86740725   3.844   2.584   4.106 -3.0002 -2.5048  1.5064
   40MOL   H86840726   3.797   2.632   4.333  0.2315 -0.4926 -0.9476
   40MOL   N86940727   4.106   1.418   3.480  0.8010  0.6101 -0.1074
   40MOL   C87040728   4.137   1.503   3.585  0.0130 -0.3062  0.7166
   40MOL   C87140729   4.254   1.576   3.596 -0.3092  0.3333  0.2542
   40MOL   C87240730   4.291   1.650   3.712 -0.0227  0.2417  0.3303
   40MOL   C87340731   4.200   1.657   3.823 -0.0878  0.2147 -0.2367
   40MOL   N87440732   4.242   1.710   3.944 -0.3789  0.1888 -0.1617
   40MOL   C87540733   4.230   1.643   4.063 -0.1538  0.9582  0.7967
   40MOL   C87640734   4.227   1.713   4.182 -0.5635  0.4917 -0.5471
   40MOL   C87740735   4.214   1.654   4.309 -0.0906 -0.0763 -0.9443
   40MOL   C87840736   4.204   1.509   4.312  0.2371  0.3055  0.2049
   40MOL   N87940737   4.188   1.442   4.437  0.0414  0.2338 -0.0491
   40MOL   C88040738   4.104   1.478   4.546  0.5830  0.2210  0.7994
   40MOL   C88140739   4.129   1.418   4.667  0.2262  0.4677 -0.5221
   40MOL   C88240740   4.051   1.461   4.779 -0.5420  0.6188 -1.0362
   40MOL   C88340741   3.952   1.563   4.764  0.0720  0.3435 -0.7432
   40MOL   N88440742   3.893   1.617   4.876 -0.5330  0.6439 -0.2692
   40MOL   C88540743   3.779   1.693   4.887 -0.1389  0.3181  0.1161
   40MOL   C88640744   3.661   1.680   4.799  0.3853  0.2513 -0.2927
   40MOL   C88740745   3.544   1.745   4.834 -0.4200 -0.2310  0.3428
   40MOL   C88840746   3.546   1.844   4.935 -0.1176  0.0997  0.4908
   40MOL   C88940747   3.427   1.941   4.948 -0.6106  0.7201 -0.1176
   40MOL   C89040748   3.663   1.872   5.011  0.2671  0.1877 -0.0250
   40MOL   C89140749   3.772   1.792   4.989 -0.3906  0.2086  0.4971
   40MOL   C89240750   3.924   1.607   4.637  0.4603  0.3632 -0.6145
   40MOL   C89340751   3.995   1.568   4.530 -0.2324 -0.3434 -1.0649
   40MOL   C89440752   4.198   1.437   4.192 -0.2175 -0.5031 -0.6330
   40MOL   C89540753   4.204   1.505   4.069 -0.0854 -0.1178 -0.1269
   40MOL   C89640754   4.079   1.586   3.813 -0.4234  0.3558 -0.5561
   40MOL   C89740755   4.049   1.517   3.697  0.2449  0.0582  0.3997
   40MOL   H89840756   4.176   1.407   3.408  2.6955 -3.2540  2.1557
   40MOL   H89940757   4.333   1.568   3.523 -2.7199  0.6288 -2.4981
   40MOL   H90040758   4.388   1.697   3.713  0.2325 -0.2319 -1.0123
   40MOL   H90140759   4.318   1.777   3.940  0.5988 -0.8440  0.5833
   40MOL   H90240760   4.255   1.817   4.186 -1.0526  0.6254 -0.6131
   40MOL   H90340761   4.227   1.695   4.408  0.0190 -0.9024 -0.6132
   40MOL   H90440762   4.246   1.362   4.458 -1.6199 -0.9970 -0.0949
   40MOL   H90540763   4.208   1.347   4.684  1.0767  1.6126  0.4097
   40MOL   H90640764   4.068   1.423   4.879  1.9491 -0.8288 -1.9630
   40MOL   H90740765   3.932   1.595   4.967 -1.7906 -1.8918 -0.3022
   40MOL   H90840766   3.655   1.605   4.722 -0.1250  0.5205 -0.5172
   40MOL   H90940767   3.455   1.729   4.776  1.2020 -1.6194 -1.8653
   40MOL   H91040768   3.365   1.938   4.858  1.6681 -2.3589 -1.6843
   40MOL   H91140769   3.481   2.035   4.961  0.3453  0.0301  0.9746
   40MOL   H91240770   3.658   1.957   5.077 -2.0652 -0.2715  0.4521
   40MOL   H91340771   3.866   1.812   5.038  0.0738  1.3899 -0.8333
   40MOL   H91440772   3.851   1.683   4.617 -2.8189 -2.2089  1.1682
   40MOL   H91540773   3.985   1.622   4.437 -0.4201  2.5614  0.5547
   40MOL   H91640774   4.189   1.329   4.189  0.5340 -0.6984  2.7823
   40MOL   H91740775   4.210   1.446   3.978  0.9675  0.1889 -0.2663
   40MOL   H91840776   4.006   1.595   3.892  0.4070  0.1136  0.2393
   40MOL   H91940777   3.958   1.460   3.706 -0.0773  0.7569  1.6440
   40MOL   N92040778   3.355   1.907   5.065  0.0983  0.0332 -0.9602
   40MOL   C92140779   3.223   1.949   5.070 -0.7414  0.5957  0.8649
   40MOL   C92240780   3.132   1.877   5.155 -0.2630  0.4108  0.2513
   40MOL   C92340781   2.994   1.904   5.151 -0.2492  0.0573  0.2383
   40MOL   C92440782   2.945   2.005   5.067  0.1512 -0.1319  0.3315
   40MOL   N92540783   2.808   2.019   5.060 -0.1092  0.2234 -0.0322
   40MOL   C92640784   2.732   2.137   5.045 -0.2947  0.1647  0.8618
   40MOL   C92740785   2.603   2.122   4.984  0.1849 -0.1900  0.3546
   40MOL   C92840786   2.519   2.231   4.987  0.7725 -0.3415  0.3801
   40MOL   C92940787   2.560   2.358   5.026 -0.5614  0.1600  0.4642
   40MOL   N93040788   2.466   2.463   5.050 -0.4231 -0.1504 -0.6209
   40MOL   C93140789   2.335   2.463   5.017 -0.5940 -0.1696 -0.2654
   40MOL   C93240790   2.294   2.415   4.885  0.3944 -0.1701 -0.4333
   40MOL   C93340791   2.161   2.433   4.847  0.4514  0.5710  0.3768
   40MOL   C93440792   2.068   2.482   4.935 -0.4972 -0.5022 -0.5524
   40MOL   N93540793   1.932   2.471   4.901  0.1138  0.1492  0.0118
   40MOL   C93640794   1.869   2.357   4.857  0.6742 -0.1486 -0.3187
   40MOL   C93740795   1.796   2.361   4.737 -0.9875 -0.5985  0.2710
   40MOL   C93840796   1.724   2.245   4.694 -0.3514  0.0537 -0.0060
   40MOL   C93940797   1.715   2.130   4.777  0.0596 -0.5077  0.2792
   40MOL   C94040798   1.637   2.013   4.738  0.3734  0.1726  0.0350
   40MOL   C94140799   1.782   2.131   4.901  0.8777  0.1347 -0.2603
   40MOL   C94240800   1.866   2.240   4.936 -0.0462  0.1252 -0.1459
   40MOL   C94340801   2.103   2.524   5.068 -0.2507  0.1999 -0.0990
   40MOL   C94440802   2.240   2.525   5.102 -0.5612  0.6808  0.1764
   40MOL   C94540803   2.693   2.385   5.059  0.6867 -0.8198 -0.4053
   40MOL   C94640804   2.776   2.269   5.067 -0.0032 -0.4472  0.2132
   40MOL   C94740805   3.032   2.089   4.997 -0.3394 -0.1383  0.3500
   40MOL   C94840806   3.170   2.059   4.995 -0.7073  0.2148 -0.3919
   40MOL   H94940807   3.383   1.826   5.117 -0.7109  1.0563  1.0941
   40MOL   H95040808   3.166   1.802   5.224  0.3794 -0.1605 -0.6848
   40MOL   H95140809   2.924   1.840   5.203  0.3264 -1.5544 -0.9171
   40MOL   H95240810   2.749   1.942   5.087  1.4796 -0.1416  2.6552
   40MOL   H95340811   2.558   2.029   4.952 -1.4284  0.6224  0.1819
   40MOL   H95440812   2.416   2.205   4.967 -0.4290  0.6596  4.6525
   40MOL   H95540813   2.495   2.558   5.068  0.4698 -0.1332 -2.0098
   40MOL   H95640814   2.367   2.375   4.817  2.6593 -0.7703  2.2342
   40MOL   H95740815   2.134   2.413   4.744 -1.1839 -1.0651  1.1087
   40MOL   H95840816   1.884   2.557   4.880  1.4773  0.5055 -1.8337
   40MOL   H95940817   1.770   2.452   4.684 -0.5827  0.8092  2.4483
   40MOL   H96040818   1.670   2.241   4.600  1.0530  1.7110 -0.9136
   40MOL   H96140819   1.665   1.926   4.797 -2.6508 -1.2613 -0.5335
   40MOL   H96240820   1.644   1.992   4.631  0.8231  0.6179 -0.0246
   40MOL   H96340821   1.780   2.045   4.966 -2.0149  0.3950  0.0357
   40MOL   H96440822   1.920   2.239   5.030 -1.5014 -0.9181  0.7065
   40MOL   H96540823   2.031   2.558   5.142  0.0379 -1.7476  1.1274
   40MOL   H96640824   2.273   2.569   5.195 -0.5288 -0.6156  0.8034
   40MOL   H96740825   2.736   2.472   5.107 -1.5998  0.7562 -1.1335
   40MOL   H96840826   2.874   2.276   5.112 -0.7485  2.2443  1.4914
   40MOL   H96940827   2.992   2.168   4.936 -2.0911 -1.0916  0.2410
   40MOL   H97040828   3.235   2.129   4.945  0.2196 -0.1848  0.2533
   40MOL   N97140829   1.503   2.036   4.761 -0.1514  0.6628  0.4704
   40MOL   C97240830   1.408   1.934   4.777 -0.0710 -0.0563  0.3735
   40MOL   C97340831   1.276   1.963   4.832 -0.2501 -0.1999  0.1871
   40MOL   C97440832   1.179   1.868   4.846  0.9264 -0.3221 -0.3289
   40MOL   C97540833   1.201   1.736   4.809  0.0010  0.3302 -0.9882
   40MOL   N97640834   1.103   1.634   4.834 -0.1260 -0.1766  0.4533
   40MOL   C97740835   1.102   1.554   4.947  0.9562 -0.5288 -0.4252
   40MOL   C97840836   1.190   1.584   5.054  0.1407  0.4291 -0.2450
   40MOL   C97940837   1.193   1.499   5.172  0.1151  0.1545 -0.5722
   40MOL   C98040838   1.114   1.382   5.170 -0.4480 -0.4153  0.3603
   40MOL   N98140839   1.124   1.289   5.273 -0.0718 -0.0320  0.3601
   40MOL   C98240840   1.069   1.163   5.285 -0.3237  0.4211 -0.2308
   40MOL   C98340841   1.056   1.112   5.417  0.1875 -0.0591  0.2955
   40MOL   C98440842   1.010   0.981   5.443 -0.3369 -0.7335  0.0790
   40MOL   C98540843   0.988   0.893   5.338  0.1231 -0.1862  0.0728
   40MOL   N98640844   0.955   0.760   5.376  0.3385 -0.5066 -0.1792
   40MOL   C98740845   0.957   0.644   5.299 -0.0703  0.6866  0.2618
   40MOL   C98840846   0.854   0.548   5.328 -0.2394  0.1774  0.1312
   40MOL   C98940847   0.848   0.427   5.253  0.2869 -0.4149  0.0889
   40MOL   C99040848   0.952   0.385   5.166  1.2456 -0.1691 -0.3539
   40MOL   C99140849   0.941   0.245   5.107  0.1721 -0.6810  0.0612
   40MOL   C99240850   1.047   0.477   5.139  0.0025  0.7386 -0.4947
   40MOL   C99340851   1.047   0.608   5.194  0.1123  0.8223 -0.1570
   40MOL   C99440852   0.996   0.939   5.203  0.8614  0.0970 -0.3212
   40MOL   C99540853   1.040   1.068   5.184 -0.5218 -0.5302  0.2760
   40MOL   C99640854   1.022   1.358   5.064  0.0941 -0.1013 -0.5083
   40MOL   C99740855   1.014   1.448   4.956  0.0681  0.5104  0.8842
   40MOL   C99840856   1.326   1.705   4.743  0.4621  0.2946 -0.2053
   40MOL   C99940857   1.420   1.803   4.728  0.0224 -0.4632 -0.3323
   40MOL     H140858   1.487   2.125   4.806 -1.4382  0.5924  0.1697
   40MOL     H240859   1.239   2.059   4.864  1.0283  0.9818 -1.7454
   40MOL     H340860   1.082   1.895   4.884  0.4805 -0.3882 -1.3919
   40MOL     H440861   1.013   1.658   4.795  0.9056  0.5550 -1.5436
   40MOL     H540862   1.243   1.678   5.047  0.9662  0.0426  0.7628
   40MOL     H640863   1.256   1.521   5.257 -0.1755 -2.4196  0.3657
   40MOL     H740864   1.174   1.328   5.351 -0.2553  0.2081  0.3558
   40MOL     H840865   1.082   1.175   5.501 -0.1610 -0.0354  0.3873
   40MOL     H940866   1.009   0.957   5.548 -1.6155  0.3597  0.3386
   40MOL    H1040867   0.942   0.742   5.475 -0.6388 -0.9242 -0.3792
   40MOL    H1140868   0.782   0.565   5.407 -0.3742  0.3614 -0.0320
   40MOL    H1240869   0.760   0.364   5.262 -2.7883  3.6239 -0.0545
   40MOL    H1340870   0.976   0.247   5.004  1.6245  0.3246  0.5579
   40MOL    H1440871   0.847   0.190   5.113 -1.7218  2.4441 -0.0106
   40MOL    H1540872   1.120   0.442   5.067  1.4734 -1.5944  2.0501
   40MOL    H1640873   1.116   0.681   5.153 -0.1013  1.0124 -0.1834
   40MOL    H1740874   0.982   0.877   5.117 -0.9385 -0.3163  0.2598
   40MOL    H1840875   1.060   1.093   5.080 -0.3996 -1.2484  0.1244
   40MOL    H1940876   0.960   1.269   5.066  0.8971 -0.6401  0.6375
   40MOL    H2040877   0.953   1.426   4.869  1.0061  0.0996  0.3253
   40MOL    H2140878   1.342   1.602   4.716  0.6453  0.2705 -0.0046
   40MOL    H2240879   1.519   1.772   4.696  0.5414  0.9137 -0.0850
   40MOL    H2340880   1.007   0.180   5.164 -0.1741 -0.2019  1.0105
   41MOL     N140881   0.854   3.477   2.592  0.1011  0.1502  0.5419
   41MOL     C240882   0.890   3.489   2.724 -0.2867 -0.2955  0.4210
   41MOL     C340883   1.027   3.509   2.749 -0.3633 -0.1133  0.0935
   41MOL     C440884   1.071   3.521   2.878 -0.1445 -0.5029 -0.3554
   41MOL     C540885   0.976   3.520   2.987 -0.4095 -0.2252 -0.8706
   41MOL     N640886   1.017   3.526   3.121 -0.3321 -0.5226  0.7382
   41MOL     C740887   1.149   3.497   3.161 -0.8541 -0.1611  0.3380
   41MOL     C840888   1.200   3.585   3.261  0.3545 -0.2519 -0.9909
   41MOL     C940889   1.318   3.555   3.331 -0.3588  0.2150  0.7919
   41MOL    C1040890   1.376   3.426   3.312  0.3845 -0.0047  0.2938
   41MOL    N1140891   1.485   3.388   3.396  0.0988 -0.2547 -0.2934
   41MOL    C1240892   1.521   3.260   3.434  0.2509 -0.6592  0.0867
   41MOL    C1340893   1.422   3.172   3.484 -0.5140  0.4276 -0.1554
   41MOL    C1440894   1.457   3.048   3.539 -0.3723 -0.1651  0.2685
   41MOL    C1540895   1.588   3.005   3.528  0.2035 -0.5003  0.0698
   41MOL    N1640896   1.625   2.875   3.569 -0.1055 -0.1703  0.7699
   41MOL    C1740897   1.536   2.768   3.574  0.0424  0.4595  0.7362
   41MOL    C1840898   1.436   2.745   3.477  0.1889 -0.2242 -0.2229
   41MOL    C1940899   1.349   2.632   3.484 -0.0217 -0.3796  0.2630
   41MOL    C2040900   1.357   2.543   3.597  0.7088 -0.1316 -1.1389
   41MOL    C2140901   1.260   2.418   3.613 -0.0645 -0.0325 -0.0548
   41MOL    C2240902   1.450   2.573   3.703 -0.4721 -0.1392 -0.5126
   41MOL    C2340903   1.536   2.682   3.687 -0.0061 -0.2355  0.0591
   41MOL    C2440904   1.686   3.088   3.463 -1.0485 -0.5001  0.0470
   41MOL    C2540905   1.648   3.219   3.425 -0.4763  0.8085 -0.5919
   41MOL    C2640906   1.333   3.340   3.207 -0.3071 -0.6072 -0.7946
   41MOL    C2740907   1.218   3.380   3.128 -0.0051 -0.0787  0.4803
   41MOL    C2840908   0.838   3.508   2.958 -0.1619 -0.7498  0.6293
   41MOL    C2940909   0.795   3.495   2.824  0.0099  0.2850  0.1104
   41MOL    H3040910   0.781   3.408   2.589  0.6798 -0.3923 -1.3275
   41MOL    H3140911   1.100   3.523   2.671 -1.3752 -0.2897 -0.9059
   41MOL    H3240912   1.177   3.534   2.896  0.1536 -1.8186 -1.0628
   41MOL    H3340913   0.949   3.502   3.191 -0.0086 -2.4128  0.4245
   41MOL    H3440914   1.148   3.678   3.276 -0.5479 -0.7732 -0.8019
   41MOL    H3540915   1.352   3.622   3.408 -0.1139  2.6732 -1.3744
   41MOL    H3640916   1.550   3.463   3.415 -0.2416 -0.5227  2.0154
   41MOL    H3740917   1.317   3.199   3.488 -0.5343  0.1156  1.5094
   41MOL    H3840918   1.387   2.975   3.577  0.2870 -2.2019 -2.2345
   41MOL    H3940919   1.708   2.868   3.626  0.0430 -1.9179  0.3595
   41MOL    H4040920   1.428   2.821   3.400 -0.7570  1.4190  1.4523
   41MOL    H4140921   1.285   2.619   3.397  0.2298 -1.8325  0.2821
   41MOL    H4240922   1.174   2.450   3.670  0.4763 -1.6350  1.7124
   41MOL    H4340923   1.309   2.343   3.676 -1.8377  0.9052  2.4993
   41MOL    H4440924   1.467   2.511   3.789  0.7324  2.0754  0.8985
   41MOL    H4540925   1.610   2.696   3.765 -0.0801  0.1051  0.0664
   41MOL    H4640926   1.789   3.060   3.449 -1.2231 -1.5074  0.7254
   41MOL    H4740927   1.726   3.287   3.391 -0.2440  0.6953 -0.2852
   41MOL    H4840928   1.384   3.245   3.197  0.9118 -0.0001 -0.4587
   41MOL    H4940929   1.171   3.308   3.062  0.6407 -0.1512  0.0988
   41MOL    H5040930   0.767   3.513   3.039 -0.7276  0.7088  0.0662
   41MOL    H5140931   0.688   3.490   2.813  0.0101  0.5159  0.0034
   41MOL    H5240932   0.931   3.464   2.528  1.1555  1.5077  1.5115
   41MOL    N5340933   1.242   2.347   3.487 -0.1369 -0.4056 -0.2889
   41MOL    C5440934   1.118   2.285   3.464  0.0268 -0.4677 -0.6212
   41MOL    C5540935   1.055   2.219   3.574  0.0086  0.1827  0.2604
   41MOL    C5640936   0.938   2.146   3.554  0.5657 -0.9091  0.1340
   41MOL    C5740937   0.891   2.127   3.422  0.5390  0.0900 -0.2034
   41MOL    N5840938   0.787   2.042   3.390 -0.5209  0.4461 -0.1322
   41MOL    C5940939   0.782   1.906   3.437  0.1718  0.0274 -0.1048
   41MOL    C6040940   0.899   1.840   3.479 -0.6852  0.1615  0.7697
   41MOL    C6140941   0.894   1.705   3.518 -0.2984 -0.3776  0.1582
   41MOL    C6240942   0.776   1.630   3.503  0.0165  0.1079  0.8498
   41MOL    N6340943   0.769   1.489   3.541 -0.2427  0.2701  0.3748
   41MOL    C6440944   0.847   1.434   3.652 -0.4520 -0.5555  0.3905
   41MOL    C6540945   0.904   1.309   3.639 -0.6404  0.3920  0.1873
   41MOL    C6640946   0.992   1.255   3.738 -0.3009  0.7727 -0.3519
   41MOL    C6740947   1.014   1.331   3.852  0.6332  0.0528  0.3318
   41MOL    N6840948   1.107   1.282   3.949 -0.3095 -0.3157 -0.1523
   41MOL    C6940949   1.141   1.332   4.072 -0.5394 -0.2473 -0.0229
   41MOL    C7040950   1.277   1.340   4.099  0.0212 -0.0483  0.0847
   41MOL    C7140951   1.327   1.394   4.219  0.3894  0.1066 -0.3322
   41MOL    C7240952   1.239   1.451   4.311 -0.5178  0.5424 -0.2305
   41MOL    C7340953   1.286   1.502   4.446 -0.8359 -0.2946 -0.1884
   41MOL    C7440954   1.101   1.442   4.282  0.6689 -0.2363 -0.1885
   41MOL    C7540955   1.053   1.382   4.161  0.1225 -0.1087 -0.3068
   41MOL    C7640956   0.954   1.460   3.869 -0.5237 -0.0485  0.1549
   41MOL    C7740957   0.874   1.502   3.764  0.1109 -0.3165 -0.2309
   41MOL    C7840958   0.661   1.694   3.460  0.2312  0.3449 -0.2865
   41MOL    C7940959   0.665   1.832   3.428 -0.4170 -0.4920 -0.0505
   41MOL    C8040960   0.957   2.187   3.315  0.1097 -0.0583 -0.4077
   41MOL    C8140961   1.070   2.272   3.337 -0.7501  0.5194  0.0497
   41MOL    H8240962   1.285   2.387   3.405  0.0187 -0.6432 -0.3232
   41MOL    H8340963   1.093   2.225   3.675  2.1027  2.1628 -0.5901
   41MOL    H8440964   0.885   2.106   3.640  1.1505  1.8519  1.8725
   41MOL    H8540965   0.726   2.068   3.314 -1.4442 -0.4199  0.2948
   41MOL    H8640966   0.993   1.893   3.477 -0.5359 -0.1518 -1.0589
   41MOL    H8740967   0.983   1.649   3.545  0.8928  1.0277 -0.7914
   41MOL    H8840968   0.704   1.420   3.507  0.4886  0.3513 -1.2405
   41MOL    H8940969   0.874   1.255   3.551 -1.0140  0.1011  0.4919
   41MOL    H9040970   1.027   1.155   3.719 -1.0801 -0.1009  2.4706
   41MOL    H9140971   1.181   1.231   3.903 -0.4204 -1.3643  0.8137
   41MOL    H9240972   1.352   1.307   4.029  2.2740  2.2812  1.3224
   41MOL    H9340973   1.434   1.393   4.231  0.3041  0.1916  0.4438
   41MOL    H9440974   1.229   1.463   4.530 -0.6391  1.8569  0.9725
   41MOL    H9540975   1.268   1.609   4.445 -2.5852 -0.5540  1.2271
   41MOL    H9640976   1.024   1.487   4.342 -1.1011 -1.0144 -1.7814
   41MOL    H9740977   0.947   1.363   4.150 -0.2437  0.2129  2.1858
   41MOL    H9840978   0.965   1.525   3.954 -0.7025  1.6270 -1.0930
   41MOL    H9940979   0.834   1.602   3.778 -0.6963 -0.7180  0.3637
   41MOL   H10040980   0.570   1.635   3.459  0.7116 -0.5713  2.7785
   41MOL   H10140981   0.568   1.874   3.408 -0.3105 -1.1977 -2.1168
   41MOL   H10240982   0.921   2.186   3.213  0.0189 -3.0270 -0.3681
   41MOL   H10340983   1.121   2.324   3.258  2.8167 -1.2945  1.0254
   41MOL   N10440984   1.428   1.480   4.476  0.3382 -0.1366 -0.0369
   41MOL   C10540985   1.527   1.575   4.482 -0.1594 -0.8519 -0.1118
   41MOL   C10640986   1.508   1.708   4.436 -0.5619 -0.0550  0.1985
   41MOL   C10740987   1.614   1.803   4.433  0.2230  0.3505  0.3800
   41MOL   C10840988   1.739   1.765   4.490  0.3268  0.7979 -0.4567
   41MOL   N10940989   1.848   1.859   4.492  0.0176 -0.3642  0.1289
   41MOL   C11040990   1.932   1.905   4.594  0.5598  0.0399 -0.0487
   41MOL   C11140991   1.956   1.832   4.714  0.0614  0.3751 -0.5725
   41MOL   C11240992   2.044   1.885   4.811 -0.4305  0.1124 -0.0193
   41MOL   C11340993   2.102   2.010   4.791 -0.0889 -0.0415  0.0528
   41MOL   N11440994   2.166   2.069   4.900 -0.5703  0.1195 -0.0703
   41MOL   C11540995   2.241   2.010   5.006 -0.2004  0.9838 -0.7606
   41MOL   C11640996   2.323   1.896   4.988  0.4284 -0.0785 -0.5826
   41MOL   C11740997   2.400   1.842   5.089  0.0427 -0.4619  0.1540
   41MOL   C11840998   2.399   1.903   5.209 -0.0085  0.2531 -0.1504
   41MOL   N11940999   2.474   1.844   5.316 -0.7574  0.2048 -0.5992
   41MOL   C12041000   2.591   1.893   5.375  0.3560 -0.4159  0.9252
   41MOL   C12141001   2.672   1.810   5.451 -0.3672 -0.3365 -0.4150
   41MOL   C12241002   2.792   1.852   5.506 -0.4465 -0.3901 -0.6719
   41MOL   C12341003   2.839   1.981   5.490  0.0216  0.1642  0.7584
   41MOL   C12441004   2.980   2.028   5.533 -0.0841 -0.2963 -0.4240
   41MOL   C12541005   2.751   2.066   5.414  0.7033  0.0978 -0.3754
   41MOL   C12641006   2.630   2.027   5.354 -0.6128 -1.0477  0.2100
   41MOL   C12741007   2.320   2.014   5.236 -0.0243 -0.3766 -0.7588
   41MOL   C12841008   2.233   2.065   5.136 -0.3556  0.2215  0.7987
   41MOL   C12941009   2.074   2.089   4.676  0.0985  0.7411  0.1411
   41MOL   C13041010   1.986   2.031   4.577 -0.2560  0.4098  0.1661
   41MOL   C13141011   1.760   1.639   4.545 -0.3486 -1.0775  0.3323
   41MOL   C13241012   1.655   1.545   4.539  0.0364 -0.3760  0.5978
   41MOL   H13341013   1.443   1.395   4.528  0.3857 -0.3264 -0.3629
   41MOL   H13441014   1.414   1.744   4.397  0.1730  0.0493 -1.5244
   41MOL   H13541015   1.600   1.905   4.404  1.0320  0.5615  0.6985
   41MOL   H13641016   1.847   1.912   4.405  1.5953  0.0229  0.3366
   41MOL   H13741017   1.895   1.745   4.734 -0.2158  0.7615  0.2714
   41MOL   H13841018   2.044   1.835   4.907 -1.5481  0.9957  0.4621
   41MOL   H13941019   2.158   2.170   4.899 -2.2423 -0.0141 -1.4413
   41MOL   H14041020   2.325   1.854   4.889  0.9778 -0.3694 -0.4515
   41MOL   H14141021   2.473   1.767   5.064 -0.3244 -1.1889  1.2065
   41MOL   H14241022   2.460   1.745   5.331 -0.5671  0.1355 -0.8619
   41MOL   H14341023   2.652   1.705   5.460 -2.1172  0.1002  1.1288
   41MOL   H14441024   2.855   1.776   5.549  0.9531  1.8408  1.3021
   41MOL   H14541025   2.976   2.051   5.639 -0.9584  1.0547 -0.7348
   41MOL   H14641026   2.999   2.122   5.481  0.6389 -0.4701 -0.4808
   41MOL   H14741027   2.783   2.169   5.408  0.7151  0.2268  1.5573
   41MOL   H14841028   2.567   2.091   5.294 -1.4264 -0.7973  1.3032
   41MOL   H14941029   2.313   2.067   5.330  1.2782  0.1741 -0.9723
   41MOL   H15041030   2.168   2.150   5.153 -2.7436 -1.5930  0.9674
   41MOL   H15141031   2.094   2.195   4.672 -2.1293  1.2608  1.7640
   41MOL   H15241032   1.966   2.094   4.491 -0.9933 -0.0609 -0.0089
   41MOL   H15341033   1.852   1.601   4.588  2.0255  2.8134 -1.0867
   41MOL   H15441034   1.664   1.447   4.582  0.9045 -0.2285  0.7645
   41MOL   N15541035   3.082   1.923   5.507 -0.3080  0.2406  0.3686
   41MOL   C15641036   3.213   1.965   5.491  0.1472  0.4554  0.0253
   41MOL   C15741037   3.307   1.871   5.444  0.2182  0.6610 -0.2744
   41MOL   C15841038   3.443   1.896   5.420 -0.3264  0.1337 -0.3114
   41MOL   C15941039   3.491   2.025   5.458 -0.5674  0.4442  0.3434
   41MOL   N16041040   3.621   2.081   5.432 -0.5434 -0.1016  0.4798
   41MOL   C16141041   3.746   2.015   5.416  0.2538  0.6972 -0.0812
   41MOL   C16241042   3.838   2.081   5.338 -0.5098 -0.4561 -0.0325
   41MOL   C16341043   3.966   2.024   5.321  0.0628  0.5582 -0.0476
   41MOL   C16441044   4.002   1.908   5.389  0.4040 -0.6055  0.3651
   41MOL   N16541045   4.125   1.850   5.379 -0.0695  0.4843 -0.0593
   41MOL   C16641046   4.227   1.862   5.282  0.5431 -0.0546 -0.9103
   41MOL   C16741047   4.198   1.876   5.146 -0.1339 -0.4734 -0.3600
   41MOL   C16841048   4.303   1.890   5.051 -0.1247 -0.8770  0.1948
   41MOL   C16941049   4.437   1.893   5.099  0.4061  0.2433 -0.0589
   41MOL   N17041050   4.539   1.918   5.013 -0.3639  0.0019  0.2259
   41MOL   C17141051   4.619   2.028   5.006 -0.1285  0.4110  0.0119
   41MOL   C17241052   4.595   2.150   5.079 -0.1147  0.1990 -0.2399
   41MOL   C17341053   4.674   2.269   5.054 -0.1507  0.2251  0.6849
   41MOL   C17441054   4.782   2.255   4.967 -0.7210  0.0405  0.6651
   41MOL   C17541055   4.884   2.368   4.952  0.2349  0.2339  0.2962
   41MOL   C17641056   4.812   2.132   4.902 -0.2829  0.3034 -0.7010
   41MOL   C17741057   4.730   2.020   4.921 -0.6490  0.3306 -0.8771
   41MOL   C17841058   4.462   1.888   5.235 -0.0435 -0.0754 -0.5100
   41MOL   C17941059   4.356   1.874   5.325  0.4078  0.7521 -0.3297
   41MOL   C18041060   3.908   1.845   5.476 -0.7616  0.2147 -0.5065
   41MOL   C18141061   3.780   1.897   5.490 -0.6315 -0.2133  1.3550
   41MOL   C18241062   3.404   2.116   5.519 -0.9785 -0.6530  0.3512
   41MOL   C18341063   3.266   2.093   5.532 -0.0731 -1.0520  0.3164
   41MOL   H18441064   3.061   1.829   5.478 -2.2770  0.7677  0.0640
   41MOL   H18541065   3.291   1.767   5.420 -0.6817  0.6608  0.3040
   41MOL   H18641066   3.516   1.825   5.384 -0.6195  1.0940 -2.9192
   41MOL   H18741067   3.624   2.174   5.392 -3.8755  0.3978  1.2231
   41MOL   H18841068   3.809   2.176   5.296 -3.2532 -0.7061  1.2047
   41MOL   H18941069   4.031   2.074   5.251 -0.3963 -1.9577 -2.3546
   41MOL   H19041070   4.145   1.776   5.444  0.3642  0.1130 -0.6038
   41MOL   H19141071   4.095   1.887   5.113  0.2060  0.6862 -1.0436
   41MOL   H19241072   4.289   1.881   4.945  2.0678 -1.3129 -0.0870
   41MOL   H19341073   4.510   1.879   4.924 -0.2033 -1.5158  0.8392
   41MOL   H19441074   4.510   2.155   5.146 -1.8626  1.3766 -2.4580
   41MOL   H19541075   4.642   2.360   5.104 -1.2218  0.2733 -0.0785
   41MOL   H19641076   4.837   2.458   4.911 -0.6146  0.4091  1.6473
   41MOL   H19741077   4.961   2.360   4.875 -1.0593  0.2581 -1.0182
   41MOL   H19841078   4.894   2.135   4.833  0.9280 -1.1395  0.6339
   41MOL   H19941079   4.744   1.934   4.858 -1.7332  1.0453 -2.1413
   41MOL   H20041080   4.566   1.885   5.264 -0.2351 -0.1376  0.1840
   41MOL   H20141081   4.381   1.868   5.430  2.5857 -0.3409 -0.8725
   41MOL   H20241082   3.923   1.764   5.546 -0.1161  0.2036 -0.6619
   41MOL   H20341083   3.709   1.842   5.550 -1.0385 -0.5077  0.6067
   41MOL   H20441084   3.452   2.208   5.550 -1.7509 -0.5443  1.2539
   41MOL   H20541085   3.195   2.168   5.564  0.6771  0.1769 -0.8225
   41MOL   N20641086   4.949   2.394   5.079 -0.2423  0.0214  0.2180
   41MOL   C20741087   5.071   2.340   5.119  0.3349 -0.0019 -0.1695
   41MOL   C20841088   5.184   2.325   5.037  0.3592 -0.7749  0.3541
   41MOL   C20941089   5.304   2.275   5.087  0.3080  0.0222  1.0096
   41MOL   C21041090   5.320   2.244   5.222  0.1527 -0.4834 -0.7342
   41MOL   N21141091   5.438   2.189   5.270 -0.1017 -0.1089  0.7779
   41MOL   C21241092   5.441   2.063   5.323  0.4985  0.1459  0.1870
   41MOL   C21341093   5.381   2.025   5.444 -0.7100  0.4212  0.0112
   41MOL   C21441094   5.399   1.893   5.480  0.1884 -0.2188  0.5235
   41MOL   C21541095   5.449   1.791   5.394 -0.3412 -0.9892 -0.2956
   41MOL   N21641096   5.448   1.654   5.429 -0.0855  0.3184 -0.0209
   41MOL   C21741097   5.350   1.601   5.514 -0.5815 -0.0577 -0.3172
   41MOL   C21841098   5.213   1.644   5.504 -0.4703 -0.3760  0.7173
   41MOL   C21941099   5.122   1.574   5.582  0.2028  0.7426 -0.9517
   41MOL   C22041100   5.158   1.472   5.669 -0.3589  0.0696  0.6838
   41MOL   N22141101   5.059   1.417   5.747  0.3651  0.5550 -0.3417
   41MOL   C22241102   5.021   1.283   5.766 -0.1608 -0.4939  0.3410
   41MOL   C22341103   5.081   1.178   5.697  0.1252 -0.3629 -0.2023
   41MOL   C22441104   5.036   1.048   5.717 -0.3226  0.1269  0.5847
   41MOL   C22541105   4.940   1.013   5.808 -0.6474  0.5107  0.0220
   41MOL   C22641106   4.884   0.869   5.832 -0.2946 -0.0972  0.1001
   41MOL   C22741107   4.884   1.122   5.889 -0.5361  0.1358  0.4786
   41MOL   C22841108   4.924   1.254   5.862 -0.8970  0.5487 -0.1750
   41MOL   C22941109   5.289   1.423   5.677  0.0159  0.1033  0.3677
   41MOL   C23041110   5.387   1.489   5.597 -1.0174  0.2630 -0.8981
   41MOL   C23141111   5.510   1.834   5.277 -0.1529 -0.2358 -0.1689
   41MOL   C23241112   5.502   1.965   5.244 -0.5911  0.2528 -0.2987
   41MOL   C23341113   5.218   2.269   5.308  0.5380  0.7745  0.9745
   41MOL   C23441114   5.090   2.304   5.257  0.3987  0.0783 -0.1408
   41MOL   H23541115   4.885   2.434   5.147  0.3607  1.0501  0.1818
   41MOL   H23641116   5.173   2.342   4.931  0.7205 -0.0483  0.4347
   41MOL   H23741117   5.392   2.264   5.025  0.5326 -0.1365  1.3572
   41MOL   H23841118   5.514   2.192   5.204  0.1567  0.0616  1.0872
   41MOL   H23941119   5.334   2.096   5.510 -2.0333 -1.3188  0.9785
   41MOL   H24041120   5.365   1.874   5.581 -0.7698  1.0610  0.4637
   41MOL   H24141121   5.539   1.615   5.412 -0.4268 -1.0140  1.0520
   41MOL   H24241122   5.170   1.721   5.442  1.4194  0.2168  0.1075
   41MOL   H24341123   5.017   1.598   5.569 -0.6126 -1.6466  0.7932
   41MOL   H24441124   4.997   1.479   5.798 -0.4635 -2.2266  2.1845
   41MOL   H24541125   5.163   1.202   5.631 -0.2155  2.4367  0.3480
   41MOL   H24641126   5.071   0.970   5.651  0.1908 -0.1357  1.1662
   41MOL   H24741127   4.803   0.882   5.904 -2.3325  0.6854 -2.3024
   41MOL   H24841128   4.962   0.817   5.889  0.9017 -0.1953 -1.6113
   41MOL   H24941129   4.825   1.102   5.977 -1.9762  0.9350 -0.2946
   41MOL   H25041130   4.880   1.327   5.928  0.0640  1.4977 -0.5804
   41MOL   H25141131   5.315   1.347   5.748  0.8124  1.6129  1.7212
   41MOL   H25241132   5.489   1.458   5.611 -1.2454 -0.2548 -0.3512
   41MOL   H25341133   5.563   1.768   5.210  0.5162  0.4745 -0.3513
   41MOL   H25441134   5.535   1.993   5.145  2.6684 -0.6466  0.4686
   41MOL   H25541135   5.231   2.249   5.413  1.9451  0.1432  0.7043
   41MOL   H25641136   5.006   2.326   5.321  1.1085  0.4963  0.6410
   41MOL   N25741137   4.844   0.802   5.707 -0.2980 -0.1024  0.1843
   41MOL   C25841138   4.772   0.855   5.604 -0.3277 -0.2554 -0.2525
   41MOL   C25941139   4.778   0.786   5.483  0.5585 -0.2964 -0.3856
   41MOL   C26041140   4.720   0.842   5.369 -0.1334  0.0773 -0.6754
   41MOL   C26141141   4.655   0.968   5.371 -0.7068 -1.0711 -0.3576
   41MOL   N26241142   4.617   1.024   5.249 -0.0237 -0.1305 -0.1414
   41MOL   C26341143   4.697   1.064   5.140 -0.6249  0.7802 -0.0935
   41MOL   C26441144   4.829   1.015   5.117 -0.0616 -0.0197 -0.2468
   41MOL   C26541145   4.915   1.073   5.020 -0.1917 -0.5163  0.0515
   41MOL   C26641146   4.862   1.178   4.940  0.3323 -0.6508  0.0056
   41MOL   N26741147   4.937   1.247   4.852  0.0927 -0.6742 -0.2391
   41MOL   C26841148   5.077   1.251   4.835  0.0205  0.0527 -0.2460
   41MOL   C26941149   5.151   1.371   4.850 -0.1144  0.0403 -0.3904
   41MOL   C27041150   5.292   1.370   4.835 -0.9176 -0.5681 -0.1275
   41MOL   C27141151   5.362   1.247   4.806 -0.2963  0.1551 -0.0584
   41MOL   N27241152   5.501   1.242   4.797 -0.4085  0.2623  0.3028
   41MOL   C27341153   5.597   1.320   4.861  0.0916  0.2495 -0.5438
   41MOL   C27441154   5.722   1.325   4.797 -0.2601  0.0183 -0.2687
   41MOL   C27541155   5.818   1.415   4.849  0.3394  0.4359  0.5990
   41MOL   C27641156   5.791   1.501   4.960  0.5213  0.1515  0.3836
   41MOL   C27741157   5.889   1.609   4.998  0.4953  0.6072  0.0679
   41MOL   C27841158   5.665   1.494   5.020  0.2724 -0.0185  0.5997
   41MOL   C27941159   5.569   1.403   4.972  0.2976  0.3195 -0.2498
   41MOL   C28041160   5.282   1.130   4.781 -0.0051  0.9227 -0.1766
   41MOL   C28141161   5.143   1.129   4.798  0.4899 -0.9672  0.0161
   41MOL   C28241162   4.732   1.222   4.956 -0.8299 -0.6833  0.0562
   41MOL   C28341163   4.650   1.160   5.053 -0.2034 -0.3614  0.7038
   41MOL   C28441164   4.643   1.037   5.497 -0.0481  0.0075 -0.7299
   41MOL   C28541165   4.702   0.980   5.609 -0.1694  0.3212 -0.0912
   41MOL   H28641166   4.908   0.734   5.667 -0.0616  0.6451 -0.7242
   41MOL   H28741167   4.815   0.685   5.477 -0.3791 -0.6867  0.3383
   41MOL   H28841168   4.725   0.790   5.274  0.5735  1.1254 -1.2276
   41MOL   H28941169   4.534   1.080   5.266 -0.7878 -1.5250  0.8854
   41MOL   H29041170   4.879   0.941   5.178  2.3562  2.3648  0.7281
   41MOL   H29141171   5.019   1.044   5.016  1.0487  3.5428  0.4418
   41MOL   H29241172   4.899   1.335   4.819 -2.0627 -1.2893  0.5359
   41MOL   H29341173   5.096   1.461   4.875  1.2265  1.1440 -1.3272
   41MOL   H29441174   5.341   1.467   4.836 -2.0674  0.0276 -0.4940
   41MOL   H29541175   5.545   1.180   4.731 -1.9556 -0.4836 -0.0626
   41MOL   H29641176   5.745   1.275   4.704  1.4165 -2.0698  1.2152
   41MOL   H29741177   5.913   1.412   4.798  0.4195 -0.4764  0.8064
   41MOL   H29841178   5.926   1.656   4.907  1.5888  1.6139  1.0023
   41MOL   H29941179   5.982   1.569   5.039 -2.6342 -2.1338  5.0226
   41MOL   H30041180   5.636   1.559   5.101  0.6052  3.2345 -1.8237
   41MOL   H30141181   5.472   1.395   5.020  1.2895 -1.5031  1.5708
   41MOL   H30241182   5.329   1.038   4.749 -0.5738  0.4810  0.2207
   41MOL   H30341183   5.077   1.045   4.786 -2.4299  1.1513  0.8240
   41MOL   H30441184   4.703   1.302   4.889 -1.3167 -1.0015 -0.1163
   41MOL   H30541185   4.547   1.190   5.057 -0.1061  0.4530 -2.1040
   41MOL   H30641186   4.608   1.139   5.500 -2.6151 -0.8751  0.8054
   41MOL   H30741187   4.707   1.040   5.699 -0.4150 -0.8314  0.6943
   41MOL   N30841188   5.853   1.710   5.095  0.3098 -0.0273 -0.2813
   41MOL   C30941189   5.874   1.691   5.231  0.2427  0.0048 -0.1981
   41MOL   C31041190   5.909   1.565   5.293  0.8690 -0.2631  0.1855
   41MOL   C31141191   5.949   1.558   5.432 -0.4400  0.3905 -0.0191
   41MOL   C31241192   5.919   1.669   5.514 -0.1147 -0.2976 -0.2664
   41MOL   N31341193   5.945   1.667   5.649 -0.0143  0.1338  0.1683
   41MOL   C31441194   5.880   1.746   5.748 -0.5654  0.0240 -0.3085
   41MOL   C31541195   5.948   1.789   5.867 -0.3684  0.0631 -0.5783
   41MOL   C31641196   5.884   1.856   5.970 -0.0757 -0.8509 -0.2750
   41MOL   C31741197   5.745   1.868   5.964 -0.1607 -0.0263  0.4969
   41MOL   N31841198   5.686   1.921   6.075  1.0742  0.1580  0.2464
   41MOL   C31941199   5.587   1.850   6.145 -0.3094 -0.1275  0.5187
   41MOL   C32041200   5.550   1.718   6.113  0.5180 -0.2252  0.2410
   41MOL   C32141201   5.435   1.656   6.180 -0.4145  0.1724  0.1539
   41MOL   C32241202   5.367   1.723   6.279 -0.0668 -0.6521  0.3470
   41MOL   N32341203   5.264   1.654   6.339  0.0895  0.5303 -0.3069
   41MOL   C32441204   5.233   1.641   6.475 -0.3653  0.5423  0.0146
   41MOL   C32541205   5.111   1.578   6.508  0.3078 -0.1458  0.4429
   41MOL   C32641206   5.061   1.583   6.638 -0.5952 -0.8310  0.0765
   41MOL   C32741207   5.145   1.639   6.740 -0.3284  0.6896  0.2546
   41MOL   C32841208   5.106   1.654   6.883 -0.8912 -0.2473 -0.6178
   41MOL   C32941209   5.276   1.690   6.703 -0.5043 -0.3522  0.7397
   41MOL   C33041210   5.319   1.683   6.575  0.1778 -0.6510  0.1555
   41MOL   C33141211   5.398   1.859   6.309 -1.0714 -0.0745  0.5320
   41MOL   C33241212   5.509   1.919   6.239 -0.6304  0.8495 -0.1386
   41MOL   C33341213   5.673   1.843   5.843 -0.1053  0.1447 -0.6085
   41MOL   C33441214   5.742   1.780   5.738 -0.4691 -0.7289 -0.1820
   41MOL   C33541215   5.884   1.792   5.458  0.1187 -0.6551 -0.1382
   41MOL   C33641216   5.852   1.801   5.319 -0.7914  0.3994 -0.1089
   41MOL   H33741217   5.832   1.802   5.059 -0.6901  0.3629  1.2834
   41MOL   H33841218   5.925   1.490   5.217  0.6859 -0.3903  0.2717
   41MOL   H33941219   5.988   1.467   5.475  0.4544 -0.9388 -3.4350
   41MOL   H34041220   6.007   1.598   5.690  0.3633  0.9799  1.0431
   41MOL   H34141221   6.052   1.760   5.876  0.3434  2.2852 -1.2452
   41MOL   H34241222   5.942   1.869   6.059  0.5112  0.5241 -0.8481
   41MOL   H34341223   5.730   1.997   6.124  0.5755  0.9695 -0.5542
   41MOL   H34441224   5.610   1.659   6.045 -2.9688 -1.9525 -1.5125
   41MOL   H34541225   5.399   1.558   6.152  1.3364  0.4151 -3.2015
   41MOL   H34641226   5.217   1.585   6.282 -1.1687 -0.5524  1.9274
   41MOL   H34741227   5.046   1.531   6.436  0.4606 -0.6154  0.6094
   41MOL   H34841228   4.959   1.550   6.648 -1.4565  1.0010 -2.3904
   41MOL   H34941229   5.182   1.709   6.937  0.1296 -1.3776 -0.8808
   41MOL   H35041230   5.104   1.554   6.926 -0.8009 -0.1248 -0.3291
   41MOL   H35141231   5.354   1.727   6.768 -0.0763 -0.1489  0.1134
   41MOL   H35241232   5.415   1.729   6.556 -1.7817  3.5933 -0.2232
   41MOL   H35341233   5.351   1.924   6.380  0.4614  0.9655  0.6332
   41MOL   H35441234   5.535   2.021   6.263 -0.5893  0.9210 -0.4833
   41MOL   H35541235   5.567   1.859   5.841  0.0351  1.8101  2.4144
   41MOL   H35641236   5.689   1.763   5.645  2.5736  1.6230 -2.4166
   41MOL   H35741237   5.862   1.873   5.526 -2.6571  0.5675 -2.3697
   41MOL   H35841238   5.825   1.900   5.285  1.3718  0.5381 -1.5800
   41MOL   N35941239   4.978   1.704   6.910 -0.6640 -0.3712  0.0789
   41MOL   C36041240   4.951   1.749   7.046 -0.7742 -0.2727 -0.1491
   41MOL   C36141241   5.031   1.723   7.157 -0.4105 -1.1482 -0.4412
   41MOL   C36241242   4.994   1.759   7.291 -0.2424  0.3232  0.2917
   41MOL   C36341243   4.875   1.835   7.305  1.1290  0.1556 -0.6140
   41MOL   N36441244   4.830   1.863   7.437  0.3958  0.1983  0.6055
   41MOL   C36541245   4.726   1.939   7.482 -0.1685  0.2688 -0.0198
   41MOL   C36641246   4.672   1.906   7.610  0.2065  0.1609 -0.1322
   41MOL   C36741247   4.575   1.987   7.667  0.4598 -0.4172  0.6019
   41MOL   C36841248   4.538   2.108   7.602  0.4986  0.5463  0.7359
   41MOL   N36941249   4.438   2.197   7.643 -0.8661 -0.2902  0.0114
   41MOL   C37041250   4.389   2.229   7.772  0.3619 -0.4969  0.9124
   41MOL   C37141251   4.458   2.185   7.887 -0.0920  0.7895  0.2032
   41MOL   C37241252   4.393   2.193   0.028 -0.1951  0.0747 -0.3649
   41MOL   C37341253   4.262   2.252   0.039  0.3583  0.1001  0.2918
   41MOL   N37441254   4.190   2.246   0.156 -0.2423 -0.5044  0.1043
   41MOL   C37541255   4.053   2.267   0.178 -0.2665 -0.0494  0.1522
   41MOL   C37641256   4.011   2.382   0.254  0.1638  0.1523 -0.1497
   41MOL   C37741257   3.874   2.401   0.278  0.1445 -0.1498 -0.1878
   41MOL   C37841258   3.780   2.308   0.220 -0.4343 -0.3157  0.1897
   41MOL   C37941259   3.628   2.345   0.226  0.0469 -0.4511 -0.6197
   41MOL   C38041260   3.818   2.198   0.141 -0.0351 -0.2096  0.3127
   41MOL   C38141261   3.957   2.181   0.112 -0.4568  0.1901 -0.5114
   41MOL   C38241262   4.203   2.306   7.908  0.5892  0.1604 -0.2747
   41MOL   C38341263   4.261   2.292   7.779  0.3643  0.6807 -1.0605
   41MOL   C38441264   4.600   2.150   7.482  0.3996  1.3562  1.0293
   41MOL   C38541265   4.691   2.060   7.416 -0.2539  0.6858 -0.4901
   41MOL   C38641266   4.796   1.864   7.192  0.6813 -1.3500  0.1406
   41MOL   C38741267   4.838   1.828   7.064 -0.5629 -0.2370 -0.6088
   41MOL   H38841268   4.909   1.721   6.838 -0.6377  0.4880  0.2488
   41MOL   H38941269   5.122   1.665   7.149 -0.5042 -1.2549 -0.7538
   41MOL   H39041270   5.052   1.725   7.375 -0.3006 -0.1419  0.1418
   41MOL   H39141271   4.887   1.816   7.506  0.8160  0.6449  0.5630
   41MOL   H39241272   4.698   1.813   7.657 -3.3345 -1.2995 -0.8697
   41MOL   H39341273   4.535   1.948   7.760 -1.3794 -0.9337 -0.3978
   41MOL   H39441274   4.389   2.250   7.572  0.6700  1.8456  0.5100
   41MOL   H39541275   4.553   2.137   7.873 -0.4790 -0.0314  0.3775
   41MOL   H39641276   4.447   2.156   0.114  2.2748  0.5453 -1.6444
   41MOL   H39741277   4.224   2.183   0.227  0.9405  1.2950  1.1871
   41MOL   H39841278   4.087   2.452   0.286 -1.1341  1.2318  0.5954
   41MOL   H39941279   3.853   2.492   0.333 -0.8052 -0.4033 -0.1176
   41MOL   H40041280   3.611   2.451   0.245  0.4744 -0.1105 -2.0562
   41MOL   H40141281   3.605   2.286   0.314 -1.5483  0.2850 -0.5404
   41MOL   H40241282   3.745   2.132   0.095  0.4888 -0.0933 -0.6968
   41MOL   H40341283   3.988   2.100   0.048  1.3110  0.7488 -0.3869
   41MOL   H40441284   4.108   2.355   7.918  0.5862  0.4629 -1.7233
   41MOL   H40541285   4.202   2.332   7.697  1.6281  0.8047 -1.9282
   41MOL   H40641286   4.586   2.251   7.448  2.4272  0.6626 -2.0214
   41MOL   H40741287   4.757   2.092   7.337 -0.8406  1.0542 -0.8399
   41MOL   H40841288   4.704   1.919   7.202  0.5821 -1.6918  1.1581
   41MOL   H40941289   4.775   1.838   6.976 -0.7722 -0.8977 -0.5416
   41MOL   N41041290   3.539   2.309   0.116  0.0438  0.1995  0.2836
   41MOL   C41141291   3.587   2.351   7.971 -0.6968  0.0995 -0.0016
   41MOL   C41241292   3.603   2.247   7.873 -0.9174 -0.7951 -0.2506
   41MOL   C41341293   3.643   2.290   7.741  0.0982 -0.5298 -0.5496
   41MOL   C41441294   3.676   2.428   7.716 -0.1429 -0.0275  0.3026
   41MOL   N41541295   3.732   2.461   7.590  0.7122  0.0063  0.1037
   41MOL   C41641296   3.839   2.400   7.524 -0.6265  0.5069 -0.0315
   41MOL   C41741297   3.921   2.291   7.571  0.2353 -0.3629 -0.1143
   41MOL   C41841298   4.028   2.236   7.497  0.0191  0.2441  0.2187
   41MOL   C41941299   4.059   2.291   7.372 -1.0928  0.2472 -0.0782
   41MOL   N42041300   4.151   2.224   7.293 -0.0652 -0.1048 -0.1824
   41MOL   C42141301   4.265   2.275   7.237 -0.0116  0.2193  0.0052
   41MOL   C42241302   4.292   2.411   7.250  0.5094 -0.0965  0.5824
   41MOL   C42341303   4.420   2.463   7.220 -0.0421  0.2281  0.0800
   41MOL   C42441304   4.523   2.375   7.187 -0.4400 -0.2107 -0.1262
   41MOL   N42541305   4.650   2.429   7.165  0.9175 -0.2170 -0.1805
   41MOL   C42641306   4.763   2.357   7.111 -0.2777 -0.0732  0.8600
   41MOL   C42741307   4.888   2.354   7.179 -0.3820  1.6292  0.4792
   41MOL   C42841308   4.997   2.286   7.110  0.0560  0.1569 -1.1280
   41MOL   C42941309   4.983   2.232   6.982  0.0451  0.1956  0.2022
   41MOL   C43041310   5.100   2.163   6.918 -0.4374  0.1809 -0.3745
   41MOL   C43141311   4.855   2.236   6.920  0.2357 -0.3790  0.3189
   41MOL   C43241312   4.748   2.299   6.984 -0.6436 -0.0164  0.3210
   41MOL   C43341313   4.492   2.242   7.155 -0.3631 -0.2553 -0.7740
   41MOL   C43441314   4.366   2.191   7.184 -0.0393  0.6309  0.1494
   41MOL   C43541315   3.980   2.396   7.320 -0.2116  0.2287 -0.1461
   41MOL   C43641316   3.868   2.451   7.394 -0.8240 -0.0228 -0.1931
   41MOL   C43741317   3.674   2.525   7.817 -0.0125  0.3144 -0.4073
   41MOL   C43841318   3.628   2.482   7.944  0.4176 -0.3430 -0.2162
   41MOL   H43941319   3.524   2.209   0.119  1.1809  0.0489  1.6925
   41MOL   H44041320   3.580   2.144   7.893 -1.0969 -0.7325 -0.1341
   41MOL   H44141321   3.656   2.212   7.667  0.3317 -0.5566 -0.4808
   41MOL   H44241322   3.689   2.531   7.532  1.3451  1.3550  1.2032
   41MOL   H44341323   3.896   2.237   7.662 -0.1872 -0.3069 -0.1963
   41MOL   H44441324   4.085   2.151   7.532  0.6434  0.5671 -0.0170
   41MOL   H44541325   4.137   2.124   7.294  0.0570 -0.1484 -1.6182
   41MOL   H44641326   4.222   2.486   7.286  2.7109  1.3343  2.0360
   41MOL   H44741327   4.437   2.567   7.242  0.8302 -0.1024  0.9944
   41MOL   H44841328   4.672   2.525   7.185 -2.8325  0.3501  1.6991
   41MOL   H44941329   4.886   2.404   7.275 -2.8944  0.3491  1.1359
   41MOL   H45041330   5.091   2.288   7.162 -0.8451 -1.2285  0.5890
   41MOL   H45141331   5.184   2.233   6.918  0.2793 -0.6684 -1.1855
   41MOL   H45241332   5.069   2.151   6.814 -1.3913 -0.1608 -0.0488
   41MOL   H45341333   4.850   2.193   6.821  0.0734 -0.1614  0.2310
   41MOL   H45441334   4.653   2.311   6.935 -1.0912 -0.4754  1.0658
   41MOL   H45541335   4.568   2.175   7.116  0.0517  0.2308 -0.8139
   41MOL   H45641336   4.361   2.084   7.169  2.5165  0.3211  1.2797
   41MOL   H45741337   4.000   2.426   7.218  0.2528  0.0483 -0.1077
   41MOL   H45841338   3.809   2.523   7.340 -0.9492 -0.7091 -0.9905
   41MOL   H45941339   3.696   2.626   7.788  1.0991  0.1679 -0.0934
   41MOL   H46041340   3.604   2.550   0.043 -0.0139 -2.5680  1.5743
   41MOL   N46141341   5.143   2.044   6.986 -0.6161 -0.8885 -0.3123
   41MOL   C46241342   5.277   2.003   6.964  0.1425  0.3608  0.4018
   41MOL   C46341343   5.363   2.039   6.857  0.2602  0.3339  0.0801
   41MOL   C46441344   5.488   1.982   6.832 -0.4709 -0.2333 -0.1606
   41MOL   C46541345   5.527   1.873   6.915 -0.3661  0.0426  0.4100
   41MOL   N46641346   5.644   1.802   6.880 -0.1893 -0.2396  0.3677
   41MOL   C46741347   5.770   1.854   6.842 -0.2728  0.3486 -0.7211
   41MOL   C46841348   5.800   1.985   6.876  0.0761  0.1707  0.5070
   41MOL   C46941349   5.930   2.032   6.842 -0.5421 -0.2285 -0.2827
   41MOL   C47041350   6.028   1.956   6.775  0.6738 -0.7390  0.3837
   41MOL   N47141351   6.145   2.015   6.732 -0.0204  0.4992  0.6221
   41MOL   C47241352   6.252   1.956   6.664 -0.3040  0.1324  0.5052
   41MOL   C47341353   6.323   1.843   6.709  0.3524  0.8333  0.1951
   41MOL   C47441354   6.443   1.808   6.649 -0.2862  0.1691 -0.8608
   41MOL   C47541355   6.482   1.872   6.528  0.6650 -0.4967  0.1837
   41MOL   N47641356   6.590   1.817   6.456 -0.2586  0.3269 -0.2101
   41MOL   C47741357   6.614   1.812   6.325 -0.5846  0.6143 -0.7987
   41MOL   C47841358   6.606   1.693   6.247 -0.0274  0.1345 -0.4713
   41MOL   C47941359   6.643   1.698   6.111  0.4882  0.4701 -0.6391
   41MOL   C48041360   6.673   1.824   6.051  0.2839 -0.5897  0.5763
   41MOL   C48141361   6.690   1.823   5.900 -0.1975  0.3026 -0.6500
   41MOL   C48241362   6.687   1.943   6.124  0.3198 -0.1983 -0.1142
   41MOL   C48341363   6.656   1.939   6.264  0.3439  0.1055  0.0102
   41MOL   C48441364   6.404   1.980   6.471  0.2185 -0.4246 -0.0972
   41MOL   C48541365   6.297   2.029   6.554 -0.4737 -0.1219 -0.5769
   41MOL   C48641366   5.990   1.827   6.731  0.0614 -0.0891 -0.2371
   41MOL   C48741367   5.860   1.775   6.770 -0.4597  0.5661 -0.3670
   41MOL   C48841368   5.445   1.831   7.017  0.4569 -0.7307 -0.0736
   41MOL   C48941369   5.324   1.897   7.047 -0.0591  0.1370 -0.6196
   41MOL   H49041370   5.086   2.009   7.062 -0.8617  1.2673  0.5176
   41MOL   H49141371   5.344   2.125   6.794  1.4194 -0.6887 -1.7276
   41MOL   H49241372   5.552   2.023   6.755 -0.2705 -0.0425  0.1113
   41MOL   H49341373   5.629   1.704   6.861 -0.7968 -0.0314 -0.2257
   41MOL   H49441374   5.733   2.035   6.944 -3.0549 -1.0668 -1.5563
   41MOL   H49541375   5.954   2.128   6.885 -0.0175 -0.1350 -0.7795
   41MOL   H49641376   6.143   2.116   6.734 -0.9305  0.4794  0.9919
   41MOL   H49741377   6.290   1.802   6.803 -1.5886 -0.2218 -0.9220
   41MOL   H49841378   6.507   1.727   6.683  0.4301  2.1426  2.7457
   41MOL   H49941379   6.630   1.736   6.501  0.9244  1.4740  0.8352
   41MOL   H50041380   6.577   1.604   6.301  1.3424 -0.5101 -0.7629
   41MOL   H50141381   6.622   1.614   6.046 -0.0155  2.7979 -3.5730
   41MOL   H50241382   6.678   1.924   5.860 -1.7141  0.6030  0.4862
   41MOL   H50341383   6.611   1.765   5.851 -0.7660  1.7211 -1.4864
   41MOL   H50441384   6.711   2.038   6.080  2.0649 -0.4537  0.2692
   41MOL   H50541385   6.667   2.020   6.334  2.5258 -0.3871  0.2929
   41MOL   H50641386   6.430   2.038   6.384  0.5119 -1.7123 -0.8714
   41MOL   H50741387   6.238   2.108   6.510  1.4218  3.0049  2.2818
   41MOL   H50841388   6.054   1.767   6.668  1.1175 -0.2530  0.9635
   41MOL   H50941389   5.827   1.679   6.733  0.2764 -0.6532  2.0307
   41MOL   H51041390   5.468   1.748   7.081 -1.9599 -1.5468 -0.2005
   41MOL   H51141391   5.261   1.867   7.130 -0.3143 -0.7921 -1.1337
   41MOL   N51241392   6.827   1.775   5.872  0.3141  0.0306  0.1208
   41MOL   C51341393   6.880   1.791   5.738  0.1286 -0.1552 -0.2451
   41MOL   C51441394   7.009   1.741   5.717 -0.5194  0.0630 -0.3242
   41MOL   C51541395   7.074   1.753   5.593  0.2686  0.0386 -0.1865
   41MOL   C51641396   6.998   1.803   5.483  0.5931 -0.2787 -0.4302
   41MOL   N51741397   7.049   1.787   5.355  0.3737 -0.5488 -0.0220
   41MOL   C51841398   7.076   1.894   5.268  0.0695  0.2763  0.2200
   41MOL   C51941399   7.157   1.873   5.160  0.2570  0.4687 -0.0339
   41MOL   C52041400   7.188   1.970   5.067  0.1223  0.1527  0.2028
   41MOL   C52141401   7.135   2.098   5.090 -0.1158 -0.4213  0.1750
   41MOL   N52241402   7.157   2.207   5.011  0.1194 -0.2485 -0.0093
   41MOL   C52341403   7.222   2.213   4.890 -0.0945 -0.0241 -0.1895
   41MOL   C52441404   7.333   2.296   4.876 -0.7661  0.5680  0.6520
   41MOL   C52541405   7.397   2.303   4.750 -0.6037  0.4044 -0.0005
   41MOL   C52641406   7.357   2.228   4.638 -0.8967  0.0782  0.2336
   41MOL   N52741407   7.409   2.245   4.506  0.0177  0.3857 -0.2176
   41MOL   C52841408   7.492   2.353   4.471 -0.0263  0.2696 -0.4441
   41MOL   C52941409   7.613   2.326   4.403  0.4085  0.1133 -0.5572
   41MOL   C53041410   7.701   2.427   4.363 -0.5792 -0.9011 -0.0405
   41MOL   C53141411   7.671   2.560   4.405 -0.2775 -0.2535  0.6351
   41MOL   C53241412   7.762   2.667   4.358 -0.4494 -0.3530  0.8969
   41MOL   C53341413   7.555   2.589   4.475 -0.2717 -0.7666  0.2265
   41MOL   C53441414   7.463   2.484   4.507 -0.1940  0.1370  0.5702
   41MOL   C53541415   7.247   2.144   4.658 -0.8771  0.3547 -0.4663
   41MOL   C53641416   7.182   2.137   4.783  0.5503  0.2804  0.1117
   41MOL   C53741417   7.061   2.124   5.207  0.5797  0.6733  0.2913
   41MOL   C53841418   7.039   2.021   5.294 -0.4875  0.3916 -0.4910
   41MOL   C53941419   6.864   1.849   5.503 -0.5634 -0.1006  0.8557
   41MOL   C54041420   6.809   1.844   5.632 -0.3300 -0.1514  0.0395
   41MOL   H54141421   6.896   1.754   5.943  1.9484  1.0536 -1.1297
   41MOL   H54241422   7.065   1.703   5.801  0.7368  2.1197 -0.1987
   41MOL   H54341423   7.172   1.714   5.571  1.6655  3.1284  0.3364
   41MOL   H54441424   7.094   1.697   5.344  1.8574  0.2818 -0.9620
   41MOL   H54541425   7.188   1.769   5.153  0.0101  0.2853  1.4253
   41MOL   H54641426   7.250   1.947   4.981 -0.6765  0.6445 -0.5240
   41MOL   H54741427   7.122   2.297   5.041  2.0872  0.4293  0.3193
   41MOL   H54841428   7.361   2.359   4.959  0.6270  1.4020 -0.4549
   41MOL   H54941429   7.471   2.381   4.741  0.2196 -0.3942 -0.1914
   41MOL   H55041430   7.387   2.171   4.441 -0.4933  2.9253 -3.0833
   41MOL   H55141431   7.635   2.224   4.375  1.0912 -0.5243  2.1347
   41MOL   H55241432   7.795   2.412   4.311  0.2393 -0.0001  1.1567
   41MOL   H55341433   7.702   2.717   4.282  2.6036 -2.3215 -3.0149
   41MOL   H55441434   7.857   2.629   4.318  0.2254 -0.3764  2.4965
   41MOL   H55541435   7.531   2.693   4.492 -1.5458 -1.2364  1.3800
   41MOL   H55641436   7.370   2.507   4.558  0.8255  0.8695  2.1358
   41MOL   H55741437   7.200   2.088   4.579 -0.5414 -0.6686  0.0468
   41MOL   H55841438   7.098   2.071   4.800  1.6078 -1.7729 -2.3143
   41MOL   H55941439   7.017   2.222   5.220 -0.2377  0.4116 -0.4395
   41MOL   H56041440   6.979   2.034   5.383  1.7337 -3.2324  1.6971
   41MOL   H56141441   6.805   1.873   5.415 -0.3316  0.5032  0.8603
   41MOL   H56241442   6.713   1.892   5.650 -0.9164 -1.8197  1.5043
   41MOL   N56341443   7.787   2.762   4.462 -0.3240 -0.0798  0.1043
   41MOL   C56441444   7.851   2.882   4.442 -0.6875  0.7327  0.6522
   41MOL   C56541445   7.907   2.925   4.318 -0.3546  0.5626  0.3609
   41MOL   C56641446   7.972   3.045   4.314  0.4987 -0.4821  0.6475
   41MOL   C56741447   0.005   3.130   4.424 -0.1409  0.4737 -0.4070
   41MOL   N56841448   0.076   3.253   4.404 -0.6634  0.0742  0.3214
   41MOL   C56941449   0.130   3.341   4.499  0.3777  0.2823 -0.0363
   41MOL   C57041450   0.047   3.427   4.575  0.2643 -0.0767 -0.1773
   41MOL   C57141451   0.100   3.504   4.681  0.0639 -0.4605 -0.4810
   41MOL   C57241452   0.235   3.490   4.718  0.2565 -0.2872 -0.3121
   41MOL   N57341453   0.277   3.557   4.832 -0.4337 -0.1038  0.1983
   41MOL   C57441454   0.386   3.639   4.839  0.6539 -0.2635 -0.1672
   41MOL   C57541455   0.477   3.666   4.735  1.3814  0.6394  0.2117
   41MOL   C57641456   0.577   3.763   4.750 -0.4943  0.3204 -0.3094
   41MOL   C57741457   0.592   3.836   4.871 -0.2965 -0.8315  0.9758
   41MOL   N57841458   0.705   3.925   4.873  0.2142  0.0985  0.1364
   41MOL   C57941459   0.714   4.043   4.953 -0.0058  0.0174 -1.1249
   41MOL   C58041460   0.831   4.083   5.022 -0.1939  0.4372  0.0702
   41MOL   C58141461   0.843   4.193   5.106  0.0465  0.3711 -0.0814
   41MOL   C58241462   0.722   4.258   5.135 -0.1359  0.3351 -0.1977
   41MOL   C58341463   0.724   4.372   5.232 -0.6485 -0.4989 -0.1424
   41MOL   C58441464   0.599   4.211   5.085 -0.7028  0.3779 -0.5243
   41MOL   C58541465   0.596   4.098   5.001  0.7118 -0.2701 -0.3239
   41MOL   C58641466   0.501   3.812   4.978  0.8441 -1.1041 -0.3644
   41MOL   C58741467   0.402   3.715   4.959 -0.6875 -0.0768  0.4963
   41MOL   C58841468   0.323   3.423   4.628 -0.3098 -0.4791  0.2722
   41MOL   C58941469   0.268   3.350   4.522  0.1921 -0.1838  1.0798
   41MOL   C59041470   7.944   3.087   4.549  0.3901 -0.1367 -0.1639
   41MOL   C59141471   7.872   2.966   4.561  1.2625 -0.4928 -0.2822
   41MOL   H59241472   7.777   2.735   4.559  1.3626  2.3255  0.9745
   41MOL   H59341473   7.896   2.863   4.230 -2.3413  0.1347  0.8818
   41MOL   H59441474   0.024   3.078   4.217 -0.2827  1.4334  0.9874
   41MOL   H59541475   0.127   3.241   4.318 -0.8336  2.5612 -0.1762
   41MOL   H59641476   7.925   3.438   4.550  0.4288  0.5729 -0.5840
   41MOL   H59741477   0.025   3.555   4.741 -0.3301 -1.7134  0.1196
   41MOL   H59841478   0.204   3.561   4.902  2.1766 -0.5560  3.0312
   41MOL   H59941479   0.466   3.617   4.639 -2.8619  0.5817  0.6290
   41MOL   H60041480   0.655   3.773   4.677  0.1054  1.3639  0.4539
   41MOL   H60141481   0.765   3.934   4.792 -1.0573  0.8884 -0.7475
   41MOL   H60241482   0.917   4.023   4.993  0.1488  0.7647  0.3980
   41MOL   H60341483   0.929   4.223   5.163 -0.9518  0.0388  1.6297
   41MOL   H60441484   0.628   4.421   5.225  0.1549  1.0996 -0.0762
   41MOL   H60541485   0.802   4.437   5.191 -1.7256  0.1210 -1.2401
   41MOL   H60641486   0.502   4.253   5.108  0.1257  0.7290  2.5098
   41MOL   H60741487   0.497   4.075   4.964  0.9736  0.8242 -1.7415
   41MOL   H60841488   0.498   3.861   5.075 -0.7008  1.4173 -1.6406
   41MOL   H60941489   0.340   3.698   5.046 -0.8740  1.5010  0.6979
   41MOL   H61041490   0.428   3.418   4.654 -0.3480 -1.1378  0.2951
   41MOL   H61141491   0.325   3.279   4.465  0.1130  0.7013 -0.1320
   41MOL   H61241492   7.956   3.151   4.635 -0.1216 -0.4769  0.1603
   41MOL   H61341493   7.821   2.939   4.652  0.4467 -0.4557 -0.7184
   41MOL   N61441494   0.746   4.334   5.372  0.0501  0.0237 -0.2181
   41MOL   C61541495   0.651   4.255   5.438  0.4471 -0.0787  0.2014
   41MOL   C61641496   0.699   4.192   5.558 -0.1433 -0.5226  0.4447
   41MOL   C61741497   0.612   4.099   5.626 -0.8756 -0.4426  0.5197
   41MOL   C61841498   0.481   4.078   5.582  0.9108 -0.2348  0.0743
   41MOL   N61941499   0.407   3.980   5.642  0.4072  0.5146  0.4487
   41MOL   C62041500   0.365   3.863   5.583 -0.5362 -0.0435 -0.0059
   41MOL   C62141501   0.379   3.828   5.443 -0.3394  0.2660  0.4972
   41MOL   C62241502   0.345   3.699   5.401 -0.5497  0.6265 -0.1065
   41MOL   C62341503   0.303   3.603   5.493 -0.3615  0.0253 -0.1190
   41MOL   N62441504   0.260   3.476   5.456 -0.5422  0.0850  0.2339
   41MOL   C62541505   0.269   3.410   5.337  0.5252 -0.6283  0.4293
   41MOL   C62641506   0.178   3.311   5.314  0.2646 -0.2219 -0.3150
   41MOL   C62741507   0.181   3.227   5.196 -0.7454 -0.4668  0.7488
   41MOL   C62841508   0.278   3.259   5.098 -0.2270 -0.1388  0.4359
   41MOL   N62941509   0.276   3.195   4.971  0.4120 -0.0361 -0.3816
   41MOL   C63041510   0.243   3.064   4.936  0.5612  1.8219  0.0184
   41MOL   C63141511   0.217   3.035   4.802  0.4796 -0.4141  0.4291
   41MOL   C63241512   0.181   2.905   4.764 -0.4732  0.1873  0.0221
   41MOL   C63341513   0.179   2.796   4.858  0.2513  0.2628  0.9007
   41MOL   C63441514   0.153   2.649   4.820 -0.0668 -0.7673 -0.2283
   41MOL   C63541515   0.201   2.827   4.992 -0.3485  0.9781 -0.1491
   41MOL   C63641516   0.245   2.955   5.031 -0.3015 -0.2904  0.7729
   41MOL   C63741517   0.373   3.360   5.124 -0.8278  0.0092  0.7082
   41MOL   C63841518   0.379   3.426   5.246  0.1453  0.4415 -0.7287
   41MOL   C63941519   0.288   3.634   5.625 -0.9475  0.1690 -0.0310
   41MOL   C64041520   0.319   3.760   5.669  0.7492  0.1264 -0.1835
   41MOL   C64141521   0.432   4.152   5.474 -0.1155  0.0489 -0.6049
   41MOL   C64241522   0.521   4.234   5.401  0.4590  0.2698  0.0236
   41MOL   H64341523   0.840   4.297   5.382 -0.7216 -1.9741 -0.2374
   41MOL   H64441524   0.795   4.210   5.604  0.7344  2.4967 -2.3388
   41MOL   H64541525   0.643   4.050   5.717  0.5679 -2.3818 -0.9715
   41MOL   H64641526   0.447   3.949   5.729  0.9890  0.6123  0.2247
   41MOL   H64741527   0.406   3.900   5.366 -0.7428 -1.3370 -1.1849
   41MOL   H64841528   0.332   3.681   5.295  2.1651  0.0327 -0.3918
   41MOL   H64941529   0.229   3.423   5.536 -1.1176  0.8752  0.5404
   41MOL   H65041530   0.094   3.314   5.382  2.2586  1.3152  2.1698
   41MOL   H65141531   0.113   3.145   5.174  0.2403 -1.0227 -0.3224
   41MOL   H65241532   0.312   3.250   4.894  0.7472  0.1820 -0.0690
   41MOL   H65341533   0.204   3.113   4.729 -2.2796 -0.9122  0.3328
   41MOL   H65441534   0.146   2.888   4.663 -1.0487 -1.4680  0.4753
   41MOL   H65541535   0.164   2.575   4.900 -2.0196 -3.1305 -2.0261
   41MOL   H65641536   0.218   2.613   4.740 -0.8452  1.7631 -2.0528
   41MOL   H65741537   0.189   2.756   5.072  1.7014 -0.4296 -1.0463
   41MOL   H65841538   0.265   2.990   5.131 -2.3308  1.7507  0.4992
   41MOL   H65941539   0.447   3.390   5.052 -0.8920 -0.7235  0.3312
   41MOL   H66041540   0.464   3.490   5.262  0.3470  0.0793 -0.3636
   41MOL   H66141541   0.249   3.560   5.694  0.0474 -0.1882  0.1581
   41MOL   H66241542   0.311   3.786   5.774 -0.5307 -1.7131  0.1898
   41MOL   H66341543   0.327   4.154   5.449 -0.4780 -2.9267  0.4719
   41MOL   H66441544   0.478   4.283   5.315  1.0414  0.3777 -0.2082
   41MOL   N66541545   0.015   2.635   4.771 -0.3858 -0.5340 -0.9828
   41MOL   C66641546   7.899   2.598   4.861 -0.5078 -0.0073  0.3175
   41MOL   C66741547   7.820   2.480   4.838 -0.3980 -0.3564 -0.2801
   41MOL   C66841548   7.717   2.447   4.923  0.8444 -0.3427 -0.3817
   41MOL   C66941549   7.686   2.535   5.037 -0.3328  0.1054 -0.0715
   41MOL   N67041550   7.570   2.511   5.115 -0.1550 -0.3068 -0.0042
   41MOL   C67141551   7.531   2.387   5.160  0.2257  0.7095 -0.1309
   41MOL   C67241552   7.612   2.274   5.183  0.6479  0.2730 -0.6490
   41MOL   C67341553   7.560   2.161   5.248 -0.6443 -0.1492 -0.1451
   41MOL   C67441554   7.429   2.157   5.298 -0.6773  0.0554 -0.2215
   41MOL   N67541555   7.386   2.048   5.379 -0.8938  0.6106 -0.2848
   41MOL   C67641556   7.387   2.053   5.518 -0.3680  0.2455 -0.0162
   41MOL   C67741557   7.504   2.076   5.590 -0.1033  0.4565 -0.6725
   41MOL   C67841558   7.502   2.092   5.734  0.0716 -0.1269 -0.2770
   41MOL   C67941559   7.383   2.058   5.801  0.3345 -0.4683  0.3581
   41MOL   N68041560   7.383   2.064   5.935 -0.6576  0.0416 -0.4828
   41MOL   C68141561   7.352   1.961   6.025 -0.1309  0.0664 -0.2196
   41MOL   C68241562   7.360   1.992   6.162 -0.3465  0.1777 -0.6907
   41MOL   C68341563   7.357   1.889   6.256  0.1547 -0.0838  0.6318
   41MOL   C68441564   7.341   1.754   6.212 -0.7500 -0.0132 -0.2501
   41MOL   C68541565   7.358   1.643   6.321  0.2585 -0.1162 -0.0046
   41MOL   C68641566   7.321   1.719   6.078 -0.1008 -0.1178 -0.1421
   41MOL   C68741567   7.330   1.828   5.986  0.0606  0.6443  0.0885
   41MOL   C68841568   7.264   2.034   5.730 -0.0233 -0.0780  0.2725
   41MOL   C68941569   7.275   2.041   5.592  0.7582  0.1843  0.0623
   41MOL   C69041570   7.347   2.272   5.277 -0.0316 -0.2410 -0.0175
   41MOL   C69141571   7.402   2.384   5.213  0.1143  0.1016 -0.5326
   41MOL   C69241572   7.769   2.647   5.062 -0.2630  1.0225  0.3450
   41MOL   C69341573   7.879   2.675   4.979 -0.0528  0.4093  0.6006
   41MOL   H69441574   0.020   2.588   4.681 -1.2627 -0.9402 -0.8276
   41MOL   H69541575   7.842   2.405   4.764 -0.5816  0.7897 -1.5178
   41MOL   H69641576   7.656   2.363   4.892  2.0688 -0.7763 -1.6817
   41MOL   H69741577   7.516   2.593   5.141  0.0531 -0.2376  0.2070
   41MOL   H69841578   7.714   2.265   5.148  0.1989 -0.7845 -1.7160
   41MOL   H69941579   7.629   2.079   5.261  0.5674  0.9577  0.4484
   41MOL   H70041580   7.298   2.013   5.345 -0.1366 -2.7143  0.9360
   41MOL   H70141581   7.594   2.094   5.533  0.2217  1.2394  0.0870
   41MOL   H70241582   7.595   2.109   5.786  1.0410 -2.7179 -1.1153
   41MOL   H70341583   7.416   2.150   5.976 -1.6870 -0.2361  1.0076
   41MOL   H70441584   7.369   2.096   6.190 -2.0047  0.2280 -0.2824
   41MOL   H70541585   7.366   1.915   6.360  1.4318  1.9606  0.0341
   41MOL   H70641586   7.460   1.608   6.313  0.7669  0.7387  2.3821
   41MOL   H70741587   7.304   1.552   6.297 -1.4485  0.0844  2.8170
   41MOL   H70841588   7.300   1.617   6.048 -1.6346  0.3035 -0.5867
   41MOL   H70941589   7.321   1.804   5.881 -0.8664 -0.0287  0.3183
   41MOL   H71041590   7.173   2.020   5.785 -0.8215 -1.2841 -1.3126
   41MOL   H71141591   7.178   2.028   5.547  0.1254  0.5041  1.2900
   41MOL   H71241592   7.243   2.280   5.305 -0.9530 -0.9168 -3.0566
   41MOL   H71341593   7.347   2.475   5.198 -1.9334 -0.8931  0.7091
   41MOL   H71441594   7.739   2.708   5.146 -2.1487  0.4661  0.1040
   41MOL   H71541595   7.931   2.769   4.990 -1.0777  1.1242 -0.5211
   41MOL   N71641596   7.330   1.680   6.460 -0.1856  0.2496  0.3068
   41MOL   C71741597   7.203   1.729   6.496  0.4341 -0.2025 -0.9590
   41MOL   C71841598   7.086   1.707   6.421  0.2669 -0.0554 -0.7955
   41MOL   C71941599   6.964   1.763   6.466 -0.3264  0.8150  0.5348
   41MOL   C72041600   6.962   1.843   6.584  0.3426 -0.5479  0.0383
   41MOL   N72141601   6.844   1.900   6.631  0.1972  0.3628 -0.3942
   41MOL   C72241602   6.829   1.976   6.742  0.2710  0.1285 -0.3762
   41MOL   C72341603   6.868   1.933   6.872  0.0640 -0.4343  0.5975
   41MOL   C72441604   6.845   2.025   6.979 -0.7490 -0.5740  0.6753
   41MOL   C72541605   6.790   2.156   6.957  0.5699  0.9617 -0.2643
   41MOL   N72641606   6.751   2.224   7.070 -0.1275  0.4470 -0.3574
   41MOL   C72741607   6.773   2.358   7.103 -0.1818 -0.4616 -0.0887
   41MOL   C72841608   6.839   2.448   7.010  0.1883 -0.3945 -0.3077
   41MOL   C72941609   6.851   2.585   7.047 -0.1557  0.0232  0.5546
   41MOL   C73041610   6.828   2.629   7.179 -0.5886 -0.6471 -0.7365
   41MOL   N73141611   6.850   2.766   7.208  0.8964  0.7087 -0.0070
   41MOL   C73241612   6.792   2.870   7.141  0.4459  0.1111 -0.5695
   41MOL   C73341613   6.653   2.879   7.135  0.0871 -0.7615 -0.0494
   41MOL   C73441614   6.599   2.983   7.067  0.6208 -0.0058  0.0086
   41MOL   C73541615   6.669   3.081   7.002 -0.7203 -0.2081 -0.3526
   41MOL   C73641616   6.596   3.192   6.920  0.1845  0.6307  0.3607
   41MOL   C73741617   6.813   3.073   7.013 -0.3517 -0.2216 -0.0322
   41MOL   C73841618   6.870   2.973   7.089 -0.1201 -0.5576  0.0496
   41MOL   C73941619   6.773   2.536   7.270 -0.9576 -0.0588  0.3725
   41MOL   C74041620   6.752   2.404   7.231  0.7799 -0.5713 -0.7678
   41MOL   C74141621   6.752   2.197   6.825 -0.1458  0.3044 -0.2768
   41MOL   C74241622   6.772   2.102   6.724  0.8250  0.2206 -0.2411
   41MOL   C74341623   7.076   1.858   6.661 -0.2280  0.9513  0.5021
   41MOL   C74441624   7.197   1.803   6.616 -0.2438  0.3574  0.3093
   41MOL   H74541625   7.404   1.687   6.528 -0.6602 -0.6772  0.9253
   41MOL   H74641626   7.089   1.651   6.329 -0.1921 -0.0661 -0.8022
   41MOL   H74741627   6.880   1.749   6.400  0.1986  0.5070 -0.0744
   41MOL   H74841628   6.768   1.900   6.564  0.8946 -0.3074 -1.2204
   41MOL   H74941629   6.905   1.835   6.899 -2.1027 -1.6831 -0.7571
   41MOL   H75041630   6.873   1.986   7.076  1.7946  1.1575  0.7058
   41MOL   H75141631   6.719   2.177   7.154  1.3822  2.0861  1.1595
   41MOL   H75241632   6.879   2.407   6.919 -0.7189 -1.2144 -0.3443
   41MOL   H75341633   6.887   2.661   6.980  0.0622  0.3747  1.0608
   41MOL   H75441634   6.948   2.785   7.225  0.9517 -0.7647  1.4697
   41MOL   H75541635   6.584   2.800   7.162 -1.3132  0.7417  0.8593
   41MOL   H75641636   6.491   2.989   7.063  0.4367  0.0372  3.6137
   41MOL   H75741637   6.542   3.261   6.985  1.8922 -0.3080  2.8660
   41MOL   H75841638   6.532   3.145   6.845 -1.0437  3.0211 -0.1434
   41MOL   H75941639   6.868   3.156   6.971 -1.8967  0.0162 -1.6880
   41MOL   H76041640   6.978   2.977   7.098 -0.1790 -0.0880  0.5812
   41MOL   H76141641   6.762   2.556   7.375 -0.9876 -0.2048  0.3980
   41MOL   H76241642   6.732   2.346   7.319  1.4765  0.5546  0.1373
   41MOL   H76341643   6.698   2.291   6.820  0.0391  0.4056 -0.3625
   41MOL   H76441644   6.739   2.132   6.625  1.1623  1.0428 -0.1125
   41MOL   H76541645   7.080   1.921   6.749 -2.6187 -0.7031  1.8537
   41MOL   H76641646   7.282   1.820   6.680 -0.5346  0.5544  0.6434
   41MOL   N76741647   6.688   3.261   6.834 -0.4747  0.1903  0.3974
   41MOL   C76841648   6.723   3.394   6.871  0.0823  0.3554  0.1357
   41MOL   C76941649   6.768   3.428   6.996 -0.1529  0.5753  0.4384
   41MOL   C77041650   6.784   3.569   7.028 -0.5590 -0.0862  0.1497
   41MOL   C77141651   6.739   3.668   6.930 -0.5352  0.4909  0.8087
   41MOL   N77241652   6.741   3.804   6.969  0.1074 -0.2586  0.5243
   41MOL   C77341653   6.824   3.876   7.052 -0.0970 -0.3769 -0.8463
   41MOL   C77441654   6.779   3.996   7.103  0.1720  0.6102 -0.2351
   41MOL   C77541655   6.853   4.071   7.198 -0.0752  0.7878 -0.3625
   41MOL   C77641656   6.981   4.032   7.237 -0.0590 -0.1909 -0.4938
   41MOL   N77741657   7.047   4.113   7.326  0.1682  0.5847  0.0605
   41MOL   C77841658   7.187   4.103   7.354  0.3913  0.5248  0.1098
   41MOL   C77941659   7.287   4.176   7.281  0.6364 -0.7362 -0.2593
   41MOL   C78041660   7.424   4.141   7.302  0.4513  0.4590 -0.2892
   41MOL   C78141661   7.462   4.053   7.406  0.0318  0.3184 -0.1584
   41MOL   N78241662   7.602   4.027   7.435 -0.0365  0.2244 -0.5291
   41MOL   C78341663   7.716   4.039   7.352 -0.1805 -0.4713  0.6873
   41MOL   C78441664   7.719   4.009   7.211 -0.6014 -0.0136  0.2940
   41MOL   C78541665   7.839   4.018   7.132  0.4255  0.0447 -0.0581
   41MOL   C78641666   7.966   4.039   7.195 -0.2636  0.4073  0.0039
   41MOL   C78741667   0.109   4.041   7.106  0.5747  0.8704 -0.1343
   41MOL   C78841668   7.959   4.070   7.336 -0.6487 -0.2515 -0.2151
   41MOL   C78941669   7.840   4.074   7.410 -0.1056 -0.3954  0.2338
   41MOL   C79041670   7.364   3.993   7.487  0.6553  0.0983 -0.2719
   41MOL   C79141671   7.226   4.017   7.461  0.4666  0.2102  0.8231
   41MOL   C79241672   7.026   3.908   7.184  0.3466 -0.0742 -0.6264
   41MOL   C79341673   6.951   3.827   7.097 -0.3428 -1.0808  0.5646
   41MOL   C79441674   6.686   3.634   6.810 -0.2551  0.6630  0.3263
   41MOL   C79541675   6.685   3.497   6.774  0.6753 -0.2223  0.0085
   41MOL   H79641676   6.720   3.208   6.754 -1.3701  0.4345 -0.1327
   41MOL   H79741677   6.782   3.348   7.068  1.7631  0.0804 -0.4552
   41MOL   H79841678   6.815   3.605   7.125 -0.8885  1.3878 -0.2818
   41MOL   H79941679   6.675   3.870   6.930  0.3086 -1.6448 -2.2630
   41MOL   H80041680   6.686   4.047   7.083  1.5769  2.5851 -1.9827
   41MOL   H80141681   6.805   4.157   7.244 -0.1848  0.2310  0.5819
   41MOL   H80241682   7.016   4.210   7.332  1.4279  0.9758  0.2938
   41MOL   H80341683   7.249   4.249   7.211 -0.6610  1.0965  2.2983
   41MOL   H80441684   7.502   4.194   7.250  0.3284 -0.3390 -1.3059
   41MOL   H80541685   7.617   4.045   7.534 -0.9130  0.5955 -0.4539
   41MOL   H80641686   7.629   3.990   7.155 -0.9198 -1.7909  1.3662
   41MOL   H80741687   7.817   4.004   7.028  0.5767  0.6881 -0.1786
   41MOL   H80841688   0.078   4.036   7.001  1.5264  0.1438 -0.3898
   41MOL   H80941689   0.162   3.949   7.133 -0.7699  0.1928  0.2520
   41MOL   H81041690   0.074   4.093   7.377 -0.0894 -0.0515 -1.6399
   41MOL   H81141691   7.842   4.090   7.516  0.2761  1.5464 -0.0574
   41MOL   H81241692   7.390   3.936   7.575  0.7834 -1.1641 -1.1095
   41MOL   H81341693   7.155   3.957   7.517  0.3609  1.6866  2.3018
   41MOL   H81441694   7.124   3.872   7.211  0.6196  1.3690  0.3654
   41MOL   H81541695   6.983   3.733   7.054 -0.4572 -0.7497 -0.2507
   41MOL   H81641696   6.642   3.708   6.744  0.9808  1.2607  0.1566
   41MOL   H81741697   6.643   3.483   6.675 -1.3143  0.6196  0.7231
   41MOL   N81841698   0.206   4.139   7.150 -0.8098  0.5403 -0.0130
   41MOL   C81941699   0.325   4.157   7.082 -0.1925 -0.7869 -0.3442
   41MOL   C82041700   0.392   4.282   7.088  0.6490 -0.2060 -0.1113
   41MOL   C82141701   0.511   4.307   7.013 -0.1394 -0.4794 -0.1280
   41MOL   C82241702   0.575   4.203   6.940  0.0344 -0.0383 -0.3061
   41MOL   N82341703   0.703   4.212   6.884  0.1677 -0.7166 -0.5919
   41MOL   C82441704   0.818   4.240   6.965 -1.0060 -0.0205 -0.1829
   41MOL   C82541705   0.803   4.248   7.104 -0.2068 -0.2360  0.0679
   41MOL   C82641706   0.916   4.266   7.187 -0.3363  0.4373 -0.3782
   41MOL   C82741707   1.043   4.289   7.130  0.4090  0.7201 -1.0845
   41MOL   N82841708   1.148   4.309   7.220 -1.1042  0.6633 -0.4401
   41MOL   C82941709   1.275   4.361   7.200 -0.1275  0.4456 -1.1436
   41MOL   C83041710   1.296   4.463   7.112  0.6051  0.3933 -0.5756
   41MOL   C83141711   1.426   4.518   7.098 -0.1222  0.3514 -0.2063
   41MOL   C83241712   1.533   4.470   7.171 -0.6600 -0.1641  0.9038
   41MOL   N83341713   1.656   4.525   7.157 -0.6676  0.8978  0.9616
   41MOL   C83441714   1.680   4.612   7.053 -0.2830 -0.0361  0.1484
   41MOL   C83541715   1.758   4.577   6.939 -0.1298 -0.0888 -0.4330
   41MOL   C83641716   1.768   4.666   6.833  0.3182  0.1028  0.2689
   41MOL   C83741717   1.729   4.804   6.842  0.5857 -0.1072  0.5149
   41MOL   C83841718   1.742   4.910   6.734 -0.5625  0.4427 -0.0243
   41MOL   C83941719   1.648   4.836   6.956  0.2034  0.0274 -0.6358
   41MOL   C84041720   1.632   4.745   7.061 -0.1691 -0.5580  0.2006
   41MOL   C84141721   1.513   4.366   7.263 -0.5044 -0.1103 -0.2817
   41MOL   C84241722   1.380   4.309   7.274 -0.3684 -0.6830 -0.5769
   41MOL   C84341723   1.060   4.269   6.994  0.3281  0.7354 -0.4961
   41MOL   C84441724   0.947   4.249   6.915  0.3065 -0.3211  0.5581
   41MOL   C84541725   0.505   4.076   6.941 -0.3492 -0.4015  0.1514
   41MOL   C84641726   0.379   4.057   7.003 -0.5653  0.1236 -0.4579
   41MOL   H84741727   0.188   4.176   7.242 -2.3384 -1.1120  0.3880
   41MOL   H84841728   0.363   4.361   7.156  0.0468 -1.4911  1.1761
   41MOL   H84941729   0.556   4.405   7.017 -2.0931  0.4348  0.0791
   41MOL   H85041730   0.717   4.145   6.810 -1.2985  1.7137 -3.1364
   41MOL   H85141731   0.709   4.230   7.153  1.0170 -0.2570  2.4816
   41MOL   H85241732   0.889   4.269   7.292 -1.0473  1.4488 -0.5892
   41MOL   H85341733   1.129   4.295   7.319 -0.4770 -1.8818 -0.6386
   41MOL   H85441734   1.220   4.515   7.056 -0.6151  1.7732  2.2509
   41MOL   H85541735   1.428   4.595   7.022 -0.7285  2.0131  1.4080
   41MOL   H85641736   1.734   4.496   7.215 -0.9917 -0.1113  0.8847
   41MOL   H85741737   1.796   4.476   6.940 -1.6800 -0.7049  2.8029
   41MOL   H85841738   1.824   4.619   6.754  0.7167 -2.7654  2.1955
   41MOL   H85941739   1.817   4.983   6.762 -0.6463  0.6552 -0.3551
   41MOL   H86041740   1.645   4.959   6.731 -1.3770 -1.0954  0.3324
   41MOL   H86141741   1.599   4.931   6.975 -4.3089 -2.5584  1.6412
   41MOL   H86241742   1.573   4.772   7.148  1.7620  1.2950  0.9758
   41MOL   H86341743   1.598   4.337   7.322 -1.3834 -0.5324  0.7889
   41MOL   H86441744   1.361   4.234   7.349 -1.6266  0.5636  0.3709
   41MOL   H86541745   1.153   4.284   6.941  0.5990  0.8134 -0.0036
   41MOL   H86641746   0.955   4.229   6.809  0.1015  1.1778  0.2448
   41MOL   H86741747   0.546   3.992   6.888  0.6276 -0.4688  0.9918
   41MOL   H86841748   0.346   3.954   7.002 -1.9498  0.5405  0.7797
   41MOL   N86941749   1.789   4.859   6.598 -0.4029  0.4013  0.1352
   41MOL   C87041750   1.735   4.759   6.522  0.1938  0.9598  0.3230
   41MOL   C87141751   1.596   4.723   6.524 -0.3328 -0.1535  0.2933
   41MOL   C87241752   1.555   4.627   6.430  0.2983 -0.4588  0.2754
   41MOL   C87341753   1.636   4.565   6.340 -0.6713 -0.5742  1.4445
   41MOL   N87441754   1.594   4.476   6.243  0.6731 -0.2013 -0.4717
   41MOL   C87541755   1.468   4.466   6.183 -1.3399 -0.4019 -0.0228
   41MOL   C87641756   1.437   4.341   6.128 -0.3287  0.1302  0.2534
   41MOL   C87741757   1.315   4.331   6.061 -0.2199 -0.3547  0.2571
   41MOL   C87841758   1.233   4.444   6.038  0.6874 -0.1452  0.2836
   41MOL   N87941759   1.110   4.425   5.964 -0.3555  0.0746 -0.7433
   41MOL   C88041760   1.002   4.335   5.988  0.0701 -0.2251 -0.4301
   41MOL   C88141761   0.997   4.246   6.100 -0.0348 -0.4257 -0.4220
   41MOL   C88241762   0.884   4.170   6.121  0.5369  0.7730 -0.1588
   41MOL   C88341763   0.770   4.176   6.037  0.0318  0.9871  0.4979
   41MOL   N88441764   0.660   4.096   6.068  0.2423 -0.2643 -0.2326
   41MOL   C88541765   0.526   4.118   6.033  0.1037 -0.5475 -0.1958
   41MOL   C88641766   0.436   4.007   6.029 -0.1211 -0.4299 -0.1450
   41MOL   C88741767   0.319   4.030   5.960  0.4844  1.1194  0.1903
   41MOL   C88841768   0.272   4.156   5.919 -0.5006 -0.8880 -0.1740
   41MOL   C88941769   0.133   4.175   5.857  0.1366  0.5925  0.0433
   41MOL   C89041770   0.349   4.267   5.949 -0.6454  0.1252 -0.5503
   41MOL   C89141771   0.477   4.248   6.005 -0.3320  0.3085  0.3252
   41MOL   C89241772   0.774   4.255   5.926 -0.1491 -0.3909  0.0135
   41MOL   C89341773   0.894   4.329   5.897  0.4295 -0.5113 -0.0297
   41MOL   C89441774   1.275   4.572   6.084  0.4437 -0.1863  0.5651
   41MOL   C89541775   1.394   4.584   6.154 -0.3055  0.1225  0.2289
   41MOL   C89641776   1.769   4.601   6.337 -0.4548 -0.1036  0.0052
   41MOL   C89741777   1.816   4.693   6.431 -0.3439 -0.0326 -0.2177
   41MOL   H89841778   1.878   4.889   6.561  0.4882 -0.9940  1.1124
   41MOL   H89941779   1.532   4.764   6.601 -0.8391 -0.8972  0.2688
   41MOL   H90041780   1.451   4.602   6.422  0.1424 -0.8876  3.2017
   41MOL   H90141781   1.660   4.403   6.225  1.8000  0.8125 -0.5166
   41MOL   H90241782   1.508   4.260   6.141  0.2982  0.8244  1.2125
   41MOL   H90341783   1.285   4.230   6.038 -2.7562  0.0131  1.7379
   41MOL   H90441784   1.096   4.491   5.889 -0.3233 -0.8385 -1.5647
   41MOL   H90541785   1.073   4.253   6.177  1.1423  0.2738 -1.6379
   41MOL   H90641786   0.882   4.105   6.207  0.1855  0.5647 -0.3269
   41MOL   H90741787   0.668   4.004   6.108 -0.1077 -0.3933 -0.4533
   41MOL   H90841788   0.452   3.905   6.064  2.7218  0.4249  1.2269
   41MOL   H90941789   0.247   3.953   5.936  0.5526  1.3975 -0.9324
   41MOL   H91041790   0.108   4.281   5.852  1.7319  0.9916  0.2373
   41MOL   H91141791   0.071   4.115   5.924  0.3067  0.9922  0.5569
   41MOL   H91241792   0.318   4.368   5.928 -0.6019  0.3256  0.3051
   41MOL   H91341793   0.548   4.325   6.030  0.9034 -1.5168  2.6104
   41MOL   H91441794   0.699   4.263   5.847 -0.8129  0.0026  0.6791
   41MOL   H91541795   0.885   4.382   5.803 -0.1044  0.1391  0.3867
   41MOL   H91641796   1.209   4.649   6.049  0.2785 -0.8610 -0.6143
   41MOL   H91741797   1.417   4.678   6.201 -0.8001  0.5869 -0.4456
   41MOL   H91841798   1.837   4.568   6.259 -2.6461 -0.7031 -1.6968
   41MOL   H91941799   1.922   4.713   6.427 -0.2227 -0.6298 -0.0779
   41MOL   N92041800   0.128   4.133   5.725 -1.1108  0.5112 -0.0793
   41MOL   C92141801   0.012   4.064   5.690  0.7504  0.0785  0.0109
   41MOL   C92241802   7.868   4.102   5.742 -0.2778  0.0910 -0.5350
   41MOL   C92341803   7.751   4.035   5.702 -0.6691 -0.2369 -0.1612
   41MOL   C92441804   7.763   3.913   5.625 -0.0051 -0.0155 -0.0386
   41MOL   N92541805   7.659   3.826   5.589 -0.1512 -0.2848  0.1523
   41MOL   C92641806   7.539   3.801   5.653 -0.7355 -0.2310  0.3707
   41MOL   C92741807   7.512   3.840   5.786 -0.0758  0.0338  0.0254
   41MOL   C92841808   7.385   3.817   5.839 -0.4454 -0.6203  0.1217
   41MOL   C92941809   7.294   3.723   5.775 -0.2936 -0.2083  0.0552
   41MOL   N93041810   7.169   3.698   5.826  0.6542  0.9444  0.0154
   41MOL   C93141811   7.110   3.718   5.950  0.4003  0.3533  0.6775
   41MOL   C93241812   6.977   3.767   5.969 -0.2635 -0.8127  0.4718
   41MOL   C93341813   6.922   3.761   6.092  0.0844 -0.0556  0.5428
   41MOL   C93441814   6.991   3.723   6.202 -0.6670  0.6735 -0.2721
   41MOL   N93541815   6.931   3.726   6.331  0.0749  0.0781  0.0438
   41MOL   C93641816   6.965   3.800   6.447  0.2036  0.6060 -0.3624
   41MOL   C93741817   7.055   3.905   6.436 -0.6730 -0.2950  0.3186
   41MOL   C93841818   7.084   3.993   6.544  0.2736 -0.2726 -0.2661
   41MOL   C93941819   7.007   3.983   6.661 -1.4983 -0.4631 -0.1964
   41MOL   C94041820   7.015   4.083   6.774 -0.2148 -0.3265  0.4600
   41MOL   C94141821   6.920   3.869   6.670  0.2122 -0.0582 -0.0960
   41MOL   C94241822   6.904   3.777   6.574 -0.2444 -0.3383 -0.1234
   41MOL   C94341823   7.115   3.667   6.186  0.5078 -0.3524 -0.0305
   41MOL   C94441824   7.177   3.662   6.062  0.0631  0.2974 -0.2176
   41MOL   C94541825   7.329   3.677   5.643  0.5254 -0.5946 -0.9402
   41MOL   C94641826   7.452   3.719   5.585 -0.1035  0.9967 -0.3285
   41MOL   C94741827   7.894   3.862   5.599 -0.3192  0.0762 -0.1524
   41MOL   C94841828   0.026   3.937   5.627 -0.2152  0.0578  0.1107
   41MOL   H94941829   0.209   4.079   5.697 -0.3085  2.2269 -1.1121
   41MOL   H95041830   7.856   4.198   5.791  0.0082  0.2519 -0.7783
   41MOL   H95141831   7.656   4.077   5.731 -0.6662 -0.7033  0.5501
   41MOL   H95241832   7.664   3.815   5.489  1.3982  0.7096  0.1097
   41MOL   H95341833   7.580   3.903   5.842 -0.0399  1.6848 -1.8074
   41MOL   H95441834   7.367   3.867   5.933  1.0230 -1.7492  1.0217
   41MOL   H95541835   7.103   3.673   5.754  0.8154 -1.0117  0.4975
   41MOL   H95641836   6.913   3.795   5.887  0.0292 -0.6203  0.3090
   41MOL   H95741837   6.818   3.787   6.107 -0.4080 -2.2340  1.0296
   41MOL   H95841838   6.847   3.670   6.335 -0.1550  0.4666  0.8809
   41MOL   H95941839   7.118   3.933   6.353  0.0911 -2.1794  0.2422
   41MOL   H96041840   7.153   4.072   6.520 -0.5118  0.0171 -1.5715
   41MOL   H96141841   7.116   4.080   6.815 -0.9225 -0.2619  2.2280
   41MOL   H96241842   6.939   4.071   6.851 -1.3950 -1.4425 -0.8555
   41MOL   H96341843   6.864   3.857   6.761 -0.4145  0.8321 -0.3557
   41MOL   H96441844   6.838   3.692   6.585 -1.1584  0.2224 -1.1737
   41MOL   H96541845   7.169   3.631   6.273 -1.0658  0.9195  1.5010
   41MOL   H96641846   7.276   3.620   6.050 -0.6687 -0.7599 -2.9453
   41MOL   H96741847   7.256   3.612   5.596  2.6608 -2.2676 -2.0129
   41MOL   H96841848   7.482   3.672   5.493 -1.8861 -2.5490  0.8212
   41MOL   H96941849   7.905   3.763   5.557  0.0870  0.7023 -1.5727
   41MOL   H97041850   0.119   3.897   5.591 -0.2209  1.2553 -1.2749
   41MOL   N97141851   6.999   4.225   6.728 -0.2323 -0.1077  0.0802
   41MOL   C97241852   6.989   4.331   6.823 -0.3052  0.3716 -0.3078
   41MOL   C97341853   6.956   4.464   6.790 -0.3829  0.2520 -0.5475
   41MOL   C97441854   6.954   4.566   6.887  0.1272 -0.5361 -0.0150
   41MOL   C97541855   6.987   4.536   7.014  1.1333 -0.7314  0.8883
   41MOL   N97641856   7.011   4.637   7.108  1.3435  0.2208  0.2347
   41MOL   C97741857   7.071   4.757   7.082 -0.3615 -0.6604  0.4373
   41MOL   C97841858   7.183   4.774   6.996 -0.2162 -0.5597 -0.9320
   41MOL   C97941859   7.254   4.895   6.986 -0.5151  0.6596  0.1564
   41MOL   C98041860   7.210   5.003   7.067  0.6196 -0.0327  0.1000
   41MOL   N98141861   7.273   5.125   7.069 -0.0913 -0.5854  0.1998
   41MOL   C98241862   7.213   5.246   7.041  0.0336 -0.6885 -0.3471
   41MOL   C98341863   7.277   5.365   7.081 -0.2000  0.2363  0.5107
   41MOL   C98441864   7.228   5.492   7.044 -0.4459  0.0413  0.0829
   41MOL   C98541865   7.100   5.495   6.988 -0.4184 -0.3453 -0.1550
   41MOL   N98641866   7.037   5.623   6.966 -0.7304  0.2433 -0.3183
   41MOL   C98741867   7.060   5.751   7.013  0.5912  0.7621  0.2594
   41MOL   C98841868   7.049   5.852   6.917 -0.2560  0.5703 -0.0630
   41MOL   C98941869   7.082   5.981   6.952 -0.0274 -0.2088 -0.0808
   41MOL   C99041870   7.134   6.009   7.081  0.1439 -0.0355 -0.2620
   41MOL   C99141871   7.205   6.135   7.115  0.3079  0.9354 -0.1862
   41MOL   C99241872   7.127   5.909   7.180 -0.8513  0.1545 -0.2363
   41MOL   C99341873   7.094   5.779   7.146 -0.1678 -0.0166 -0.0468
   41MOL   C99441874   7.027   5.377   6.957  0.0624 -0.4800  0.3032
   41MOL   C99541875   7.088   5.251   6.973 -0.1843 -0.1122  0.3256
   41MOL   C99641876   7.098   4.988   7.152 -0.2066 -0.3937  0.0714
   41MOL   C99741877   7.026   4.866   7.157  1.4108 -0.2972  0.4734
   41MOL   C99841878   6.997   4.403   7.057 -0.4651 -0.7648 -0.1027
   41MOL   C99941879   7.009   4.302   6.957 -0.4249 -0.3733 -0.1321
   41MOL     H141880   7.002   4.251   6.631 -3.9422 -2.3586 -0.7319
   41MOL     H241881   6.938   4.496   6.688  0.5829  1.1188 -0.4587
   41MOL     H341882   6.944   4.670   6.862 -1.1674 -0.3987  1.0668
   41MOL     H441883   6.960   4.654   7.194 -0.5623  2.1643 -1.2159
   41MOL     H541884   7.213   4.695   6.929 -2.4903 -1.9393 -0.3650
   41MOL     H641885   7.332   4.907   6.912 -1.7751  1.8438 -1.0142
   41MOL     H741886   7.347   5.122   7.137  2.8955  2.5957 -2.7305
   41MOL     H841887   7.368   5.352   7.137  0.0390  2.9337  0.8087
   41MOL     H941888   7.290   5.579   7.063  2.5547 -1.8593 -0.5356
   41MOL    H1041889   7.009   5.625   6.869 -2.4741 -1.6664  0.1087
   41MOL    H1141890   7.035   5.815   6.817 -0.6759 -0.6026  0.4255
   41MOL    H1241891   7.086   6.057   6.875 -0.0288  0.4057  0.5199
   41MOL    H1341892   7.197   6.153   7.222 -0.3438 -1.5362  0.2111
   41MOL    H1441893   7.152   6.216   7.067 -1.3963 -0.1332 -0.1342
   41MOL    H1541894   7.162   5.933   7.279 -0.8120  0.4982 -0.3328
   41MOL    H1641895   7.102   5.696   7.215 -0.7352  0.1993  0.2822
   41MOL    H1741896   6.927   5.379   6.917  0.5511  0.0929 -0.9196
   41MOL    H1841897   7.035   5.161   6.948  2.0933 -1.7112  1.1219
   41MOL    H1941898   7.078   5.070   7.219  2.7010  0.0073  0.5200
   41MOL    H2041899   6.938   4.855   7.219 -1.0470 -0.2290 -2.8755
   41MOL    H2141900   7.027   4.376   7.157  0.5898 -0.7317 -0.4028
   41MOL    H2241901   7.029   4.205   6.999 -0.4614  0.6244  2.3014
   41MOL    H2341902   7.313   6.122   7.101  0.5330 -0.8187  2.5708
   42MOL     N141903   4.349   5.770   3.573 -0.4911  0.0830  0.0622
   42MOL     C241904   4.411   5.878   3.644  0.0809  0.1886 -0.0492
   42MOL     C341905   4.388   6.010   3.609 -0.6964  0.8635 -0.0365
   42MOL     C441906   4.448   6.113   3.685 -0.0218  0.5889 -0.2227
   42MOL     C541907   4.535   6.083   3.789  0.5446 -0.4074 -0.0368
   42MOL     N641908   4.597   6.189   3.860 -0.0496 -0.1406  0.2542
   42MOL     C741909   4.606   6.325   3.819 -0.5124 -0.2495  0.3158
   42MOL     C841910   4.584   6.428   3.916  0.1213  0.3581 -0.2432
   42MOL     C941911   4.609   6.562   3.881 -0.1584  0.0082 -0.0573
   42MOL    C1041912   4.662   6.595   3.752 -0.4346  0.4040 -0.2800
   42MOL    N1141913   4.685   6.726   3.715  0.2093  0.3375  0.0872
   42MOL    C1241914   4.629   6.799   3.607  0.1187 -0.0581  0.3223
   42MOL    C1341915   4.658   6.934   3.584 -1.0168  0.1508  0.1043
   42MOL    C1441916   4.606   7.009   3.480  0.1792  0.3270  0.4273
   42MOL    C1541917   4.505   6.953   3.404 -0.1724 -0.2961  0.4103
   42MOL    N1641918   4.452   7.032   3.305 -0.2459 -0.3981  0.2465
   42MOL    C1741919   4.325   7.016   3.240 -0.1231  0.0777 -0.2387
   42MOL    C1841920   4.319   7.045   3.105  0.6624 -0.5603  0.3166
   42MOL    C1941921   4.190   7.036   3.039 -0.0789  0.1376  0.7644
   42MOL    C2041922   4.076   7.009   3.117  0.4175 -0.4742  0.5544
   42MOL    C2141923   3.936   6.998   3.044 -0.3431  1.0349 -0.7642
   42MOL    C2241924   4.084   6.994   3.258 -1.0532 -0.2110 -1.2559
   42MOL    C2341925   4.209   6.995   3.318 -0.5418  0.0368  0.3577
   42MOL    C2441926   4.469   6.817   3.425  0.1646 -0.5586  0.0112
   42MOL    C2541927   4.526   6.741   3.526  0.8550 -0.0592 -0.4519
   42MOL    C2641928   4.678   6.494   3.651 -0.0407  0.5096  0.0708
   42MOL    C2741929   4.659   6.360   3.693  0.5750 -0.3715  0.7552
   42MOL    C2841930   4.564   5.948   3.817 -0.3860 -0.5253  0.5210
   42MOL    C2941931   4.495   5.846   3.754 -0.3971  0.6683 -0.6104
   42MOL    H3041932   4.355   5.675   3.607  2.6749  0.1090 -0.2862
   42MOL    H3141933   4.320   6.035   3.530 -0.6421  0.8842 -0.0782
   42MOL    H3241934   4.428   6.215   3.657  0.3403  0.7811  0.2049
   42MOL    H3341935   4.625   6.173   3.956  1.6192 -1.9224 -0.4888
   42MOL    H3441936   4.551   6.399   4.014 -0.3714  0.6141 -0.3327
   42MOL    H3541937   4.599   6.635   3.960 -0.5180  0.3410 -0.4067
   42MOL    H3641938   4.748   6.775   3.777 -0.5606 -0.4151  1.5068
   42MOL    H3741939   4.725   6.990   3.648  1.3583 -1.3790 -0.9434
   42MOL    H3841940   4.634   7.113   3.477  0.6362  0.3041  2.6652
   42MOL    H3941941   4.517   7.102   3.271  1.8298 -1.8412  1.0862
   42MOL    H4041942   4.409   7.070   3.051  0.4992 -0.1834  0.2132
   42MOL    H4141943   4.172   7.048   2.933  1.8977 -1.0813  0.2741
   42MOL    H4241944   3.907   7.092   2.996  0.5477  0.6248 -2.1357
   42MOL    H4341945   3.861   6.978   3.120 -0.7646  0.2246 -1.3826
   42MOL    H4441946   3.989   6.987   3.309 -1.3201 -0.6060 -1.8092
   42MOL    H4541947   4.219   6.980   3.425  1.5396  1.8160  0.4415
   42MOL    H4641948   4.396   6.774   3.359  0.3177  0.7826 -1.0690
   42MOL    H4741949   4.496   6.638   3.536 -2.3504  0.8454 -0.0343
   42MOL    H4841950   4.713   6.513   3.551  2.5454  0.8850  1.0027
   42MOL    H4941951   4.687   6.280   3.626  0.5620  0.5575 -0.3756
   42MOL    H5041952   4.638   5.922   3.890 -1.2588 -1.7009  0.9909
   42MOL    H5141953   4.517   5.744   3.782 -1.3311  0.1226 -1.8059
   42MOL    H5241954   4.250   5.783   3.559 -0.1812  0.2525 -2.0867
   42MOL    N5341955   3.933   6.888   2.946 -0.4216 -0.1604  0.4303
   42MOL    C5441956   3.907   6.918   2.814  0.7600 -0.2221 -0.2869
   42MOL    C5541957   3.961   6.831   2.718 -0.1699  0.2857 -0.9309
   42MOL    C5641958   3.927   6.845   2.582 -0.3784  0.1066 -0.3216
   42MOL    C5741959   3.846   6.951   2.536  0.2415  0.2662  0.1493
   42MOL    N5841960   3.816   6.978   2.403 -0.5234 -0.9453 -0.0159
   42MOL    C5941961   3.905   6.972   2.298 -0.5315 -0.0362 -0.2552
   42MOL    C6041962   3.958   6.847   2.258  0.9971 -0.2976  0.3863
   42MOL    C6141963   4.073   6.852   2.178 -0.1309 -0.6469 -0.0784
   42MOL    C6241964   4.114   6.969   2.115 -0.5982 -0.1670  0.1161
   42MOL    N6341965   4.238   6.962   2.041  0.4884 -0.0091 -0.2984
   42MOL    C6441966   4.284   7.056   1.945 -0.3070 -0.7192  0.3397
   42MOL    C6541967   4.418   7.100   1.950 -0.2744  0.4703 -0.2451
   42MOL    C6641968   4.458   7.202   1.866 -0.7298  0.1851  0.2420
   42MOL    C6741969   4.370   7.267   1.776 -0.2574 -0.2610 -0.3001
   42MOL    N6841970   4.411   7.381   1.695 -0.1010  0.3059 -0.1506
   42MOL    C6941971   4.346   7.425   1.579  0.3228  0.1099  0.3895
   42MOL    C7041972   4.286   7.337   1.488 -0.3661  0.6775  0.0044
   42MOL    C7141973   4.226   7.387   1.370 -0.2016  0.6894  0.6989
   42MOL    C7241974   4.237   7.522   1.338 -0.0824 -0.1273  0.6953
   42MOL    C7341975   4.191   7.576   1.208  0.5336  1.2003  1.0579
   42MOL    C7441976   4.289   7.611   1.433 -0.2971 -0.3063 -0.9764
   42MOL    C7541977   4.356   7.559   1.545  0.3907  0.3745  0.0815
   42MOL    C7641978   4.238   7.222   1.772 -0.1921 -0.5337  0.1168
   42MOL    C7741979   4.195   7.116   1.854 -0.0152 -0.2375 -0.2036
   42MOL    C7841980   4.049   7.094   2.145  0.3431 -0.3398  0.2041
   42MOL    C7941981   3.938   7.094   2.233 -0.5369 -0.2080  0.1176
   42MOL    C8041982   3.795   7.040   2.636 -0.1462  0.4832  0.1888
   42MOL    C8141983   3.829   7.030   2.770  0.0825 -0.6166 -0.9937
   42MOL    H8241984   4.009   6.822   2.958 -0.2863  0.3074  2.3343
   42MOL    H8341985   4.024   6.748   2.747 -0.9260 -0.3915 -1.2153
   42MOL    H8441986   3.966   6.772   2.514 -0.3563  0.3257 -0.5437
   42MOL    H8541987   3.748   7.053   2.394  0.2883 -0.4641 -2.4196
   42MOL    H8641988   3.921   6.756   2.303 -0.9057  0.4830  0.4619
   42MOL    H8741989   4.124   6.760   2.152 -1.3875 -1.5880  0.7548
   42MOL    H8841990   4.285   6.874   2.057 -0.3480 -0.0177  2.3000
   42MOL    H8941991   4.493   7.057   2.015 -1.0091  0.7391  0.8075
   42MOL    H9041992   4.563   7.226   1.866 -0.0184 -2.7571  0.3140
   42MOL    H9141993   4.491   7.433   1.728  0.7910  0.9488 -3.1431
   42MOL    H9241994   4.291   7.230   1.502  0.5368  0.6823 -0.2014
   42MOL    H9341995   4.186   7.318   1.298 -2.8907  0.6123  2.2110
   42MOL    H9441996   4.279   7.600   1.148  0.4203 -0.4659  0.1770
   42MOL    H9541997   4.133   7.667   1.221 -0.7838  0.7375 -1.2453
   42MOL    H9641998   4.288   7.717   1.412  0.3288 -0.0024  0.5385
   42MOL    H9741999   4.398   7.635   1.609 -1.6152  1.9116 -0.3597
   42MOL    H9842000   4.166   7.264   1.704  1.2792  2.7764  0.4946
   42MOL    H9942001   4.092   7.086   1.847 -0.2138  0.4659 -0.4385
   42MOL   H10042002   4.085   7.184   2.098 -0.3024  0.1189  0.5729
   42MOL   H10142003   3.880   7.184   2.244  0.3671  0.3878  0.0010
   42MOL   H10242004   3.725   7.119   2.611 -2.3244 -1.3302  0.4120
   42MOL   H10342005   3.788   7.103   2.838 -0.5992 -0.4689 -1.5637
   42MOL   N10442006   4.111   7.490   1.120 -0.2346 -0.3381  0.0857
   42MOL   C10542007   3.975   7.485   1.132  0.5451 -0.0709  0.1464
   42MOL   C10642008   3.915   7.507   1.259 -0.2121 -0.6077 -0.2715
   42MOL   C10742009   3.773   7.492   1.268  0.0714  0.1113  0.2698
   42MOL   C10842010   3.696   7.463   1.156 -0.4977  0.2464  0.5437
   42MOL   N10942011   3.558   7.465   1.160  0.4228  0.0162  0.3606
   42MOL   C11042012   3.467   7.403   1.248 -0.3264 -0.3452  0.2322
   42MOL   C11142013   3.509   7.306   1.340  0.9111  0.7728  1.0299
   42MOL   C11242014   3.416   7.250   1.430 -0.2947 -0.8250 -0.0595
   42MOL   C11342015   3.279   7.288   1.429 -0.0586 -0.5153  0.6138
   42MOL   N11442016   3.197   7.238   1.522 -0.3177 -0.1063 -0.6806
   42MOL   C11542017   3.216   7.192   1.654 -0.0787  0.5400  0.2941
   42MOL   C11642018   3.129   7.087   1.705  0.0853 -0.6596 -0.4706
   42MOL   C11742019   3.154   7.023   1.829 -1.0088 -0.4625  0.1998
   42MOL   C11842020   3.260   7.080   1.914 -0.0620  0.9151 -0.1150
   42MOL   N11942021   3.284   7.016   2.038  0.1261  0.5163  0.0057
   42MOL   C12042022   3.337   7.071   2.159  0.1335 -0.0728 -0.3186
   42MOL   C12142023   3.290   7.198   2.205  0.2737 -0.9550 -0.4200
   42MOL   C12242024   3.333   7.256   2.323 -0.0334  0.8903 -0.0044
   42MOL   C12342025   3.426   7.185   2.403  0.1546  0.1851  0.3673
   42MOL   C12442026   3.470   7.251   2.537 -0.5294 -0.0247  0.9278
   42MOL   C12542027   3.475   7.060   2.363 -0.0204 -0.2427 -0.2239
   42MOL   C12642028   3.439   7.009   2.234 -0.1929  0.0311  0.1230
   42MOL   C12742029   3.339   7.184   1.869 -0.2671 -0.7205 -0.1451
   42MOL   C12842030   3.316   7.241   1.744  0.6616 -0.3873  0.3241
   42MOL   C12942031   3.237   7.381   1.334 -0.4683 -0.4477  0.2055
   42MOL   C13042032   3.327   7.440   1.246 -0.4202  0.5823  0.6726
   42MOL   C13142033   3.759   7.445   1.033 -0.1288 -0.3014 -0.4711
   42MOL   C13242034   3.898   7.447   1.020  0.3483 -0.4189 -0.0991
   42MOL   H13342035   4.148   7.481   1.026  0.7802 -3.2786  0.7035
   42MOL   H13442036   3.972   7.527   1.349  0.1921 -1.1588 -0.3995
   42MOL   H13542037   3.727   7.502   1.365  0.4991  1.4303  0.3393
   42MOL   H13642038   3.511   7.475   1.071  1.9704  0.9122 -0.3692
   42MOL   H13742039   3.609   7.265   1.337  0.6343  0.2292 -0.7847
   42MOL   H13842040   3.451   7.181   1.506  0.2368  0.6800  1.0930
   42MOL   H13942041   3.099   7.261   1.510 -0.7567 -2.1068 -1.0553
   42MOL   H14042042   3.041   7.057   1.650 -1.0521  0.3222  0.8000
   42MOL   H14142043   3.090   6.942   1.860 -2.1643  0.6164  0.6666
   42MOL   H14242044   3.288   6.915   2.030  0.1930  0.6008 -1.0437
   42MOL   H14342045   3.226   7.256   2.140 -0.0783 -0.2753  0.5184
   42MOL   H14442046   3.294   7.354   2.345 -2.4024  0.3499 -1.5432
   42MOL   H14542047   3.418   7.344   2.563 -0.0503  0.1702  1.1912
   42MOL   H14642048   3.577   7.270   2.532 -0.3565 -0.8082  1.5868
   42MOL   H14742049   3.534   7.008   2.436 -2.3278 -0.1336  1.7808
   42MOL   H14842050   3.480   6.913   2.205 -3.0444 -1.4616  0.8515
   42MOL   H14942051   3.413   7.235   1.930  0.5823  0.2176 -1.9130
   42MOL   H15042052   3.381   7.319   1.709  1.1372 -0.0543  1.9422
   42MOL   H15142053   3.136   7.416   1.317  0.0693  0.7791 -0.5997
   42MOL   H15242054   3.284   7.512   1.177 -1.4356 -0.9312 -0.3333
   42MOL   H15342055   3.693   7.438   0.947 -0.2242 -1.4688 -0.3142
   42MOL   H15442056   3.938   7.423   0.922 -1.5294  1.0278 -1.2559
   42MOL   N15542057   3.448   7.162   2.641  0.3292  0.0940  0.0929
   42MOL   C15642058   3.467   7.196   2.777 -1.0106  0.8323  0.0881
   42MOL   C15742059   3.561   7.289   2.828 -0.3504  0.3502 -0.0623
   42MOL   C15842060   3.564   7.317   2.969  0.3811 -0.2715 -0.2639
   42MOL   C15942061   3.467   7.259   3.053  0.2180 -0.0729 -0.2727
   42MOL   N16042062   3.465   7.285   3.190 -0.6835  0.1203 -0.7852
   42MOL   C16142063   3.513   7.391   3.257  0.6335 -0.2664 -0.6681
   42MOL   C16242064   3.491   7.527   3.206  0.0655 -0.0935 -0.1599
   42MOL   C16342065   3.539   7.630   3.285  0.2283  0.0500 -0.0467
   42MOL   C16442066   3.602   7.617   3.408  0.0102 -0.6158 -0.4241
   42MOL   N16542067   3.657   7.720   3.486  0.3064 -0.3912  0.1345
   42MOL   C16642068   3.671   7.858   3.459  0.0408 -0.7432 -0.2456
   42MOL   C16742069   3.584   7.935   3.386 -0.3833 -0.1181 -0.0092
   42MOL   C16842070   3.609   0.086   3.364 -0.1233  0.2419 -0.7373
   42MOL   C16942071   3.731   0.145   3.410 -0.6542 -0.2477 -0.0529
   42MOL   N17042072   3.747   0.277   3.388  0.3457  0.5387 -0.2932
   42MOL   C17142073   3.756   0.338   3.262  0.7236  0.0207 -0.3603
   42MOL   C17242074   3.737   0.259   3.142  0.0099  0.1570  1.0211
   42MOL   C17342075   3.757   0.314   3.014  0.6677 -0.0268  0.6018
   42MOL   C17442076   3.758   0.455   3.004  0.1104  0.1421  0.0999
   42MOL   C17542077   3.762   0.520   2.864  0.3646  0.2260  0.2116
   42MOL   C17642078   3.765   0.533   3.121  0.0312  0.1660 -0.4045
   42MOL   C17742079   3.768   0.478   3.251 -0.2444 -0.3037 -0.1769
   42MOL   C17842080   3.822   0.066   3.483 -0.1154  0.6528  0.2745
   42MOL   C17942081   3.793   7.913   3.500 -0.1547 -0.3067  0.3500
   42MOL   C18042082   3.613   7.488   3.459 -0.1158  0.0398  0.3423
   42MOL   C18142083   3.571   7.373   3.387  0.1337 -0.3224 -0.3575
   42MOL   C18242084   3.378   7.159   3.009 -0.1835 -0.6304  0.5001
   42MOL   C18342085   3.388   7.122   2.867  0.5195  0.3191  0.0221
   42MOL   H18442086   3.379   7.090   2.625  1.1300 -0.7617  0.4243
   42MOL   H18542087   3.619   7.349   2.760 -4.4745  4.5880 -0.0404
   42MOL   H18642088   3.637   7.386   3.007  1.3442 -1.3575 -0.0978
   42MOL   H18742089   3.449   7.200   3.242  1.2708  0.3553  0.2660
   42MOL   H18842090   3.454   7.538   3.105 -1.1130  0.9913  0.3805
   42MOL   H18942091   3.527   7.728   3.242  0.2681  1.0085  2.0590
   42MOL   H19042092   3.702   7.701   3.574 -0.2143  2.9041  1.1738
   42MOL   H19142093   3.496   7.882   3.355 -2.6390  1.8922  2.7619
   42MOL   H19242094   3.545   0.146   3.301 -1.5604 -0.2811  0.2039
   42MOL   H19342095   3.826   0.319   3.436 -1.3091  0.9440  2.1504
   42MOL   H19442096   3.735   0.151   3.142  0.0463  0.1501  0.4859
   42MOL   H19542097   3.757   0.248   2.929 -0.7338  2.1833 -1.1876
   42MOL   H19642098   3.835   0.600   2.866  0.5378  0.0713  0.1218
   42MOL   H19742099   3.668   0.574   2.851  0.1870  0.0330  0.6722
   42MOL   H19842100   3.772   0.640   3.106 -3.5369  0.5084  0.0972
   42MOL   H19942101   3.776   0.535   3.343 -1.6690 -0.8532  0.3017
   42MOL   H20042102   3.909   0.114   3.526  0.1263 -1.7679  2.6224
   42MOL   H20142103   3.865   7.849   3.548  0.4638  1.2930  1.6189
   42MOL   H20242104   3.660   7.465   3.554  1.9054  0.0764 -0.6405
   42MOL   H20342105   3.592   7.278   3.433  0.9053 -0.0709 -0.1663
   42MOL   H20442106   3.305   7.110   3.072 -1.4872  0.3945 -0.1841
   42MOL   H20542107   3.322   7.043   2.834  0.5244  0.7770 -1.0964
   42MOL   N20642108   3.808   0.438   2.762 -0.8254 -0.5272 -0.1421
   42MOL   C20742109   3.842   0.507   2.646  0.5263 -0.0297  0.0137
   42MOL   C20842110   3.771   0.616   2.590  0.0805  0.3688  0.4616
   42MOL   C20942111   3.816   0.685   2.477  0.1924  0.3336  0.3260
   42MOL   C21042112   3.927   0.634   2.401  0.0223 -0.2702  0.3161
   42MOL   N21142113   3.979   0.683   2.279 -0.1291 -0.0405 -0.6738
   42MOL   C21242114   3.906   0.724   2.166 -0.6136  0.0173 -0.0064
   42MOL   C21342115   3.978   0.796   2.066 -0.6646  0.8226 -0.1735
   42MOL   C21442116   3.908   0.845   1.957 -0.1848  0.4100  0.3080
   42MOL   C21542117   3.767   0.839   1.948 -0.0783  0.2677  0.2766
   42MOL   N21642118   3.687   0.897   1.848 -0.2145  0.3423 -0.5577
   42MOL   C21742119   3.712   0.917   1.716 -0.5581  0.2044  0.4492
   42MOL   C21842120   3.640   1.010   1.638  0.2870 -0.4556 -0.0118
   42MOL   C21942121   3.668   1.038   1.503  0.0573  0.1489  0.1675
   42MOL   C22042122   3.770   0.965   1.439  0.2233 -0.9621  0.5628
   42MOL   N22142123   3.802   0.994   1.309 -0.0590 -0.5074  0.8643
   42MOL   C22242124   3.837   1.118   1.250 -0.0327  0.7236  0.1092
   42MOL   C22342125   3.865   1.228   1.331  0.0326  0.6976  0.3889
   42MOL   C22442126   3.895   1.347   1.272  0.5927  0.6248 -0.0968
   42MOL   C22542127   3.905   1.364   1.131  0.1021  0.1523  0.5077
   42MOL   C22642128   3.929   1.494   1.056 -0.3317  0.5878  0.3932
   42MOL   C22742129   3.872   1.253   1.050 -0.3684 -0.1212 -0.4875
   42MOL   C22842130   3.842   1.128   1.108 -0.6618  0.3043 -0.4846
   42MOL   C22942131   3.845   0.870   1.515  0.2622  0.2863  0.4110
   42MOL   C23042132   3.805   0.840   1.647 -0.5589 -0.9410  0.5546
   42MOL   C23142133   3.700   0.776   2.049 -0.2386  0.0385 -0.6926
   42MOL   C23242134   3.766   0.713   2.156  0.7251  0.2826  0.5187
   42MOL   C23342135   3.989   0.523   2.454 -0.1998 -1.1294  0.8225
   42MOL   C23442136   3.953   0.460   2.577  0.4314 -0.3303  0.3770
   42MOL   H23542137   3.883   0.374   2.785 -0.9676 -1.8723 -3.1429
   42MOL   H23642138   3.682   0.663   2.629 -0.1020  0.6116 -0.2373
   42MOL   H23742139   3.767   0.777   2.446  2.1007  1.7157  1.2688
   42MOL   H23842140   4.077   0.664   2.267 -0.4604 -1.8993 -0.5641
   42MOL   H23942141   4.083   0.819   2.075 -0.6150  1.4673 -2.1058
   42MOL   H24042142   3.960   0.899   1.880 -1.5837  1.9763  0.4169
   42MOL   H24142143   3.615   0.954   1.891 -0.2241 -0.3429  0.3463
   42MOL   H24242144   3.561   1.069   1.682  1.2464 -0.7925  2.2426
   42MOL   H24342145   3.618   1.124   1.461  0.2005  0.5027  0.7200
   42MOL   H24442146   3.850   0.918   1.262  0.9029 -0.4268  1.7015
   42MOL   H24542147   3.865   1.220   1.439 -0.5129  0.2009  0.3551
   42MOL   H24642148   3.908   1.431   1.337  0.7083  0.2085  0.4224
   42MOL   H24742149   3.881   1.570   1.117  1.7762  2.6801 -0.4732
   42MOL   H24842150   3.871   1.480   0.965 -0.3708 -1.2078  0.6740
   42MOL   H24942151   3.881   1.273   0.944 -1.1673  2.3671 -0.1179
   42MOL   H25042152   3.803   1.050   1.045  1.3434 -0.4863 -0.8093
   42MOL   H25142153   3.918   0.805   1.470 -0.0632  1.3870 -1.7572
   42MOL   H25242154   3.849   0.753   1.694 -0.3990 -0.7874  0.6885
   42MOL   H25342155   3.593   0.766   2.055 -0.2134 -0.4717 -0.9971
   42MOL   H25442156   3.711   0.667   2.237  1.9319 -1.1531  0.5522
   42MOL   H25542157   4.068   0.474   2.400  1.4080  0.9063  1.2449
   42MOL   H25642158   4.012   0.382   2.623  0.5166 -0.7774 -0.4804
   42MOL   N25742159   4.068   1.530   1.032  0.4819  0.0608 -0.5891
   42MOL   C25842160   4.086   1.659   0.974  0.2790  0.0400  0.2718
   42MOL   C25942161   4.219   1.690   0.967  0.3324 -0.6189  0.3534
   42MOL   C26042162   4.256   1.820   0.932 -0.0244  0.0522  0.4961
   42MOL   C26142163   4.156   1.919   0.909  0.9591  0.0202 -0.1422
   42MOL   N26242164   4.198   2.050   0.870  0.8104 -0.3255 -0.3385
   42MOL   C26342165   4.327   2.108   0.877  0.7375  0.2615  0.1917
   42MOL   C26442166   4.384   2.137   1.006  0.2910 -0.9755  0.1933
   42MOL   C26542167   4.511   2.203   1.009 -0.4436 -0.0844  0.2696
   42MOL   C26642168   4.578   2.242   0.888  0.1470  0.2091 -0.1832
   42MOL   N26742169   4.708   2.297   0.890 -0.1831  0.0958 -0.2331
   42MOL   C26842170   4.780   2.378   0.802 -0.0422  1.3561  0.0110
   42MOL   C26942171   4.921   2.371   0.808 -0.5584  0.5872  0.4115
   42MOL   C27042172   5.002   2.439   0.713 -0.5198  0.5527 -0.1310
   42MOL   C27142173   4.946   2.501   0.608  0.2154  0.0534  0.1497
   42MOL   N27242174   5.031   2.554   0.511 -0.1905 -0.0192  0.8508
   42MOL   C27342175   4.993   2.607   0.389 -0.1795 -0.1084 -0.1599
   42MOL   C27442176   4.987   2.751   0.369 -0.4685  0.2475  0.3491
   42MOL   C27542177   4.938   2.804   0.248  0.1482  0.0575  0.5375
   42MOL   C27642178   4.870   2.719   0.157 -0.5965 -0.0304  0.0443
   42MOL   C27742179   4.784   2.778   0.048  0.5873 -0.2963  0.7393
   42MOL   C27842180   4.882   2.576   0.175  0.1918 -0.0269  0.3393
   42MOL   C27942181   4.943   2.521   0.289 -0.5958  0.7958  0.3638
   42MOL   C28042182   4.807   2.504   0.595  0.1254 -0.3059  0.0319
   42MOL   C28142183   4.722   2.442   0.692 -0.4056  0.6875 -0.0994
   42MOL   C28242184   4.515   2.207   0.767 -0.1457 -0.1527  0.5674
   42MOL   C28342185   4.398   2.133   0.765 -0.2245  0.1089 -0.6711
   42MOL   C28442186   4.021   1.887   0.922 -0.6656 -0.8787  1.0773
   42MOL   C28542187   3.985   1.755   0.950  0.3790 -0.3639 -0.1159
   42MOL   H28642188   4.136   1.458   1.052 -1.1420 -0.8779  1.6622
   42MOL   H28742189   4.287   1.607   0.976 -0.9109 -1.5738  1.2042
   42MOL   H28842190   4.359   1.836   0.902 -0.7222  2.0144 -1.0059
   42MOL   H28942191   4.139   2.103   0.807  0.6522  0.7986  0.7299
   42MOL   H29042192   4.338   2.108   1.099 -0.3219  0.7747  0.4602
   42MOL   H29142193   4.561   2.232   1.100 -1.4948 -0.2523  0.9127
   42MOL   H29242194   4.757   2.279   0.976 -2.6691 -2.5442  0.7185
   42MOL   H29342195   4.976   2.308   0.876 -1.1056  1.1525  1.4063
   42MOL   H29442196   5.109   2.425   0.711 -0.7158 -0.8568 -2.2132
   42MOL   H29542197   5.107   2.604   0.555  2.5671 -2.3377 -1.0181
   42MOL   H29642198   5.030   2.827   0.434  0.4181 -0.2276  0.3277
   42MOL   H29742199   4.937   2.911   0.233  2.6401  0.1941  1.1779
   42MOL   H29842200   4.841   2.758   7.939 -0.1842  0.0573  0.1705
   42MOL   H29942201   4.768   2.885   0.059  0.2651 -0.3262  0.5492
   42MOL   H30042202   4.824   2.508   0.113 -0.1139 -0.8028  1.4686
   42MOL   H30142203   4.934   2.415   0.302  1.7921  0.4789 -0.1995
   42MOL   H30242204   4.769   2.551   0.505  2.5458 -0.1950 -0.9799
   42MOL   H30342205   4.616   2.441   0.671 -0.6832  0.1166  1.3054
   42MOL   H30442206   4.555   2.239   0.672 -0.5498  2.8414  1.3484
   42MOL   H30542207   4.348   2.116   0.671 -2.7086 -0.1325  0.6447
   42MOL   H30642208   3.948   1.967   0.916  1.1675  0.8474  1.3261
   42MOL   H30742209   3.881   1.725   0.957  0.8341 -1.8922  0.4761
   42MOL   N30842210   4.656   2.709   0.029 -0.4616 -0.0355 -0.0405
   42MOL   C30942211   4.574   2.683   0.138  0.7399 -0.7200  0.1782
   42MOL   C31042212   4.479   2.580   0.131  0.6844 -0.1659  0.5593
   42MOL   C31142213   4.379   2.561   0.230  0.1425 -0.2874 -0.8738
   42MOL   C31242214   4.375   2.648   0.338  0.5682  0.6411 -0.0059
   42MOL   N31342215   4.279   2.639   0.434 -0.1137  0.2958  0.0328
   42MOL   C31442216   4.144   2.685   0.435 -0.4626 -0.0093  0.0929
   42MOL   C31542217   4.072   2.676   0.553 -0.1560  1.1648 -0.0947
   42MOL   C31642218   3.942   2.722   0.562 -0.2981 -0.2237  0.1617
   42MOL   C31742219   3.879   2.777   0.450 -0.4486 -0.0413 -0.0954
   42MOL   N31842220   3.745   2.806   0.460 -0.9114  0.0781  0.1632
   42MOL   C31942221   3.635   2.713   0.474 -0.1597  0.1973  0.0424
   42MOL   C32042222   3.646   2.579   0.527  0.9726 -0.0639  0.1878
   42MOL   C32142223   3.532   2.507   0.547 -0.0219  0.2554 -0.6116
   42MOL   C32242224   3.408   2.548   0.498  0.1889  0.1157  0.3610
   42MOL   N32342225   3.291   2.472   0.513 -0.3760  0.2498 -0.3455
   42MOL   C32442226   3.273   2.354   0.584 -0.4344  0.2832  0.1258
   42MOL   C32542227   3.353   2.239   0.554  0.0410 -0.6619  0.8740
   42MOL   C32642228   3.343   2.121   0.631 -0.3976 -0.3978 -0.0552
   42MOL   C32742229   3.259   2.122   0.742  0.7221 -0.3262 -0.7076
   42MOL   C32842230   3.243   2.001   0.835 -0.4156  0.2221  0.0386
   42MOL   C32942231   3.182   2.228   0.773 -0.3697 -0.3251 -0.2090
   42MOL   C33042232   3.181   2.345   0.696 -0.2186  0.8319  0.0062
   42MOL   C33142233   3.391   2.683   0.447 -0.0140 -0.6180  0.0501
   42MOL   C33242234   3.507   2.765   0.434  0.2219  0.4926  0.6196
   42MOL   C33342235   3.952   2.793   0.331  0.1439  0.1030  0.1037
   42MOL   C33442236   4.086   2.754   0.326  0.0590  0.5167  0.2288
   42MOL   C33542237   4.471   2.745   0.350 -0.1041  0.0859 -0.4653
   42MOL   C33642238   4.566   2.768   0.249  0.2076 -0.1514  0.2308
   42MOL   H33742239   4.645   2.632   7.947 -1.0471  0.8927 -1.0717
   42MOL   H33842240   4.471   2.518   0.044 -0.2077  1.3556 -0.4776
   42MOL   H33942241   4.300   2.489   0.217 -0.1453 -0.2037  0.3449
   42MOL   H34042242   4.279   2.552   0.486 -3.6827 -0.0171 -0.4232
   42MOL   H34142243   4.098   2.618   0.640 -1.9246 -1.2668 -1.1590
   42MOL   H34242244   3.889   2.698   0.653 -0.7445 -1.0985 -0.3213
   42MOL   H34342245   3.723   2.884   0.400  2.4692 -0.3399 -1.8045
   42MOL   H34442246   3.739   2.540   0.567  0.7014 -0.2507  0.6438
   42MOL   H34542247   3.543   2.410   0.592  0.1787 -0.3585 -1.9498
   42MOL   H34642248   3.204   2.523   0.517 -1.6611 -1.9750  0.8395
   42MOL   H34742249   3.423   2.251   0.472  1.1329  1.4318  2.0687
   42MOL   H34842250   3.408   2.036   0.615  0.4057  0.4251 -1.2905
   42MOL   H34942251   3.308   1.918   0.808  2.4427  2.0023  1.3130
   42MOL   H35042252   3.140   1.969   0.814  0.2867 -2.9567  1.1448
   42MOL   H35142253   3.114   2.234   0.856 -0.4958  0.0846 -0.3401
   42MOL   H35242254   3.124   2.430   0.731 -4.2824 -1.1375 -1.4476
   42MOL   H35342255   3.299   2.724   0.409  2.2092  4.6734 -0.1182
   42MOL   H35442256   3.500   2.867   0.399 -3.6001  0.0869 -0.0375
   42MOL   H35542257   3.901   2.839   0.247  1.4213 -1.5732 -1.6470
   42MOL   H35642258   4.149   2.764   0.239  0.0680  2.5112  0.4328
   42MOL   H35742259   4.459   2.814   0.432 -2.4268 -0.8996  0.0747
   42MOL   H35842260   4.624   2.859   0.261 -1.4575  0.7573  1.5966
   42MOL   N35942261   3.261   2.025   0.980  0.4365 -0.2802  0.4419
   42MOL   C36042262   3.217   1.932   1.078 -0.5539  0.0389  0.3838
   42MOL   C36142263   3.202   1.971   1.213 -1.0642 -0.0225  0.5056
   42MOL   C36242264   3.155   1.881   1.311 -0.3203 -0.4083  0.1933
   42MOL   C36342265   3.125   1.746   1.272 -0.6253 -0.3815  0.7937
   42MOL   N36442266   3.080   1.658   1.369 -0.1265  0.5202  0.1787
   42MOL   C36542267   3.048   1.525   1.348  0.0005 -0.2630  0.7262
   42MOL   C36642268   3.152   1.427   1.323 -0.0561  0.5719 -0.1932
   42MOL   C36742269   3.110   1.296   1.300  0.4203 -0.0224  0.2692
   42MOL   C36842270   2.977   1.260   1.288 -0.2976 -0.6977  0.6813
   42MOL   N36942271   2.953   1.123   1.263 -0.0439  0.0373  0.2021
   42MOL   C37042272   2.838   1.058   1.223 -0.4383  0.1462 -0.0317
   42MOL   C37142273   2.736   1.112   1.146  0.6052 -0.1391  0.0953
   42MOL   C37242274   2.623   1.035   1.107  0.1049  0.2383 -0.2357
   42MOL   C37342275   2.603   0.903   1.152 -0.3510 -0.2541 -0.0455
   42MOL   N37442276   2.494   0.820   1.129  0.2634 -0.4008 -0.3384
   42MOL   C37542277   2.381   0.852   1.053 -0.0503  0.5979  0.1429
   42MOL   C37642278   2.333   0.753   0.961 -0.1150 -0.2369  0.1376
   42MOL   C37742279   2.221   0.778   0.876 -0.1683  0.6299  0.5956
   42MOL   C37842280   2.146   0.896   0.895  0.0123  0.1721 -0.3502
   42MOL   C37942281   2.014   0.912   0.827  0.4032 -0.3338  0.0192
   42MOL   C38042282   2.197   0.993   0.984  0.6657 -0.4499  0.1019
   42MOL   C38142283   2.311   0.974   1.058  0.7243  0.1120 -0.1917
   42MOL   C38242284   2.712   0.845   1.218  0.1255 -0.4573  0.1464
   42MOL   C38342285   2.823   0.922   1.260  0.9520  0.1437  0.4827
   42MOL   C38442286   2.874   1.356   1.308 -0.2404  0.3902  0.3867
   42MOL   C38542287   2.910   1.491   1.333  0.1164  0.1123 -0.2216
   42MOL   C38642288   3.152   1.705   1.142 -0.1935 -0.1991 -0.3616
   42MOL   C38742289   3.192   1.799   1.038 -0.2848  0.4009  0.0150
   42MOL   H38842290   3.292   2.118   1.007  1.4797  0.0637 -1.7794
   42MOL   H38942291   3.207   2.076   1.237 -1.0427 -0.5119  2.7710
   42MOL   H39042292   3.156   1.911   1.414  0.6743 -0.5522  0.2229
   42MOL   H39142293   3.015   1.705   1.431  0.0028  0.1191  0.6211
   42MOL   H39242294   3.251   1.467   1.341 -0.1820  0.7415  0.1335
   42MOL   H39342295   3.188   1.224   1.280  1.8228  1.3704  0.6294
   42MOL   H39442296   3.037   1.073   1.238 -1.2684 -1.4813 -0.9693
   42MOL   H39542297   2.748   1.209   1.101  0.3190  0.3820  1.1233
   42MOL   H39642298   2.556   1.075   1.032  1.4630  0.8507 -1.1357
   42MOL   H39742299   2.519   0.725   1.152 -0.7482 -0.4345  0.6617
   42MOL   H39842300   2.391   0.662   0.956  0.0484 -0.1788  0.8477
   42MOL   H39942301   2.183   0.700   0.812  2.9154 -1.8133  1.5905
   42MOL   H40042302   1.980   1.014   0.807 -0.1685 -0.8087 -1.4209
   42MOL   H40142303   1.947   0.878   0.906  0.1924 -0.8953 -0.4025
   42MOL   H40242304   2.142   1.084   1.001  1.3766  0.0351 -0.1839
   42MOL   H40342305   2.343   1.049   1.129 -0.8627 -0.2375  0.9422
   42MOL   H40442306   2.711   0.740   1.243 -1.1167 -0.2066  1.2046
   42MOL   H40542307   2.905   0.873   1.312  0.0448 -0.6404  1.2011
   42MOL   H40642308   2.770   1.329   1.316  0.0197 -1.0110 -0.7554
   42MOL   H40742309   2.825   1.557   1.334 -0.2567 -0.3743  1.6186
   42MOL   H40842310   3.138   1.600   1.120  1.9727 -0.7095  0.5105
   42MOL   H40942311   3.204   1.755   0.940 -1.6786  1.2236 -0.5436
   42MOL   N41042312   1.999   0.836   0.706 -0.5121  0.8143 -0.5256
   42MOL   C41142313   2.039   0.877   0.580 -0.6150  0.3145  0.1242
   42MOL   C41242314   1.974   0.820   0.471 -0.1283  0.6096  0.1211
   42MOL   C41342315   2.014   0.865   0.343 -0.2989  0.7001 -0.2357
   42MOL   C41442316   2.103   0.967   0.317 -0.6784  0.4557  0.2546
   42MOL   N41542317   2.130   1.019   0.194  0.2156  0.1579 -0.1200
   42MOL   C41642318   2.079   0.979   0.072  0.5141  0.1262  0.5018
   42MOL   C41742319   2.014   1.071   7.965 -0.6633  0.5089  0.2569
   42MOL   C41842320   1.980   1.022   7.838  0.1221 -0.0809  0.5215
   42MOL   C41942321   2.021   0.894   7.790 -1.1752  0.3547  0.9302
   42MOL   N42042322   1.999   0.855   7.660  0.0088 -0.0836  0.3797
   42MOL   C42142323   1.901   0.886   7.571 -0.3056 -0.0938 -0.2729
   42MOL   C42242324   1.929   0.850   7.442  0.2706  0.4724 -0.1001
   42MOL   C42342325   1.833   0.871   7.341 -0.1845  0.1950  0.4589
   42MOL   C42442326   1.703   0.922   7.370  1.0544  0.4618 -0.1469
   42MOL   N42542327   1.611   0.939   7.264 -0.3419 -0.3042 -0.6810
   42MOL   C42642328   1.636   1.010   7.148  0.6381  0.8837  0.0825
   42MOL   C42742329   1.724   1.121   7.146 -0.0822  0.1345 -0.4106
   42MOL   C42842330   1.736   1.195   7.032  0.6185 -0.0286 -0.0843
   42MOL   C42942331   1.652   1.178   6.924 -0.5150 -0.4271  0.5374
   42MOL   C43042332   1.672   1.276   6.803 -0.0727  0.1756 -0.2917
   42MOL   C43142333   1.553   1.076   6.935 -0.2420  0.1289 -0.0231
   42MOL   C43242334   1.554   0.983   7.039  0.5277 -0.4140  0.2126
   42MOL   C43342335   1.672   0.961   7.501  0.0581  0.1999  0.0390
   42MOL   C43442336   1.774   0.947   7.597 -0.3855 -0.0663 -0.4771
   42MOL   C43542337   2.074   0.802   7.883  0.7151  0.3117 -0.9561
   42MOL   C43642338   2.105   0.844   0.027  0.2376  0.6063 -0.4025
   42MOL   C43742339   2.166   1.018   0.427  0.1467 -0.2446  0.0389
   42MOL   C43842340   2.133   0.977   0.558 -0.5615 -0.3555  0.2239
   42MOL   H43942341   1.920   0.774   0.706 -0.4638  0.7565 -1.0526
   42MOL   H44042342   1.900   0.746   0.498  2.0001 -1.9830 -0.9168
   42MOL   H44142343   1.953   0.820   0.266 -2.7049  1.6974  1.0360
   42MOL   H44242344   2.172   1.111   0.200  1.5196 -0.4415  0.2704
   42MOL   H44342345   2.009   1.177   0.003 -0.7962  0.6178 -0.3321
   42MOL   H44442346   1.938   1.081   7.758  0.9163 -1.2165 -0.7617
   42MOL   H44542347   2.017   0.756   7.647 -0.0844  0.2080 -2.1894
   42MOL   H44642348   2.020   0.799   7.414 -0.1528 -0.6701  0.5468
   42MOL   H44742349   1.859   0.847   7.240  0.7218  1.1318  0.4636
   42MOL   H44842350   1.554   0.857   7.247 -1.0955 -0.4239  2.1319
   42MOL   H44942351   1.776   1.169   7.227 -2.8954  2.6955 -0.0651
   42MOL   H45042352   1.811   1.273   7.024  0.5970 -0.0537 -0.5602
   42MOL   H45142353   1.770   1.250   6.762 -0.0317  1.0805 -0.7778
   42MOL   H45242354   1.669   1.382   6.831 -0.7688  0.4788 -1.5026
   42MOL   H45342355   1.485   1.058   6.853 -0.7308  0.5913  0.2738
   42MOL   H45442356   1.487   0.899   7.039 -3.1607  2.3605 -1.5691
   42MOL   H45542357   1.579   1.001   7.537  0.8507  1.5889  0.6006
   42MOL   H45642358   1.747   0.986   7.695  1.0824  0.4490 -0.2675
   42MOL   H45742359   2.099   0.698   7.863 -3.1261 -0.9396  0.4222
   42MOL   H45842360   2.154   0.773   0.092 -1.7738 -0.9754 -0.5485
   42MOL   H45942361   2.241   1.093   0.410  0.4587 -0.3222  1.0417
   42MOL   H46042362   2.193   1.006   0.644 -0.9886  1.2779 -0.0313
   42MOL   N46142363   1.561   1.263   6.707  0.0113  0.1953 -0.0966
   42MOL   C46242364   1.446   1.341   6.716 -0.3787 -0.2132  0.0609
   42MOL   C46342365   1.326   1.266   6.704  0.1198  0.1650 -0.4154
   42MOL   C46442366   1.205   1.338   6.739 -0.1701  0.7654  0.2171
   42MOL   C46542367   1.203   1.469   6.775 -0.3339  0.1374  0.1913
   42MOL   N46642368   1.085   1.538   6.789 -0.3841 -0.3748  0.5253
   42MOL   C46742369   0.959   1.504   6.730 -0.2483  0.6960 -0.5768
   42MOL   C46842370   0.956   1.469   6.592  0.8461 -1.0223 -0.7959
   42MOL   C46942371   0.832   1.441   6.525  0.2320  0.4739 -0.5533
   42MOL   C47042372   0.712   1.446   6.599 -0.2034 -0.7211  0.6303
   42MOL   N47142373   0.593   1.424   6.531  0.1010  0.1354  0.1220
   42MOL   C47242374   0.477   1.367   6.585  0.6301  0.2214  0.5786
   42MOL   C47342375   0.383   1.456   6.647 -0.3598  1.3305  0.1159
   42MOL   C47442376   0.246   1.419   6.667  0.0231 -0.3672 -0.4802
   42MOL   C47542377   0.213   1.283   6.648  0.0202 -0.0756  0.1413
   42MOL   N47642378   0.086   1.230   6.670  0.1741  0.5888  0.2997
   42MOL   C47742379   0.072   1.097   6.725 -0.2788  0.3798  0.3055
   42MOL   C47842380   0.164   1.048   6.818  0.0233  1.0974 -0.3107
   42MOL   C47942381   0.137   0.929   6.893  0.1029  0.8104  0.0070
   42MOL   C48042382   0.025   0.847   6.850 -0.8946 -0.5138 -0.1761
   42MOL   C48142383   7.978   0.715   6.924  0.6127 -0.3500 -0.4083
   42MOL   C48242384   7.922   0.893   6.746  0.2780  0.5748 -0.3911
   42MOL   C48342385   7.942   1.021   6.695  0.1587  0.3763  0.2699
   42MOL   C48442386   0.311   1.195   6.597  0.3764 -0.5070 -0.3946
   42MOL   C48542387   0.440   1.233   6.561 -0.9770  0.0821 -0.6663
   42MOL   C48642388   0.718   1.480   6.735  0.2391 -0.2120  0.2968
   42MOL   C48742389   0.839   1.504   6.799  0.7570 -0.2304 -0.1659
   42MOL   C48842390   1.331   1.535   6.798  0.0478 -0.4365  0.7427
   42MOL   C48942391   1.447   1.475   6.766 -0.2508 -0.9828 -0.5225
   42MOL   H49042392   1.546   1.172   6.666 -0.1232  0.3132 -0.3047
   42MOL   H49142393   1.322   1.161   6.677 -1.1388 -0.9355  3.5206
   42MOL   H49242394   1.110   1.286   6.731 -0.7553  1.8601 -0.1641
   42MOL   H49342395   1.087   1.609   6.861  1.4346  1.7570 -1.5352
   42MOL   H49442396   1.047   1.477   6.535  1.1128  0.0607 -0.2351
   42MOL   H49542397   0.826   1.416   6.420  1.1642 -1.9280 -0.0730
   42MOL   H49642398   0.605   1.416   6.431 -0.4419 -1.1231  0.1448
   42MOL   H49742399   0.413   1.558   6.668  0.3064  0.8802  1.3791
   42MOL   H49842400   0.186   1.491   6.719 -0.3674 -0.2337 -1.1097
   42MOL   H49942401   7.981   1.265   6.632  0.2085 -1.4450 -1.7875
   42MOL   H50042402   0.245   1.108   6.859  1.4971 -0.3926 -1.0005
   42MOL   H50142403   0.203   0.919   6.978  1.4994 -0.2061 -1.1721
   42MOL   H50242404   0.012   0.636   6.851 -0.7285 -0.7053 -0.3316
   42MOL   H50342405   7.872   0.706   6.945  0.3376  1.3313 -0.9665
   42MOL   H50442406   7.839   0.830   6.717 -1.1243  2.6044 -0.9092
   42MOL   H50542407   7.863   1.056   6.630  0.3593  0.4545  0.0652
   42MOL   H50642408   0.295   1.090   6.578 -1.0860 -0.4891  0.6651
   42MOL   H50742409   0.505   1.166   6.506  0.9630  1.0471  0.4010
   42MOL   H50842410   0.633   1.491   6.801  0.4283  2.8293  0.1103
   42MOL   H50942411   0.836   1.522   6.906  2.2885 -2.3750  0.2819
   42MOL   H51042412   1.320   1.636   6.836 -1.4679 -0.4275  0.3009
   42MOL   H51142413   1.543   1.523   6.776 -0.9507  0.5805 -1.1139
   42MOL   N51242414   0.060   0.703   7.057  0.1107 -0.2879 -0.1324
   42MOL   C51342415   0.198   0.673   7.079  0.0809  0.0691 -0.1393
   42MOL   C51442416   0.272   0.591   6.986 -0.1349 -0.1042  0.3543
   42MOL   C51542417   0.407   0.575   6.999  0.0670  0.5915 -0.3322
   42MOL   C51642418   0.472   0.630   7.117 -0.0244  0.7954  0.4228
   42MOL   N51742419   0.608   0.601   7.139  0.0832 -0.2998 -0.4613
   42MOL   C51842420   0.702   0.541   7.055  0.2860  0.2010 -0.0045
   42MOL   C51942421   0.714   0.562   6.917  0.3131 -0.1933 -0.4637
   42MOL   C52042422   0.796   0.480   6.836  0.3384  0.7207 -0.4137
   42MOL   C52142423   0.869   0.374   6.898 -0.1371  0.4603  0.7435
   42MOL   N52242424   0.961   0.303   6.814  0.4326  0.1057  0.0277
   42MOL   C52342425   1.001   0.167   6.819 -0.1000  0.3520  0.4413
   42MOL   C52442426   0.934   0.078   6.903  0.2345  0.3278 -0.1999
   42MOL   C52542427   0.983   7.927   6.920 -0.1519  0.2852  0.5086
   42MOL   C52642428   1.091   7.888   6.843 -0.6550 -0.1722  0.0911
   42MOL   N52742429   1.135   7.747   6.835  0.0026 -0.2843 -0.2432
   42MOL   C52842430   1.109   7.646   6.929 -0.1686  0.3157  0.2463
   42MOL   C52942431   1.118   7.507   6.890 -0.1857 -0.7877 -0.4416
   42MOL   C53042432   1.110   7.401   6.983  0.0275 -0.7820  0.1431
   42MOL   C53142433   1.061   7.428   7.112  0.2107  0.6924 -0.6307
   42MOL   C53242434   1.010   7.317   7.200  0.0628 -0.3158 -0.3634
   42MOL   C53342435   1.043   7.564   7.148 -0.3324 -0.4893 -0.2199
   42MOL   C53442436   1.083   7.669   7.062  1.2115 -0.7796 -0.5355
   42MOL   C53542437   1.155   7.977   6.756  0.3123 -0.4038 -0.7900
   42MOL   C53642438   1.114   0.128   6.747 -0.6436 -0.3286 -0.0439
   42MOL   C53742439   0.853   0.353   7.035  0.1525  0.2034  0.4519
   42MOL   C53842440   0.776   0.437   7.120 -0.3029 -0.7691  0.8774
   42MOL   C53942441   0.407   0.713   7.204 -0.6661  0.6102  0.0524
   42MOL   C54042442   0.269   0.731   7.185 -0.5103  0.1952  1.1706
   42MOL   H54142443   0.017   0.757   7.130 -0.1749 -0.6540 -0.0256
   42MOL   H54242444   0.217   0.547   6.904 -2.3461  1.4141  0.9684
   42MOL   H54342445   0.461   0.514   6.928  0.7594 -0.6116  1.2031
   42MOL   H54442446   0.627   0.594   7.238 -0.5133 -0.2718 -0.3420
   42MOL   H54542447   0.648   0.640   6.880  0.5376  1.4667  2.5490
   42MOL   H54642448   0.811   0.492   6.729 -0.8503  1.1484 -0.5362
   42MOL   H54742449   0.986   0.351   6.728  1.8399  1.0186  0.9258
   42MOL   H54842450   0.846   0.112   6.956 -0.3925 -0.3227 -0.8108
   42MOL   H54942451   0.922   7.856   6.976  1.9398  1.2456  4.1718
   42MOL   H55042452   1.197   7.730   6.757 -1.4947 -1.9247 -1.1398
   42MOL   H55142453   1.134   7.485   6.786 -0.3649 -0.2044 -0.5933
   42MOL   H55242454   1.125   7.299   6.951 -0.4057 -0.6200 -0.6003
   42MOL   H55342455   1.073   7.306   7.289  1.9864 -0.0242 -1.6594
   42MOL   H55442456   1.022   7.227   7.140  3.1402  2.3847 -4.0390
   42MOL   H55542457   1.005   7.584   7.247 -0.4048  0.8525 -0.5022
   42MOL   H55642458   1.064   7.770   7.095 -0.4299 -1.3155  0.2356
   42MOL   H55742459   1.241   7.957   6.694  0.1789 -0.9467 -0.8027
   42MOL   H55842460   1.162   0.194   6.676 -1.5558 -0.6441 -0.9770
   42MOL   H55942461   0.914   0.276   7.079 -0.5404  0.4015  1.7868
   42MOL   H56042462   0.768   0.415   7.225  1.0750 -2.3838  0.6480
   42MOL   H56142463   0.456   0.755   7.291 -0.7279 -0.0365  0.4026
   42MOL   H56242464   0.223   0.810   7.242 -0.0809  1.2339  0.0968
   42MOL   N56342465   0.874   7.342   7.236  0.2461  0.3764  0.0011
   42MOL   C56442466   0.810   7.219   7.259  0.0325  0.1433  0.5459
   42MOL   C56542467   0.684   7.201   7.209  0.0188  0.4674 -0.6351
   42MOL   C56642468   0.616   7.077   7.236 -0.7887  0.2840 -0.0333
   42MOL   C56742469   0.676   6.984   7.325  0.5523 -0.3058  0.4528
   42MOL   N56842470   0.588   6.878   7.355  0.2418  0.1192 -0.4646
   42MOL   C56942471   0.617   6.781   7.451  0.3215 -0.0184 -0.4521
   42MOL   C57042472   0.600   6.646   7.427 -0.6295 -0.0271 -0.0049
   42MOL   C57142473   0.628   6.551   7.528  0.3248  0.3696 -0.2441
   42MOL   C57242474   0.678   6.586   7.653  0.1049 -0.9634 -0.1082
   42MOL   N57342475   0.704   6.491   7.754  0.1590 -0.3752  0.8299
   42MOL   C57442476   0.802   6.391   7.761  0.4066 -0.4147 -0.2261
   42MOL   C57542477   0.878   6.353   7.651  0.0674  0.0349  0.3138
   42MOL   C57642478   0.990   6.270   7.671 -0.1562 -0.3275  0.0119
   42MOL   C57742479   1.017   6.224   7.804  0.2690 -0.9900 -0.7159
   42MOL   N57842480   1.124   6.135   7.822  0.4806  0.0329 -0.0501
   42MOL   C57942481   1.256   6.149   7.779 -0.4831  0.8752 -0.0590
   42MOL   C58042482   1.301   6.273   7.737 -0.6172  0.0575  0.2512
   42MOL   C58142483   1.430   6.281   7.684  0.4398  0.0712 -0.2124
   42MOL   C58242484   1.515   6.172   7.670 -0.1575 -0.2929 -0.5520
   42MOL   C58342485   1.649   6.188   7.596  0.1341  0.3114 -0.3856
   42MOL   C58442486   1.475   6.049   7.729  0.9340  0.6000  0.1494
   42MOL   C58542487   1.345   6.038   7.781  0.1912 -0.6166 -0.0178
   42MOL   C58642488   0.946   6.262   7.916  0.3466 -0.2366 -0.2961
   42MOL   C58742489   0.840   6.349   7.890 -0.5203  0.4875 -0.3202
   42MOL   C58842490   0.697   6.723   7.676  0.6482  0.5840 -0.0447
   42MOL   C58942491   0.662   6.819   7.580  0.2133 -0.6025  0.1533
   42MOL   C59042492   0.809   6.995   7.366  0.1167 -0.0268  0.5271
   42MOL   C59142493   0.868   7.114   7.337 -0.2034 -0.0381  0.6380
   42MOL   H59242494   0.819   7.405   7.180 -0.2153 -0.0760 -0.0590
   42MOL   H59342495   0.638   7.279   7.151  0.4121  2.7069  1.9876
   42MOL   H59442496   0.520   7.056   7.192 -0.6462 -0.4545 -0.0135
   42MOL   H59542497   0.530   6.839   7.282  0.5902  0.7579 -1.0781
   42MOL   H59642498   0.575   6.615   7.327  3.6327 -1.1028 -0.8586
   42MOL   H59742499   0.625   6.446   7.502 -1.1199  0.1807  0.6274
   42MOL   H59842500   0.682   6.534   7.843  1.6412  1.4171  0.3410
   42MOL   H59942501   0.857   6.385   7.550 -0.8361  0.0231  0.4923
   42MOL   H60042502   1.051   6.237   7.589  2.0820 -0.8026  1.8149
   42MOL   H60142503   1.097   6.040   7.843  1.9130  0.2288  2.8580
   42MOL   H60242504   1.244   6.364   7.740  0.8743  1.1292 -2.3224
   42MOL   H60342505   1.458   6.379   7.648  0.6035  0.0640 -0.1019
   42MOL   H60442506   1.684   6.292   7.591 -0.1223  0.3971 -0.4145
   42MOL   H60542507   1.622   6.150   7.497  1.9140 -0.5844 -0.5505
   42MOL   H60642508   1.546   5.968   7.731  0.0991 -0.1748 -0.7612
   42MOL   H60742509   1.310   5.949   7.831 -2.0965 -0.2937 -0.9654
   42MOL   H60842510   0.969   6.217   0.029  0.0979 -0.6959 -0.4503
   42MOL   H60942511   0.787   6.381   7.978  1.9179  2.4555  0.5129
   42MOL   H61042512   0.736   6.763   7.768 -0.8832  0.6884  0.5902
   42MOL   H61142513   0.680   6.924   7.600  0.4745 -1.1356  2.8440
   42MOL   H61242514   0.856   6.923   7.430 -0.4667  0.6194  1.6998
   42MOL   H61342515   0.969   7.128   7.372 -0.1754  0.2838  0.4343
   42MOL   N61442516   1.757   6.103   7.641 -0.5206 -0.0180  0.0756
   42MOL   C61542517   1.805   6.117   7.772 -0.5128  0.0855  0.8334
   42MOL   C61642518   1.773   6.237   7.844 -0.3387 -0.4074 -0.0078
   42MOL   C61742519   1.825   6.246   7.970 -0.5136 -0.1569 -0.5555
   42MOL   C61842520   1.898   6.140   0.054  0.4586 -0.1606  0.5176
   42MOL   N61942521   1.951   6.159   0.181  0.5661  0.2225  1.2054
   42MOL   C62042522   2.013   6.065   0.261  0.0839  0.4672  0.5364
   42MOL   C62142523   2.150   6.058   0.275 -0.2498 -0.0473  0.0962
   42MOL   C62242524   2.208   5.942   0.329  0.1462 -0.0828  0.0933
   42MOL   C62342525   2.122   5.857   0.400 -0.4285  0.5655 -0.2260
   42MOL   N62442526   2.188   5.746   0.459 -0.1732  0.6461 -0.9117
   42MOL   C62542527   2.221   5.731   0.592  0.2588 -0.5586  0.1842
   42MOL   C62642528   2.180   5.827   0.688  0.3121  0.4398  0.0322
   42MOL   C62742529   2.234   5.815   0.817 -0.7327 -0.2085  0.9620
   42MOL   C62842530   2.311   5.710   0.858 -0.2317  0.0327 -0.3658
   42MOL   N62942531   2.364   5.697   0.984  0.3231  0.2540 -0.0895
   42MOL   C63042532   2.338   5.771   1.095 -0.7105 -0.5541  0.5456
   42MOL   C63142533   2.443   5.842   1.154 -0.3400 -0.4204 -0.3466
   42MOL   C63242534   2.419   5.937   1.257  0.4190 -0.2132  0.5840
   42MOL   C63342535   2.289   5.957   1.300  0.2112 -0.7559 -0.2293
   42MOL   C63442536   2.266   6.050   1.424  0.1629  0.0551  0.1012
   42MOL   C63542537   2.186   5.878   1.252  0.6818  0.5785  0.4831
   42MOL   C63642538   2.204   5.786   1.147 -0.0949  0.0826  0.2191
   42MOL   C63742539   2.348   5.609   0.762 -0.4051 -0.3383  0.1821
   42MOL   C63842540   2.304   5.621   0.629 -0.0868  1.2490 -0.1592
   42MOL   C63942541   1.982   5.880   0.405 -0.8061 -0.3633 -0.0998
   42MOL   C64042542   1.926   5.977   0.326 -0.1771 -0.2818 -0.1104
   42MOL   C64142543   1.925   6.024   7.963 -0.5965 -0.9047 -0.1042
   42MOL   C64242544   1.880   6.009   7.827  0.1178 -0.3393  0.1611
   42MOL   H64342545   1.771   6.019   7.587 -0.9339  0.8070 -1.3570
   42MOL   H64442546   1.708   6.320   7.822  0.9999  0.3523 -1.2133
   42MOL   H64542547   1.814   6.337   0.045 -1.1221 -2.1710  2.6803
   42MOL   H64642548   1.964   6.254   0.210 -0.5194  0.8507 -0.2514
   42MOL   H64742549   2.211   6.131   0.224 -0.8243  0.7333  0.5219
   42MOL   H64842550   2.315   5.934   0.333  0.0734 -0.2812  2.9280
   42MOL   H64942551   2.259   5.701   0.403 -0.2184  1.0629 -1.3090
   42MOL   H65042552   2.113   5.909   0.667  0.3449  0.7911  1.2292
   42MOL   H65142553   2.213   5.895   0.886 -0.6255  1.2102 -0.6398
   42MOL   H65242554   2.452   5.649   0.982 -0.5272 -1.3391 -0.2009
   42MOL   H65342555   2.547   5.827   1.127 -0.1190  0.4127  0.0124
   42MOL   H65442556   2.502   5.986   1.305  0.2493  0.9590 -0.3096
   42MOL   H65542557   2.314   6.147   1.411  1.7096 -0.8999 -1.6325
   42MOL   H65642558   2.313   6.005   1.511  0.8010 -0.6083 -0.5749
   42MOL   H65742559   2.088   5.883   1.297  0.6395  0.7827  0.3673
   42MOL   H65842560   2.123   5.725   1.110  1.6409 -2.7586  0.9465
   42MOL   H65942561   2.408   5.524   0.789 -0.7873 -0.1439  1.7445
   42MOL   H66042562   2.344   5.551   0.557 -2.0645  1.2885 -1.3348
   42MOL   H66142563   1.912   5.819   0.460 -1.8527  1.8506  1.1024
   42MOL   H66242564   1.819   5.990   0.322 -0.0787 -0.0886 -2.8694
   42MOL   H66342565   1.989   5.950   0.026  0.5852  0.0532 -0.1834
   42MOL   H66442566   1.903   5.911   7.787  0.7313 -0.0561 -0.1860
   42MOL   N66542567   2.125   6.063   1.463 -0.2831  0.3259 -0.1241
   42MOL   C66642568   2.066   6.166   1.391 -0.6844  0.0756 -0.1253
   42MOL   C66742569   2.117   6.294   1.373 -0.3834  0.0566 -0.7081
   42MOL   C66842570   2.043   6.394   1.302 -0.8525  0.1305  0.3784
   42MOL   C66942571   1.926   6.359   1.233 -0.4697  0.6289 -0.1320
   42MOL   N67042572   1.851   6.452   1.166  0.4968 -0.1250  0.1835
   42MOL   C67142573   1.738   6.419   1.088 -0.0800  0.1875 -0.8691
   42MOL   C67242574   1.760   6.318   0.990  0.2595  0.0445  0.2119
   42MOL   C67342575   1.652   6.279   0.910  0.3036 -0.4928  0.2400
   42MOL   C67442576   1.525   6.341   0.917 -0.0434 -0.2043  0.0165
   42MOL   N67542577   1.420   6.306   0.830 -0.3414  0.0067  0.0474
   42MOL   C67642578   1.336   6.385   0.756 -0.2354 -0.0025 -0.1998
   42MOL   C67742579   1.260   6.324   0.655  0.6740  0.2617  0.2054
   42MOL   C67842580   1.193   6.410   0.562 -0.1826  0.1039  0.3272
   42MOL   C67942581   1.196   6.550   0.580 -0.4332  0.1894 -0.8749
   42MOL   N68042582   1.128   6.622   0.486 -0.0093 -0.8453  0.4759
   42MOL   C68142583   1.126   6.761   0.469  0.3749  0.2965  0.2584
   42MOL   C68242584   1.245   6.835   0.460  0.1194 -0.1451 -0.0842
   42MOL   C68342585   1.239   6.973   0.429  0.0118 -0.1185  0.1062
   42MOL   C68442586   1.115   7.038   0.414  0.2790  0.7660 -0.7309
   42MOL   C68542587   1.114   7.194   0.403 -0.3127  0.3229 -0.4470
   42MOL   C68642588   0.992   6.965   0.430  0.2396  0.6371 -0.1623
   42MOL   C68742589   1.001   6.826   0.451  0.3971  0.1939 -0.6312
   42MOL   C68842590   1.263   6.607   0.690 -0.3486 -0.0785 -0.2569
   42MOL   C68942591   1.328   6.523   0.777 -0.1991 -0.4798 -0.1982
   42MOL   C69042592   1.511   6.440   1.015 -0.0862  0.2484  0.9059
   42MOL   C69142593   1.613   6.482   1.098  0.0532  0.2597  0.1019
   42MOL   C69242594   1.877   6.230   1.253 -0.6048 -0.0439 -0.4302
   42MOL   C69342595   1.938   6.138   1.336 -0.5951 -0.1432  0.0047
   42MOL   H69442596   2.071   5.978   1.475  2.6284 -1.3682  1.4215
   42MOL   H69542597   2.214   6.316   1.414 -0.5494 -0.1394 -0.2163
   42MOL   H69642598   2.084   6.492   1.285 -2.5993  0.7765 -0.1529
   42MOL   H69742599   1.859   6.548   1.197  1.1506 -0.1040 -0.0345
   42MOL   H69842600   1.860   6.279   0.975  0.0669 -0.5977  0.5710
   42MOL   H69942601   1.687   6.205   0.839 -0.1546 -0.3813 -0.1044
   42MOL   H70042602   1.445   6.223   0.780  1.2046  0.3495  0.2407
   42MOL   H70142603   1.252   6.217   0.645 -1.2018  0.2505  1.5983
   42MOL   H70242604   1.147   6.366   0.475 -0.7396  0.7536  0.2855
   42MOL   H70342605   1.042   6.576   0.458 -0.6028  0.3876  0.2077
   42MOL   H70442606   1.338   6.782   0.462  0.5807  0.6963  1.3317
   42MOL   H70542607   1.335   7.023   0.419  0.5441 -0.8605  1.3561
   42MOL   H70642608   1.030   7.214   0.337 -1.2830 -2.2743 -0.0760
   42MOL   H70742609   1.205   7.230   0.356  0.0174 -0.6333 -0.5574
   42MOL   H70842610   0.893   7.006   0.412 -0.4611  0.1673  2.4807
   42MOL   H70942611   0.914   6.762   0.442 -1.9796  3.4114 -1.6616
   42MOL   H71042612   1.265   6.715   0.700 -0.0071 -0.1861  0.8387
   42MOL   H71142613   1.395   6.576   0.842 -0.9600 -1.9644  1.8642
   42MOL   H71242614   1.419   6.495   1.027  0.0181  0.4632  0.7070
   42MOL   H71342615   1.599   6.563   1.168 -1.6161 -0.7095  0.9131
   42MOL   H71442616   1.784   6.190   1.215 -2.0030  0.5023  2.2615
   42MOL   H71542617   1.891   6.042   1.351  0.0641 -0.7893 -1.9579
   42MOL   N71642618   1.102   7.266   0.527  0.5297  0.0845  0.4954
   42MOL   C71742619   1.067   7.402   0.533 -0.1142  0.3642  0.0607
   42MOL   C71842620   1.005   7.458   0.643  0.3683 -0.1776 -0.0358
   42MOL   C71942621   0.987   7.596   0.644  0.0499  0.4102 -0.2566
   42MOL   C72042622   1.037   7.683   0.548 -0.5090  0.2657  0.0286
   42MOL   N72142623   1.006   7.814   0.569 -0.2843 -0.1944 -0.5213
   42MOL   C72242624   1.031   7.922   0.489  0.0290  0.0558  0.1621
   42MOL   C72342625   0.936   0.042   0.476  0.2057  0.2525  0.4910
   42MOL   C72442626   0.968   0.161   0.411  0.1402  0.0886 -0.3483
   42MOL   C72542627   1.090   0.182   0.355 -0.4958  0.2638 -0.2568
   42MOL   N72642628   1.119   0.306   0.295  0.1839 -0.6499 -0.4032
   42MOL   C72742629   1.050   0.430   0.318  0.5312  0.1327 -0.1380
   42MOL   C72842630   1.037   0.519   0.215 -0.5162  0.1237  0.8028
   42MOL   C72942631   0.947   0.624   0.223 -0.5489 -0.3203  0.4291
   42MOL   C73042632   0.876   0.648   0.345  0.9005 -0.4080 -0.0173
   42MOL   N73142633   0.782   0.756   0.377  0.5415 -0.1792  0.2734
   42MOL   C73242634   0.694   0.821   0.288  0.4919  0.9419 -0.0683
   42MOL   C73342635   0.637   0.754   0.177 -0.0951 -0.9669  1.2038
   42MOL   C73442636   0.550   0.823   0.086 -0.2476  0.5984  0.0685
   42MOL   C73542637   0.515   0.957   0.112 -0.3002  0.5151  0.0355
   42MOL   C73642638   0.434   1.022   0.005 -0.1650 -0.4326 -0.7052
   42MOL   C73742639   0.570   1.018   0.221  0.2380 -0.3312  0.0756
   42MOL   C73842640   0.649   0.948   0.313  0.0051  0.1514  0.4235
   42MOL   C73942641   0.902   0.566   0.456 -0.1448 -0.5137  0.4230
   42MOL   C74042642   0.987   0.459   0.441 -0.6648  0.3443 -0.0284
   42MOL   C74142643   1.184   0.080   0.360  0.3589 -0.0980 -0.5057
   42MOL   C74242644   1.152   7.940   0.426 -0.6967 -0.0520 -0.2298
   42MOL   C74342645   1.103   7.627   0.435 -0.2444 -0.0916 -0.5929
   42MOL   C74442646   1.116   7.485   0.428  0.1591  0.8300 -0.4586
   42MOL   H74542647   1.138   7.229   0.614  0.2038  0.6624  0.8797
   42MOL   H74642648   0.962   7.384   0.709 -1.0367 -1.1498 -2.0063
   42MOL   H74742649   0.912   7.630   0.714 -1.5766 -0.4265 -1.5691
   42MOL   H74842650   0.920   7.835   0.617 -0.3240  0.2886 -0.8022
   42MOL   H74942651   0.838   0.017   0.515 -0.1216 -0.5451 -0.8339
   42MOL   H75042652   0.885   0.226   0.393 -0.8831 -1.5550 -1.6823
   42MOL   H75142653   1.179   0.307   0.214 -0.3372  0.1495 -0.7881
   42MOL   H75242654   1.087   0.499   0.122 -0.9074 -0.3284  0.6876
   42MOL   H75342655   0.929   0.681   0.133 -1.5351 -1.1741  0.0727
   42MOL   H75442656   0.764   0.782   0.473  1.1511 -0.0504  0.3560
   42MOL   H75542657   0.663   0.653   0.147  1.0983 -0.4404  0.4227
   42MOL   H75642658   0.506   0.781   7.979  1.8607  0.9133 -1.1494
   42MOL   H75742659   0.482   1.002   7.892  1.0160 -0.0991 -0.1920
   42MOL   H75842660   0.446   1.130   0.017 -1.5721 -0.4963  1.7215
   42MOL   H75942661   0.540   1.117   0.252 -0.0642 -0.5108  0.3586
   42MOL   H76042662   0.690   1.006   0.396  1.5254  1.1958 -1.0212
   42MOL   H76142663   0.866   0.581   0.557 -1.9208  0.8162 -0.3731
   42MOL   H76242664   1.000   0.399   0.530 -0.7316  0.7885  0.2837
   42MOL   H76342665   1.287   0.095   0.332  0.9342  0.0788  1.5882
   42MOL   H76442666   1.231   7.868   0.443 -1.1686 -0.1925  1.4883
   42MOL   H76542667   1.138   7.695   0.358 -0.7419  1.4773  0.5310
   42MOL   H76642668   1.164   7.441   0.341  1.6143  0.6959  0.3893
   42MOL   N76742669   0.295   0.983   0.006 -0.2948  1.0702 -0.3896
   42MOL   C76842670   0.205   1.036   7.894  0.3820 -0.1370  0.3798
   42MOL   C76942671   0.086   0.957   7.873 -0.4151  0.3691 -0.1265
   42MOL   C77042672   0.003   1.003   7.763 -0.2867 -0.4664  0.0354
   42MOL   C77142673   0.045   1.108   7.680 -0.0192  0.0181 -0.1723
   42MOL   N77242674   7.958   1.140   7.563 -0.1142 -0.6061 -0.3861
   42MOL   C77342675   0.035   1.152   7.440 -0.3346 -0.1969 -0.3972
   42MOL   C77442676   7.976   1.254   7.353 -0.5404 -0.4312 -0.1204
   42MOL   C77542677   0.062   1.288   7.234 -0.0074  1.1097  0.3928
   42MOL   C77642678   0.182   1.219   7.207 -0.2608  0.3854  0.0251
   42MOL   N77742679   0.263   1.260   7.104 -0.1734 -0.5774  0.4922
   42MOL   C77842680   0.404   1.246   7.087  0.5793 -0.0523 -0.2310
   42MOL   C77942681   0.486   1.257   7.202 -0.1798  0.3511 -0.3222
   42MOL   C78042682   0.621   1.251   7.188 -0.4715  0.2367 -0.1930
   42MOL   C78142683   0.685   1.237   7.066 -0.5417  0.3499 -0.3191
   42MOL   N78242684   0.826   1.242   7.066  0.1206 -0.4937 -0.1704
   42MOL   C78342685   0.916   1.144   7.024 -0.2540 -0.5096  0.5814
   42MOL   C78442686   0.872   1.015   6.985  0.0500  0.1786  0.3524
   42MOL   C78542687   0.970   0.919   6.948 -0.0062 -0.8901 -0.5211
   42MOL   C78642688   1.104   0.950   6.947  0.3269  0.0776 -0.3885
   42MOL   C78742689   1.202   0.836   6.914 -0.2359  0.2728  0.1868
   42MOL   C78842690   1.150   1.071   6.987  0.5132 -0.7651 -0.0731
   42MOL   C78942691   1.054   1.173   7.019  0.0829 -0.3239 -0.4212
   42MOL   C79042692   0.604   1.225   6.949  0.3449  0.3783  0.3000
   42MOL   C79142693   0.463   1.240   6.958 -0.2806 -0.2254 -0.3528
   42MOL   C79242694   0.220   1.110   7.288 -0.9163  0.4898 -0.7333
   42MOL   C79342695   0.143   1.077   7.401 -0.4325  1.2184  0.6509
   42MOL   C79442696   0.166   1.182   7.709  0.1082  0.2406  0.4053
   42MOL   C79542697   0.241   1.146   7.817 -0.3374 -0.4388  0.0102
   42MOL   H79642698   0.249   0.926   0.075  1.0623  0.0688 -0.2764
   42MOL   H79742699   0.066   0.872   7.937  1.0645 -1.3780 -1.9361
   42MOL   H79842700   7.897   0.944   7.742 -0.5121  0.1657 -0.8084
   42MOL   H79942701   7.878   1.201   7.577  0.7261  0.1252  1.4266
   42MOL   H80042702   7.895   1.316   7.387  0.8888  0.3394  1.9800
   42MOL   H80142703   0.025   1.351   7.154 -1.7889 -1.1013 -0.5717
   42MOL   H80242704   0.222   1.318   7.032  0.2384 -0.0252  0.6952
   42MOL   H80342705   0.445   1.266   7.302 -2.2565  0.0747 -1.1208
   42MOL   H80442706   0.673   1.259   7.282 -1.4514  0.7427  0.3185
   42MOL   H80542707   0.857   1.288   7.150 -1.8962  0.4344  0.0990
   42MOL   H80642708   0.768   0.991   6.977  0.3757 -1.4974  0.9964
   42MOL   H80742709   0.933   0.827   6.905  0.2352 -1.1563 -0.1575
   42MOL   H80842710   1.302   0.867   6.943 -0.3631  0.5519  0.3313
   42MOL   H80942711   1.201   0.820   6.806  0.9824  0.1051  0.1986
   42MOL   H81042712   1.250   1.105   7.006 -1.0314  2.4126  2.9079
   42MOL   H81142713   1.100   1.262   7.058  0.4185 -0.3642 -0.7317
   42MOL   H81242714   0.650   1.218   6.852  1.3925 -1.2807  0.9096
   42MOL   H81342715   0.400   1.236   6.871 -1.7136 -1.0554  0.7045
   42MOL   H81442716   0.305   1.052   7.257  0.9252  2.6786  0.0896
   42MOL   H81542717   0.184   1.007   7.473 -0.1751 -0.6487 -1.2323
   42MOL   H81642718   0.189   1.265   7.643  0.9008  0.1140  0.5165
   42MOL   H81742719   0.330   1.204   7.837 -0.6734  0.4362 -1.0325
   42MOL   N81842720   1.165   0.706   6.971 -0.3710  0.6871  0.0533
   42MOL   C81942721   1.194   0.670   7.102  0.8080  0.6018 -0.3186
   42MOL   C82042722   1.159   0.541   7.146  0.1341  0.8223  0.7531
   42MOL   C82142723   1.201   0.491   7.272  0.6855  0.0127  0.0934
   42MOL   C82242724   1.290   0.564   7.348 -0.6534  0.6150  0.3804
   42MOL   N82342725   1.334   0.519   7.477 -0.3358 -0.4861 -0.3383
   42MOL   C82442726   1.324   0.390   7.525  0.2965  0.2243  0.3572
   42MOL   C82542727   1.281   0.374   7.660 -0.2679 -0.3317  0.0769
   42MOL   C82642728   1.278   0.245   7.717  0.0359 -0.4244  0.3291
   42MOL   C82742729   1.311   0.134   7.642  0.0358 -0.5353  0.2679
   42MOL   N82842730   1.307   0.002   7.690 -0.4868 -0.0681 -0.7690
   42MOL   C82942731   1.222   7.941   7.793  0.0221  0.0238  0.3707
   42MOL   C83042732   1.281   7.877   7.909  0.5731  0.6630 -0.1961
   42MOL   C83142733   1.204   7.839   0.036  0.1636  0.0185  0.3977
   42MOL   C83242734   1.066   7.863   0.033  0.6971 -0.1100 -0.0454
   42MOL   N83342735   0.994   7.827   0.144 -0.0835 -0.4147  0.6324
   42MOL   C83442736   0.866   7.773   0.146 -0.5908 -0.2786  0.0386
   42MOL   C83542737   0.809   7.714   0.030 -0.4133  0.8646 -0.5543
   42MOL   C83642738   0.676   7.662   0.035  0.2108  0.3288 -0.2384
   42MOL   C83742739   0.596   7.680   0.149 -0.7699 -0.5973  0.2725
   42MOL   C83842740   0.465   7.616   0.163  0.3269  0.5580  0.1346
   42MOL   C83942741   0.655   7.740   0.265 -0.7105 -0.3011  0.0557
   42MOL   C84042742   0.790   7.786   0.261 -0.2148  0.7029 -0.5368
   42MOL   C84142743   1.009   7.928   7.909  0.6362 -0.2718  0.2051
   42MOL   C84242744   1.085   7.955   7.796  0.0421 -0.4304 -0.0048
   42MOL   C84342745   1.355   0.159   7.510 -0.1031 -0.1960 -0.1650
   42MOL   C84442746   1.355   0.282   7.449 -0.3776  0.1597 -0.0555
   42MOL   C84542747   1.333   0.689   7.303  0.0219 -1.0172 -0.0096
   42MOL   C84642748   1.293   0.743   7.180  0.5765  0.2034 -0.0319
   42MOL   H84742749   1.155   0.621   6.918  0.6866  0.5850 -0.0007
   42MOL   H84842750   1.096   0.483   7.081 -0.8646 -0.1614  2.5661
   42MOL   H84942751   1.163   0.400   7.315  3.9556 -1.3528  0.2569
   42MOL   H85042752   1.361   0.588   7.546 -2.2135 -4.1712  4.3904
   42MOL   H85142753   1.269   0.466   7.716 -5.3098 -1.4177  1.0712
   42MOL   H85242754   1.250   0.234   7.820 -2.8409 -1.7595 -0.5397
   42MOL   H85342755   1.373   7.919   7.651  2.1390  1.7147  0.5693
   42MOL   H85442756   1.388   7.872   7.917  0.6157  2.6119  0.7258
   42MOL   H85542757   1.254   7.802   0.124  2.5043 -1.7329 -1.5855
   42MOL   H85642758   1.045   7.845   0.229  2.4199  3.0871 -1.5039
   42MOL   H85742759   0.867   7.711   7.921  0.2341  2.5788 -0.2313
   42MOL   H85842760   0.629   7.618   7.931  0.8893  2.3146 -1.6757
   42MOL   H85942761   0.471   7.507   0.156 -0.6115  0.6785 -2.9467
   42MOL   H86042762   0.399   7.649   0.083  1.0377  2.3152  0.2625
   42MOL   H86142763   0.595   7.753   0.354 -1.2856  0.0119 -0.3735
   42MOL   H86242764   0.829   7.833   0.350 -2.1178  3.7917 -1.2553
   42MOL   H86342765   0.907   7.961   7.903  0.1814 -1.6575  0.1755
   42MOL   H86442766   1.039   0.013   7.707  0.3735  1.3263  0.6093
   42MOL   H86542767   1.400   0.084   7.446  2.6774  0.1780  1.2919
   42MOL   H86642768   1.388   0.279   7.346 -0.2128 -1.3759  0.0310
   42MOL   H86742769   1.402   0.740   7.369 -1.5517  1.2485 -0.0454
   42MOL   H86842770   1.317   0.847   7.164 -1.1833  0.7651  0.7903
   42MOL   N86942771   0.386   7.647   0.289 -0.2848  0.4594  0.4402
   42MOL   C87042772   0.424   7.568   0.401 -0.5324 -0.3402  0.2962
   42MOL   C87142773   0.388   7.625   0.523  0.0879 -0.5424  0.6641
   42MOL   C87242774   0.401   7.557   0.642  0.4724  0.1440  0.1879
   42MOL   C87342775   0.459   7.429   0.643  0.0670  0.1440 -0.4364
   42MOL   N87442776   0.481   7.383   0.775 -0.0106  0.2863 -0.0506
   42MOL   C87542777   0.578   7.299   0.821  0.5396  0.1227  0.4959
   42MOL   C87642778   0.552   7.238   0.949 -0.2864 -0.4276 -0.2267
   42MOL   C87742779   0.647   7.150   1.003 -0.5455  0.3189 -0.6362
   42MOL   C87842780   0.774   7.142   0.940 -0.4039 -0.0317  0.2085
   42MOL   N87942781   0.876   7.069   1.005  0.2171  0.1008 -0.2022
   42MOL   C88042782   1.014   7.073   0.985 -0.0808  0.9207  0.3495
   42MOL   C88142783   1.099   7.119   1.087 -1.1139  0.8838 -0.2900
   42MOL   C88242784   1.239   7.109   1.078  0.1486 -0.6204  0.0067
   42MOL   C88342785   1.292   7.059   0.960  0.0337  0.7036  0.3825
   42MOL   N88442786   1.427   7.025   0.956 -0.5285 -0.1442  0.2905
   42MOL   C88542787   1.497   6.976   0.842 -0.0203 -0.4241  0.3046
   42MOL   C88642788   1.581   6.865   0.863 -0.0268 -0.2843 -0.7307
   42MOL   C88742789   1.633   6.804   0.750  0.7180  0.5195  0.6343
   42MOL   C88842790   1.627   6.869   0.624  0.3951  0.2327  0.1360
   42MOL   C88942791   1.714   6.820   0.507 -0.0385 -0.2845  0.8827
   42MOL   C89042792   1.559   6.991   0.604  0.0034 -0.9123  0.9654
   42MOL   C89142793   1.486   7.034   0.710  0.3339 -0.1117 -0.4326
   42MOL   C89242794   1.211   7.021   0.852 -0.0176 -0.2091 -0.4380
   42MOL   C89342795   1.071   7.039   0.858  0.0369  0.0488 -0.3635
   42MOL   C89442796   0.804   7.205   0.818 -0.2334  0.4703 -0.1770
   42MOL   C89542797   0.697   7.277   0.753  1.2362  0.6375 -0.1168
   42MOL   C89642798   0.500   7.372   0.525 -0.1643  0.4095  0.3877
   42MOL   C89742799   0.492   7.445   0.405  0.0564  0.5964 -0.3726
   42MOL   H89842800   0.369   7.747   0.295 -2.2743  0.0977  1.2898
   42MOL   H89942801   0.342   7.723   0.528 -1.2258 -1.0078 -1.6190
   42MOL   H90042802   0.359   7.596   0.733 -1.1256  2.0458 -1.3186
   42MOL   H90142803   0.416   7.417   0.845  0.9696 -0.8462  1.4325
   42MOL   H90242804   0.451   7.254   0.986 -0.1959 -0.8685  0.2187
   42MOL   H90342805   0.630   7.101   1.097 -0.4742 -0.1390 -0.8604
   42MOL   H90442806   0.836   7.007   1.074  1.0368 -0.2861 -0.0697
   42MOL   H90542807   1.052   7.163   1.174 -1.9392 -0.1128 -0.2297
   42MOL   H90642808   1.312   7.124   1.156 -1.8835 -0.1525  1.8771
   42MOL   H90742809   1.476   7.031   1.043  2.1750 -4.2763 -0.7877
   42MOL   H90842810   1.592   6.823   0.962  0.0161  2.2090  0.3758
   42MOL   H90942811   1.677   6.706   0.764 -1.6130 -0.4786  1.1801
   42MOL   H91042812   1.769   6.910   0.480  1.3747 -0.8216  1.9100
   42MOL   H91142813   1.648   6.786   0.427  1.4531  2.3477 -1.5801
   42MOL   H91242814   1.568   7.049   0.513 -0.6055 -2.5373 -0.1459
   42MOL   H91342815   1.417   7.117   0.704 -0.2062 -0.3853  1.5051
   42MOL   H91442816   1.251   6.976   0.762 -1.0182 -2.3951  0.1778
   42MOL   H91542817   1.007   7.019   0.773  0.6235  0.5395 -0.9205
   42MOL   H91642818   0.905   7.191   0.783  0.6955 -0.4388  2.7070
   42MOL   H91742819   0.709   7.307   0.650 -1.8255  0.3481 -0.6099
   42MOL   H91842820   0.541   7.272   0.524  0.5591  0.7157 -0.6695
   42MOL   H91942821   0.517   7.383   0.321  0.4513 -0.8165  0.7730
   42MOL   N92042822   1.803   6.712   0.541  0.1861  0.0060 -0.5137
   42MOL   C92142823   1.889   6.677   0.436 -0.1478 -0.0349 -0.2710
   42MOL   C92242824   1.849   6.663   0.303 -0.5652 -0.0902  0.2854
   42MOL   C92342825   1.938   6.626   0.207  0.3113  0.3738  0.1970
   42MOL   C92442826   2.067   6.588   0.249  0.2447  0.0390  0.2342
   42MOL   N92542827   2.162   6.530   0.165  0.3868  0.5764 -0.1226
   42MOL   C92642828   2.136   6.499   0.040 -0.3434  0.0608 -0.3450
   42MOL   C92742829   2.099   6.602   7.930 -0.2760 -0.4441  0.1674
   42MOL   C92842830   2.049   6.553   7.808 -0.0224 -0.6373 -0.1638
   42MOL   C92942831   2.075   6.420   7.770 -0.0268  0.1140  0.1698
   42MOL   N93042832   2.015   6.368   7.655 -0.1099  0.7996 -0.2388
   42MOL   C93142833   2.042   6.407   7.518  0.4195  0.3178  0.2713
   42MOL   C93242834   2.013   6.311   7.418 -0.7542  0.3970 -0.3556
   42MOL   C93342835   2.037   6.342   7.288  0.1262 -0.1868  0.5577
   42MOL   C93442836   2.062   6.474   7.252  0.7472 -0.1806  0.1671
   42MOL   N93542837   2.041   6.516   7.121 -0.2028 -0.0336 -0.3330
   42MOL   C93642838   2.065   6.450   7.003  0.4709 -0.8697  0.2003
   42MOL   C93742839   1.980   6.481   6.898  0.4494 -0.1847 -0.2009
   42MOL   C93842840   2.003   6.435   6.764 -0.4643 -0.3562  0.0557
   42MOL   C93942841   2.118   6.348   6.738 -0.4150 -0.8737  0.0384
   42MOL   C94042842   2.136   6.283   6.605 -0.2229  0.2232 -0.2058
   42MOL   C94142843   2.198   6.310   6.846  0.0723  0.0054  0.0863
   42MOL   C94242844   2.173   6.361   6.978  0.2952  0.0430  0.2396
   42MOL   C94342845   2.081   6.580   7.348  0.0734  0.1210  0.1507
   42MOL   C94442846   2.078   6.540   7.485  0.6210 -0.5104  0.1592
   42MOL   C94542847   2.140   6.328   7.852 -0.8862 -0.0173 -0.2648
   42MOL   C94642848   2.170   6.362   0.000 -0.6934  0.1537 -0.2620
   42MOL   C94742849   2.112   6.607   0.380 -0.2392 -0.1545 -0.0178
   42MOL   C94842850   2.021   6.650   0.478  0.2684  0.5585  0.0154
   42MOL   H94942851   1.852   6.723   0.629 -0.7312 -0.5354  0.0780
   42MOL   H95042852   1.747   6.677   0.269 -0.5763  0.3617  0.5015
   42MOL   H95142853   1.902   6.600   0.108  0.6403  0.0621  0.1592
   42MOL   H95242854   2.252   6.506   0.205  0.3838  0.6136 -0.0938
   42MOL   H95342855   2.086   6.705   7.961  1.6112 -0.1994  0.1983
   42MOL   H95442856   2.000   6.621   7.741  2.6013  1.4169 -0.0393
   42MOL   H95542857   1.977   6.274   7.665 -0.0668  0.7603 -0.4599
   42MOL   H95642858   1.983   6.215   7.456  0.5439  0.4777  0.8997
   42MOL   H95742859   2.029   6.265   7.213 -2.0005 -0.7448  1.3111
   42MOL   H95842860   1.985   6.598   7.107 -0.1845 -0.0655 -0.5876
   42MOL   H95942861   1.894   6.544   6.915  0.8108  0.2131  0.1584
   42MOL   H96042862   1.924   6.449   6.693  0.5029  0.0768 -0.9465
   42MOL   H96142863   2.226   6.320   6.557 -0.9237  2.1717 -0.0572
   42MOL   H96242864   2.050   6.301   6.540 -0.3525 -2.1460 -0.7278
   42MOL   H96342865   2.276   6.237   6.832  1.0118  0.9529  0.3282
   42MOL   H96442866   2.244   6.340   7.057  0.9033  1.3619  0.0451
   42MOL   H96542867   2.100   6.680   7.311 -2.1698  0.8141  0.8174
   42MOL   H96642868   2.109   6.614   7.558  0.3491  0.6961 -0.9249
   42MOL   H96742869   2.150   6.226   7.816  0.1280 -0.4841  1.2888
   42MOL   H96842870   2.203   6.294   0.078  0.6195  0.3979 -0.5843
   42MOL   H96942871   2.212   6.588   0.417  0.4274  2.3907 -0.4164
   42MOL   H97042872   2.049   6.664   0.582  1.2429 -0.5172 -0.0981
   42MOL   N97142873   2.164   6.140   6.606 -0.0660 -0.0117  0.0655
   42MOL   C97242874   2.080   6.056   6.532  0.0652 -0.1031  0.5177
   42MOL   C97342875   2.027   5.945   6.602 -0.4056 -0.0055  0.0021
   42MOL   C97442876   1.936   5.855   6.540 -0.6108 -0.0225 -0.6013
   42MOL   C97542877   1.910   5.877   6.402 -0.3935  0.3510 -0.1496
   42MOL   N97642878   1.842   5.789   6.321 -0.0807 -0.4451 -0.2808
   42MOL   C97742879   1.730   5.707   6.356  0.7336  0.1794  0.8351
   42MOL   C97842880   1.710   5.583   6.292  0.3700 -0.0533 -0.4273
   42MOL   C97942881   1.609   5.496   6.329 -0.4981 -0.6810  0.4318
   42MOL   C98042882   1.521   5.533   6.431 -0.1694  0.3371 -0.3944
   42MOL   N98142883   1.411   5.452   6.465 -0.4758  0.2670  0.2763
   42MOL   C98242884   1.318   5.387   6.381  0.4053 -0.1121 -0.1449
   42MOL   C98342885   1.303   5.419   6.245 -0.6162  0.5630 -0.0499
   42MOL   C98442886   1.204   5.352   6.167 -0.0524 -1.0944 -0.0637
   42MOL   C98542887   1.103   5.274   6.231  0.0376 -0.0980 -0.3932
   42MOL   N98642888   1.005   5.207   6.155  0.6517 -0.3457 -0.0609
   42MOL   C98742889   0.934   5.266   6.047 -0.0039 -0.3115 -0.6592
   42MOL   C98842890   0.946   5.399   5.993 -0.0425 -0.0925  0.7152
   42MOL   C98942891   0.862   5.443   5.894  0.0621 -0.3466  0.0778
   42MOL   C99042892   0.759   5.355   5.836 -0.1405 -0.5009 -0.1434
   42MOL   C99142893   0.681   5.405   5.716 -0.1346 -0.3254  0.2119
   42MOL   C99242894   0.749   5.224   5.889 -0.2255  0.6410 -0.1203
   42MOL   C99342895   0.833   5.186   5.994 -0.1501  0.0152 -0.3350
   42MOL   C99442896   1.119   5.255   6.371  0.1227 -0.2969  0.5421
   42MOL   C99542897   1.232   5.296   6.443  0.1894  0.2918 -0.2057
   42MOL   C99642898   1.543   5.654   6.501  0.0136  0.6406  0.3056
   42MOL   C99742899   1.647   5.740   6.466 -0.5533  0.1249  0.7262
   42MOL   C99842900   1.976   5.977   6.337 -0.4207  0.1474  0.9978
   42MOL   C99942901   2.053   6.077   6.397  0.2247  0.1835 -0.1306
   42MOL     H142902   2.195   6.106   6.696  1.3960 -1.3743 -0.9118
   42MOL     H242903   2.041   5.949   6.709  1.5819 -2.2196 -0.1409
   42MOL     H342904   1.904   5.767   6.593 -1.1344  0.0570 -0.7829
   42MOL     H442905   1.894   5.755   6.241  0.8647  1.5233 -0.5284
   42MOL     H542906   1.775   5.560   6.209 -0.4438  1.3858 -1.4887
   42MOL     H642907   1.603   5.402   6.276  0.5429  0.2945 -1.4417
   42MOL     H742908   1.383   5.466   6.561  0.9732 -1.5526  1.0052
   42MOL     H842909   1.377   5.477   6.191 -0.2130  0.0507 -0.0559
   42MOL     H942910   1.202   5.364   6.060  2.7899 -1.3185 -0.1648
   42MOL    H1042911   0.961   5.130   6.202  0.0596  0.1672  0.2396
   42MOL    H1142912   1.020   5.465   6.037  0.2333 -0.0986  0.2679
   42MOL    H1242913   0.870   5.546   5.862  0.5560  0.3518  2.3450
   42MOL    H1342914   0.621   5.495   5.732 -1.9815 -1.9128  2.6626
   42MOL    H1442915   0.613   5.325   5.688  0.1474 -1.2344  2.0491
   42MOL    H1542916   0.692   5.144   5.844  0.3881  0.4778 -0.6211
   42MOL    H1642917   0.823   5.086   6.033 -0.6033 -0.3462 -1.3486
   42MOL    H1742918   1.038   5.213   6.428 -0.2734  0.5415  0.6122
   42MOL    H1842919   1.242   5.275   6.549  1.1694  1.0204 -0.1470
   42MOL    H1942920   1.479   5.677   6.585  1.2874  1.9515  0.9546
   42MOL    H2042921   1.658   5.832   6.522 -0.1353  2.0783 -2.4342
   42MOL    H2142922   1.963   5.995   6.232 -0.7150  2.3797  1.4062
   42MOL    H2242923   2.095   6.154   6.335  0.2181  0.4005  0.1363
   42MOL    H2342924   0.745   5.434   5.634 -0.0214  0.4019  0.5541
   43MOL     N142925   5.278   3.200   3.955 -0.6589  0.4947  0.2714
   43MOL     C242926   5.386   3.113   3.968  0.6310  0.1562  0.0440
   43MOL     C342927   5.409   3.012   3.867  0.2510  1.1807  0.0584
   43MOL     C442928   5.518   2.925   3.878 -0.7014 -0.4090  0.0180
   43MOL     C542929   5.601   2.923   3.996 -0.0576  0.4189  0.6415
   43MOL     N642930   5.695   2.824   4.016 -0.3259  0.2113 -0.1001
   43MOL     C742931   5.779   2.768   3.917  0.4538 -0.1421  0.3826
   43MOL     C842932   5.858   2.659   3.938  0.6532 -0.2834 -0.9191
   43MOL     C942933   5.954   2.611   3.841  0.0293 -0.4233 -0.7371
   43MOL    C1042934   5.963   2.680   3.718 -0.3562 -0.5629  0.3685
   43MOL    N1142935   6.041   2.632   3.612  0.4960  0.2046 -0.1423
   43MOL    C1242936   5.989   2.527   3.533 -0.4124 -0.6655  0.2495
   43MOL    C1342937   6.014   2.539   3.395 -0.2118 -0.6759  0.4177
   43MOL    C1442938   5.967   2.439   3.303 -1.0709 -0.3690  0.1253
   43MOL    C1542939   5.894   2.327   3.361  0.0280 -0.5903  0.6041
   43MOL    N1642940   5.851   2.229   3.267  0.0364 -0.5638 -0.0462
   43MOL    C1742941   5.724   2.181   3.245  0.6007  0.6863  0.1403
   43MOL    C1842942   5.716   2.065   3.172 -0.6446 -0.7690  0.0786
   43MOL    C1942943   5.592   2.012   3.146 -0.1828  0.6804 -0.3061
   43MOL    C2042944   5.473   2.070   3.187 -0.3998  0.3327 -0.3153
   43MOL    C2142945   5.335   2.008   3.159 -0.1542 -0.0756 -0.0094
   43MOL    C2242946   5.482   2.192   3.261  0.3249  0.3956 -0.0551
   43MOL    C2342947   5.607   2.250   3.283 -0.1018  0.0539 -0.1947
   43MOL    C2442948   5.882   2.313   3.503 -0.2474 -0.3998  0.3774
   43MOL    C2542949   5.928   2.414   3.589 -0.5161  0.3406 -0.2961
   43MOL    C2642950   5.893   2.796   3.693 -0.1173  0.3716 -0.8136
   43MOL    C2742951   5.793   2.833   3.794 -0.4714  0.2173  0.4310
   43MOL    C2842952   5.579   3.020   4.094 -0.4424  0.3004  0.2625
   43MOL    C2942953   5.473   3.111   4.080  0.1970  0.3188  0.4013
   43MOL    H3042954   5.194   3.163   3.912 -0.0891 -2.5157  1.5880
   43MOL    H3142955   5.347   3.008   3.778 -0.1146 -0.1297  0.3673
   43MOL    H3242956   5.535   2.850   3.802  0.1606  0.0223 -0.2213
   43MOL    H3342957   5.729   2.802   4.109  2.1722  0.6889 -0.8707
   43MOL    H3442958   5.839   2.602   4.028  1.5334  0.9465  0.0635
   43MOL    H3542959   6.016   2.525   3.861  2.5949  1.8856  1.5757
   43MOL    H3642960   6.073   2.703   3.548  2.5679 -1.2500 -0.7909
   43MOL    H3742961   6.068   2.624   3.358 -0.4998 -1.3473 -1.6144
   43MOL    H3842962   5.967   2.442   3.195  0.5496  0.3143  0.1331
   43MOL    H3942963   5.923   2.164   3.238  0.7673 -0.2857  1.0984
   43MOL    H4042964   5.801   2.012   3.132 -0.5158 -1.3620  1.1127
   43MOL    H4142965   5.588   1.932   3.073  0.3698  0.3325  0.0429
   43MOL    H4242966   5.283   2.074   3.089  0.4234  0.2954 -0.0918
   43MOL    H4342967   5.272   2.019   3.247 -0.7249  0.7199 -0.5081
   43MOL    H4442968   5.394   2.240   3.302  0.0652 -1.1045  1.1773
   43MOL    H4542969   5.616   2.350   3.324 -1.1120  0.3140 -0.5799
   43MOL    H4642970   5.835   2.228   3.552  1.3097 -1.2393  0.4610
   43MOL    H4742971   5.921   2.405   3.697  0.3461  2.1817 -0.0584
   43MOL    H4842972   5.893   2.853   3.601 -2.8503  0.7186 -0.6429
   43MOL    H4942973   5.745   2.929   3.783 -0.0755  0.4070  0.3493
   43MOL    H5042974   5.643   3.022   4.181  0.7958 -0.4260 -0.6339
   43MOL    H5142975   5.457   3.194   4.148 -0.5989 -0.0377  0.6533
   43MOL    H5242976   5.258   3.259   4.034  3.3545  1.0607  0.9444
   43MOL    N5342977   5.340   1.878   3.113 -0.2814 -0.2891  0.2232
   43MOL    C5442978   5.221   1.821   3.054 -0.1617  0.2092 -0.8153
   43MOL    C5542979   5.089   1.876   3.072  0.0995 -0.6812  0.5753
   43MOL    C5642980   4.973   1.816   3.015 -0.5040 -1.1647  0.2329
   43MOL    C5742981   4.984   1.696   2.938 -0.0930  1.7005 -0.1261
   43MOL    N5842982   4.872   1.649   2.872 -0.5572  0.3658 -0.1354
   43MOL    C5942983   4.833   1.521   2.841  0.1618 -0.5150 -0.3687
   43MOL    C6042984   4.873   1.409   2.920 -1.5306  0.3394 -0.0143
   43MOL    C6142985   4.852   1.281   2.881 -0.4287 -0.2590  0.2971
   43MOL    C6242986   4.785   1.247   2.766  0.4535 -0.5987  0.5194
   43MOL    N6342987   4.758   1.109   2.727 -0.3426 -0.1224 -0.1273
   43MOL    C6442988   4.726   1.008   2.822  0.5865  0.4518 -1.1920
   43MOL    C6542989   4.809   0.898   2.841 -0.0656  0.1533  0.7162
   43MOL    C6642990   4.781   0.805   2.944  0.5428  0.4167  0.0092
   43MOL    C6742991   4.657   0.808   3.016 -0.8325  0.6677  0.2408
   43MOL    N6842992   4.618   0.702   3.095 -0.5501 -0.6637  0.5349
   43MOL    C6942993   4.667   0.577   3.085 -0.1260  0.4289 -0.2028
   43MOL    C7042994   4.644   0.494   2.972  0.2307  0.4790  0.1668
   43MOL    C7142995   4.710   0.372   2.967 -0.4277 -0.2852 -0.4071
   43MOL    C7242996   4.796   0.334   3.072 -0.5943  0.3645 -0.0642
   43MOL    C7342997   4.873   0.202   3.072  0.1299  0.4204  0.3632
   43MOL    C7442998   4.819   0.413   3.185  0.1306 -0.1400  0.0188
   43MOL    C7542999   4.756   0.533   3.194  0.1286  0.0021 -0.8913
   43MOL    C7643000   4.568   0.919   2.991 -0.3215 -0.4022 -0.2791
   43MOL    C7743001   4.608   1.019   2.898 -0.3453 -0.1072  0.5708
   43MOL    C7843002   4.738   1.359   2.684  0.4995  0.3838  1.0307
   43MOL    C7943003   4.776   1.494   2.718  0.5593  0.0652 -0.2219
   43MOL    C8043004   5.117   1.630   2.934 -0.0358  0.1378 -0.1239
   43MOL    C8143005   5.234   1.702   2.985  0.1248  0.0969 -0.0432
   43MOL    H8243006   5.433   1.847   3.092 -0.6738 -1.7509  0.6132
   43MOL    H8343007   5.084   1.968   3.128 -0.2887 -0.5770  0.3705
   43MOL    H8443008   4.878   1.866   3.026 -0.1484 -0.0585 -1.6282
   43MOL    H8543009   4.829   1.729   2.827 -2.3054 -0.2778  0.3573
   43MOL    H8643010   4.917   1.421   3.018 -0.5000  0.8059 -0.5261
   43MOL    H8743011   4.882   1.196   2.942  0.7617 -2.0264 -2.6037
   43MOL    H8843012   4.708   1.098   2.640  0.0663  0.6858 -0.4703
   43MOL    H8943013   4.894   0.884   2.776 -0.7676  2.2334 -0.7175
   43MOL    H9043014   4.841   0.715   2.949 -1.8451 -1.2709 -0.8581
   43MOL    H9143015   4.544   0.712   3.162 -0.6495 -1.2795  0.5161
   43MOL    H9243016   4.578   0.521   2.891  0.9628 -0.8253 -0.8840
   43MOL    H9343017   4.692   0.306   2.884 -1.6049 -0.0672 -0.3379
   43MOL    H9443018   4.959   0.221   3.136  0.1353  1.1377  0.1478
   43MOL    H9543019   4.901   0.178   2.970  0.5021  0.1980  0.5160
   43MOL    H9643020   4.889   0.394   3.264  1.3656  0.6037 -0.8774
   43MOL    H9743021   4.788   0.597   3.275 -2.2759  1.8096 -1.3171
   43MOL    H9843022   4.476   0.929   3.048 -0.5470  0.9385 -0.8567
   43MOL    H9943023   4.529   1.086   2.865  0.0763 -0.3358 -0.9252
   43MOL   H10043024   4.691   1.349   2.588 -1.2632  2.7240  1.5944
   43MOL   H10143025   4.746   1.582   2.664 -0.3879 -0.8446 -1.1943
   43MOL   H10243026   5.138   1.538   2.881  0.1198 -0.7526  1.4356
   43MOL   H10343027   5.335   1.665   2.974  0.6871  1.8874 -1.0559
   43MOL   N10443028   4.796   0.088   3.114  0.0548 -0.3386 -0.4630
   43MOL   C10543029   4.856   7.941   3.120  0.1305 -0.0510  0.0426
   43MOL   C10643030   4.777   7.831   3.110  0.3284 -0.4427 -0.1091
   43MOL   C10743031   4.832   7.701   3.115  0.8241  0.4013  0.4572
   43MOL   C10843032   4.968   7.680   3.124 -0.1467  0.7669 -0.6688
   43MOL   N10943033   5.021   7.551   3.128  0.1389 -0.5026 -0.0835
   43MOL   C11043034   5.136   7.495   3.061  0.2204  0.1010  0.0518
   43MOL   C11143035   5.235   7.574   2.998 -0.1416  0.4725  0.6838
   43MOL   C11243036   5.352   7.517   2.953 -0.3943 -0.6836 -0.1855
   43MOL   C11343037   5.370   7.374   2.950 -0.3507  0.0852 -0.2822
   43MOL   N11443038   5.471   7.319   2.869 -0.0603 -0.4343  0.3667
   43MOL   C11543039   5.549   7.210   2.897  0.1202  0.3338  0.5069
   43MOL   C11643040   5.655   7.177   2.808  0.0956 -0.6159 -0.2952
   43MOL   C11743041   5.729   7.060   2.822  0.4190 -0.4181 -0.3782
   43MOL   C11843042   5.703   6.973   2.936 -0.0474 -0.2074  0.2975
   43MOL   N11943043   5.782   6.861   2.957 -0.3313  0.3031  0.1946
   43MOL   C12043044   5.875   6.840   3.056 -0.7286  0.2027 -0.3187
   43MOL   C12143045   5.923   6.943   3.140  0.3987 -0.1213 -0.0247
   43MOL   C12243046   6.013   6.918   3.244 -0.0337  0.0717 -0.5264
   43MOL   C12343047   6.059   6.787   3.261  0.2274 -0.3848  0.4744
   43MOL   C12443048   6.151   6.758   3.384 -0.3119 -0.2337 -0.4941
   43MOL   C12543049   6.018   6.686   3.178  0.5393  0.5350 -0.6637
   43MOL   C12643050   5.929   6.713   3.075  0.4956  0.4369  0.4334
   43MOL   C12743051   5.607   7.008   3.024 -0.2726 -0.6883 -0.9099
   43MOL   C12843052   5.531   7.123   3.010  0.1786  0.4296 -0.2558
   43MOL   C12943053   5.266   7.299   3.010  0.4556  0.0685  0.7261
   43MOL   C13043054   5.151   7.355   3.071 -0.3111  0.0978  0.0188
   43MOL   C13143055   5.051   7.791   3.133  0.5007 -0.5454  0.4528
   43MOL   C13243056   4.999   7.924   3.135  0.1072  0.0160  0.3932
   43MOL   H13343057   4.698   0.091   3.088 -0.0534  0.2171  0.0134
   43MOL   H13443058   4.670   7.840   3.115  0.3801 -0.0863  0.3804
   43MOL   H13543059   4.762   7.619   3.128  0.5910  0.7098  1.1881
   43MOL   H13643060   4.963   7.485   3.178 -0.1822  0.2743  0.5837
   43MOL   H13743061   5.238   7.682   3.000  1.6636  0.4211  3.0008
   43MOL   H13843062   5.433   7.579   2.918 -0.0025 -0.1995  1.5256
   43MOL   H13943063   5.505   7.371   2.789 -3.8865 -0.3459 -1.3195
   43MOL   H14043064   5.672   7.248   2.728  1.2975 -0.4059  0.1426
   43MOL   H14143065   5.803   7.030   2.750  0.8724  0.0691 -0.1149
   43MOL   H14243066   5.742   6.780   2.912 -1.7991  0.7954  0.6048
   43MOL   H14343067   5.892   7.045   3.120  0.7806  0.2415  1.1803
   43MOL   H14443068   6.050   7.006   3.294 -0.1974  1.1736 -2.3197
   43MOL   H14543069   6.196   6.659   3.392 -1.0268 -0.6484 -1.4852
   43MOL   H14643070   6.091   6.767   3.474  3.6886  1.6515  2.1085
   43MOL   H14743071   6.041   6.581   3.191  1.3562  0.6337 -1.2828
   43MOL   H14843072   5.900   6.631   3.011  1.4136  0.2559  0.2518
   43MOL   H14943073   5.591   6.947   3.112 -1.2663  0.1552 -0.4901
   43MOL   H15043074   5.456   7.148   3.084 -0.7181 -1.2542 -0.5524
   43MOL   H15143075   5.259   7.192   3.000  1.0045  0.0731  0.2417
   43MOL   H15243076   5.082   7.297   3.131 -1.9525  1.7808 -0.2185
   43MOL   H15343077   5.157   7.782   3.153  1.0138 -0.8345 -2.2861
   43MOL   H15443078   5.065   0.022   3.162 -0.6559  1.0436 -0.7336
   43MOL   N15543079   6.252   6.859   3.404 -0.3404  0.4611 -0.6055
   43MOL   C15643080   6.347   6.888   3.303 -0.3573  0.0666  0.0170
   43MOL   C15743081   6.389   6.787   3.214 -0.3420  0.4090  0.5115
   43MOL   C15843082   6.475   6.824   3.108  0.0148 -0.5072 -0.2915
   43MOL   C15943083   6.524   6.954   3.095  0.1849  0.1013  0.0231
   43MOL   N16043084   6.600   6.991   2.982 -0.1258  0.0549  0.0823
   43MOL   C16143085   6.623   6.923   2.865 -0.0065 -0.0963 -0.2083
   43MOL   C16243086   6.512   6.870   2.795 -0.9641  0.6253 -0.1112
   43MOL   C16343087   6.527   6.802   2.668  0.7179  0.4599  0.2490
   43MOL   C16443088   6.661   6.786   2.624  0.2568 -0.0103 -0.4619
   43MOL   N16543089   6.697   6.700   2.515 -0.6527  0.0019 -0.3737
   43MOL   C16643090   6.717   6.737   2.384  0.0289 -0.0910  0.6237
   43MOL   C16743091   6.683   6.870   2.344 -0.0125 -0.4792 -0.0630
   43MOL   C16843092   6.710   6.906   2.206 -0.6808  0.0135  0.9495
   43MOL   C16943093   6.770   6.816   2.116 -0.0041  0.3573  0.0127
   43MOL   N17043094   6.799   6.859   1.989  0.2585 -0.1242  0.1447
   43MOL   C17143095   6.911   6.821   1.923  0.4714  0.1126  0.3446
   43MOL   C17243096   7.024   6.757   1.983  0.5660 -0.1147 -0.7197
   43MOL   C17343097   7.133   6.732   1.903  0.5625  0.0010 -0.6667
   43MOL   C17443098   7.128   6.763   1.767 -0.0978  0.9583  0.3359
   43MOL   C17543099   7.256   6.744   1.685 -0.0294 -0.3428 -0.7006
   43MOL   C17643100   7.019   6.825   1.707  0.7145  0.3302  0.2900
   43MOL   C17743101   6.908   6.851   1.791  0.9556  0.2628  0.4065
   43MOL   C17843102   6.780   6.683   2.152 -0.4779 -0.2470  0.2351
   43MOL   C17943103   6.763   6.637   2.288  0.3111 -0.5273  0.6978
   43MOL   C18043104   6.773   6.849   2.687  0.7796 -0.1814 -0.5494
   43MOL   C18143105   6.753   6.923   2.800  0.7483  0.2825  0.1818
   43MOL   C18243106   6.490   7.051   3.189 -0.0541  0.4385  0.7424
   43MOL   C18343107   6.393   7.018   3.283  0.0828 -0.2631 -0.0548
   43MOL   H18443108   6.248   6.919   3.485  0.4132  0.7075 -0.7515
   43MOL   H18543109   6.356   6.684   3.223  1.6670 -0.1427  2.0094
   43MOL   H18643110   6.489   6.746   3.034  0.2094 -2.8557  2.1315
   43MOL   H18743111   6.662   7.070   2.987  0.1541 -0.0536 -1.4374
   43MOL   H18843112   6.410   6.879   2.830 -0.4605  0.7628  1.3508
   43MOL   H18943113   6.451   6.753   2.609  0.4502 -0.3314  1.2361
   43MOL   H19043114   6.662   6.605   2.523 -1.9153  0.3340 -1.6595
   43MOL   H19143115   6.640   6.942   2.412 -0.2115  1.2079 -1.9416
   43MOL   H19243116   6.700   7.012   2.187  1.2611  0.3966  1.9030
   43MOL   H19343117   6.743   6.933   1.951  1.9295  1.0449 -0.0836
   43MOL   H19443118   7.023   6.727   2.087  4.3181  0.3730 -0.4648
   43MOL   H19543119   7.220   6.684   1.945  1.8100  2.0078 -0.8538
   43MOL   H19643120   7.236   6.782   1.585 -3.0158 -1.8652 -0.7571
   43MOL   H19743121   7.281   6.638   1.685  0.4105 -0.3312  3.2184
   43MOL   H19843122   7.012   6.842   1.601  1.2634 -0.1814  0.1727
   43MOL   H19943123   6.824   6.898   1.743  1.3039  1.4512  0.9335
   43MOL   H20043124   6.806   6.604   2.083 -0.7050  0.8154 -1.0632
   43MOL   H20143125   6.779   6.534   2.316 -1.5681 -0.7945  0.9153
   43MOL   H20243126   6.870   6.847   2.639  1.2173  1.7140  0.2382
   43MOL   H20343127   6.836   6.982   2.837 -1.2503  2.0203  2.0381
   43MOL   H20443128   6.524   7.154   3.182  0.6730  0.1612  0.0710
   43MOL   H20543129   6.357   7.088   3.356 -1.0759  0.3997 -1.2268
   43MOL   N20643130   7.360   6.825   1.736  0.2718  0.2212 -0.2973
   43MOL   C20743131   7.486   6.837   1.667  0.1103  0.1179  0.0728
   43MOL   C20843132   7.502   6.776   1.539 -0.2147  0.7337 -0.5309
   43MOL   C20943133   7.620   6.793   1.462 -0.5913 -0.2565  0.2651
   43MOL   C21043134   7.716   6.880   1.508 -0.8669  0.0239  0.3439
   43MOL   N21143135   7.824   6.904   1.424  0.0279  0.2885 -0.0498
   43MOL   C21243136   7.957   6.870   1.446 -0.0435 -0.2396 -0.1110
   43MOL   C21343137   0.048   6.810   1.340  0.0389 -0.0082 -0.4165
   43MOL   C21443138   0.177   6.761   1.347 -0.1600 -0.5372  0.4531
   43MOL   C21543139   0.249   6.783   1.470  0.5499 -0.1403  1.0991
   43MOL   N21643140   0.380   6.730   1.479  0.8156  0.4708 -0.3488
   43MOL   C21743141   0.452   6.757   1.594 -0.2858 -1.2508 -0.4111
   43MOL   C21843142   0.423   6.683   1.711 -0.2462 -0.1328 -0.1563
   43MOL   C21943143   0.501   6.695   1.825  0.4196  0.1665  0.7411
   43MOL   C22043144   0.593   6.799   1.834  0.1288 -0.1123 -0.1620
   43MOL   N22143145   0.657   6.826   1.954  0.6001 -0.7889 -0.3168
   43MOL   C22243146   0.615   6.799   2.083 -0.3191 -0.5951  0.2029
   43MOL   C22343147   0.710   6.776   2.186  0.1996 -0.6043  0.1101
   43MOL   C22443148   0.671   6.762   2.318 -0.6758 -0.2075  0.0409
   43MOL   C22543149   0.531   6.765   2.352  0.3167  0.6720  0.3481
   43MOL   C22643150   0.483   6.755   2.489 -0.4366 -0.1623 -0.6561
   43MOL   C22743151   0.433   6.776   2.252  0.5669 -0.1903 -0.3033
   43MOL   C22843152   0.477   6.797   2.121 -0.8121  0.8650 -0.4994
   43MOL   C22943153   0.619   6.874   1.721 -0.0457 -0.0800 -0.0561
   43MOL   C23043154   0.555   6.856   1.595 -0.0539 -0.3109  0.7838
   43MOL   C23143155   0.180   6.842   1.577  0.2332  1.0342  0.1200
   43MOL   C23243156   0.044   6.884   1.567 -0.7031  0.3100 -0.1164
   43MOL   C23343157   7.704   6.946   1.630  0.9885  0.4932 -0.0640
   43MOL   C23443158   7.590   6.924   1.712  0.2632 -0.8826  0.3598
   43MOL   H23543159   7.352   6.835   1.836 -0.5203  3.1385 -0.6288
   43MOL   H23643160   7.428   6.711   1.495 -1.1730  2.5070 -1.6113
   43MOL   H23743161   7.634   6.738   1.370  0.2552  0.6827 -0.1736
   43MOL   H23843162   7.789   6.890   1.331 -0.4277 -2.0608  0.4502
   43MOL   H23943163   7.974   6.783   1.251 -0.7606  1.0041 -0.2367
   43MOL   H24043164   0.220   6.714   1.259  0.8673  1.9888 -0.4435
   43MOL   H24143165   0.427   6.754   1.392 -1.2298 -0.5382 -1.7615
   43MOL   H24243166   0.344   6.609   1.706 -0.7259  0.4490 -1.3472
   43MOL   H24343167   0.485   6.632   1.912 -0.9886  0.2184  0.5308
   43MOL   H24443168   0.751   6.860   1.943  0.4955 -0.8773 -1.5794
   43MOL   H24543169   0.813   6.772   2.152 -0.1109 -0.2931 -0.8620
   43MOL   H24643170   0.744   6.757   2.397  0.3582 -0.5474 -0.9149
   43MOL   H24743171   0.410   6.836   2.499  0.2432  0.5083 -1.1003
   43MOL   H24843172   0.569   6.776   2.553 -0.4494  1.1835 -1.0742
   43MOL   H24943173   0.326   6.772   2.269  0.5164  1.6593 -0.1586
   43MOL   H25043174   0.403   6.816   2.044 -0.8016 -2.4485 -1.4011
   43MOL   H25143175   0.687   6.957   1.711 -0.3448  0.0712 -0.9523
   43MOL   H25243176   0.577   6.920   1.512  0.1496  1.6165  2.2835
   43MOL   H25343177   0.235   6.862   1.668  0.5935 -2.4424  0.7360
   43MOL   H25443178   7.981   6.933   1.653  0.2573  1.3258 -0.1894
   43MOL   H25543179   7.778   7.011   1.673  0.6067  0.8122  0.1144
   43MOL   H25643180   7.599   6.970   1.809  0.8739 -1.1216  0.4211
   43MOL   N25743181   0.439   6.622   2.520  0.1070  0.1930 -0.2860
   43MOL   C25843182   0.300   6.591   2.506 -0.2695  1.0289 -0.8548
   43MOL   C25943183   0.269   6.469   2.442  0.6813 -0.6838  0.0259
   43MOL   C26043184   0.130   6.442   2.410 -0.9641 -0.2000 -0.2811
   43MOL   C26143185   0.030   6.520   2.463 -0.9214 -0.6788  0.0839
   43MOL   N26243186   7.874   6.504   2.421 -0.2712  1.0512 -0.2006
   43MOL   C26343187   7.823   6.387   2.355 -0.1213 -0.4623  0.6012
   43MOL   C26443188   7.867   6.363   2.220  0.3382  0.2231 -0.7497
   43MOL   C26543189   7.829   6.242   2.158  0.2172 -0.6204 -0.5390
   43MOL   C26643190   7.761   6.148   2.230  0.4072  0.3701  0.2072
   43MOL   N26743191   7.729   6.024   2.168  0.0315  0.0469 -0.1139
   43MOL   C26843192   7.617   5.937   2.185  0.6559  0.6651  0.0602
   43MOL   C26943193   7.493   5.983   2.227  0.5741  0.3002  0.4223
   43MOL   C27043194   7.385   5.894   2.235 -0.2522 -0.2032  0.5149
   43MOL   C27143195   7.400   5.756   2.195 -0.2784  0.0040  0.0532
   43MOL   N27243196   7.289   5.676   2.198  0.5275 -0.2536 -0.0268
   43MOL   C27343197   7.166   5.719   2.146  0.0757 -0.4550  0.4644
   43MOL   C27443198   7.047   5.669   2.204 -0.3510 -0.4169 -0.0532
   43MOL   C27543199   6.923   5.702   2.148 -0.5140 -0.6419 -0.0417
   43MOL   C27643200   6.904   5.789   2.043 -0.5766 -0.6162 -0.0073
   43MOL   C27743201   6.767   5.822   1.992  0.0339 -0.0424 -0.9598
   43MOL   C27843202   7.020   5.834   1.975  0.2310  0.6645  0.6518
   43MOL   C27943203   7.148   5.797   2.024 -0.5506 -0.6116  1.1820
   43MOL   C28043204   7.535   5.712   2.177 -0.6629 -0.3196 -1.2430
   43MOL   C28143205   7.641   5.802   2.154  0.0186  0.4652  0.1089
   43MOL   C28243206   7.729   6.170   2.362  0.0821 -0.1322 -0.2833
   43MOL   C28343207   7.751   6.288   2.424  0.1503  0.3327 -0.1159
   43MOL   C28443208   0.066   6.632   2.540  0.2917 -0.7003 -0.6986
   43MOL   C28543209   0.202   6.667   2.563 -0.0779  0.1581  1.0175
   43MOL   H28643210   0.501   6.550   2.490  0.5953  0.2588  0.5497
   43MOL   H28743211   0.352   6.409   2.406  0.9253 -0.4319  0.1675
   43MOL   H28843212   0.097   6.352   2.361 -0.6304 -1.4839  1.7897
   43MOL   H28943213   7.819   6.583   2.452 -0.2477 -0.0252  2.7231
   43MOL   H29043214   7.925   6.439   2.171  1.6763  0.6844  1.4589
   43MOL   H29143215   7.853   6.231   2.053 -1.4914 -1.4175 -0.8706
   43MOL   H29243216   7.762   6.018   2.072 -2.2362  1.1161 -0.9975
   43MOL   H29343217   7.473   6.088   2.243  0.3489  0.0727  1.7443
   43MOL   H29443218   7.284   5.927   2.251 -1.7256 -3.0487 -2.1306
   43MOL   H29543219   7.287   5.603   2.267  1.7941 -0.7807 -0.5272
   43MOL   H29643220   7.045   5.604   2.290  0.4899 -2.8865 -1.8375
   43MOL   H29743221   6.833   5.658   2.188 -1.8243  1.0542 -1.0377
   43MOL   H29843222   6.692   5.792   2.067  0.7660  0.0148 -0.1962
   43MOL   H29943223   6.751   5.760   1.904 -1.6750  1.2755 -1.6150
   43MOL   H30043224   6.997   5.884   1.883  0.0856 -1.2854 -0.4016
   43MOL   H30143225   7.234   5.830   1.968 -1.8855 -0.6045 -0.9254
   43MOL   H30243226   7.557   5.608   2.155 -0.3869 -0.3702 -0.7359
   43MOL   H30343227   7.735   5.760   2.124 -0.2767  1.4680 -2.3404
   43MOL   H30443228   7.676   6.098   2.423  0.2209  0.2718  0.3285
   43MOL   H30543229   7.723   6.300   2.528  1.9763 -1.4465  0.5967
   43MOL   H30643230   7.966   6.691   2.579 -1.4973 -3.1008 -0.7570
   43MOL   H30743231   0.231   6.756   2.617 -3.2490  1.2967  0.9289
   43MOL   N30843232   6.752   5.969   1.960 -0.7330  0.3085 -0.1191
   43MOL   C30943233   6.633   6.016   1.903 -0.0381 -0.2928 -0.0378
   43MOL   C31043234   6.522   5.931   1.868  0.4155  0.2479 -0.5707
   43MOL   C31143235   6.410   5.984   1.802 -0.3634 -0.3568  0.1223
   43MOL   C31243236   6.399   6.121   1.762  0.3370  0.4980 -0.0788
   43MOL   N31343237   6.294   6.173   1.690 -0.1140 -0.1755  0.0123
   43MOL   C31443238   6.293   6.207   1.556 -0.0508  0.0186  0.4472
   43MOL   C31543239   6.169   6.222   1.491  0.1880  0.2057 -0.6457
   43MOL   C31643240   6.160   6.277   1.365 -0.8016 -0.7017  0.2845
   43MOL   C31743241   6.274   6.323   1.297  0.3176  0.0554 -0.3302
   43MOL   N31843242   6.268   6.380   1.171 -0.1847  0.1229  0.4046
   43MOL   C31943243   6.362   6.466   1.112 -0.0930 -0.2845  0.5243
   43MOL   C32043244   6.422   6.576   1.174  0.3122 -0.9819 -0.9300
   43MOL   C32143245   6.498   6.672   1.109 -0.3189  0.1395 -0.3983
   43MOL   C32243246   6.508   6.658   0.974 -0.2703 -0.6821  0.0944
   43MOL   N32343247   6.566   6.759   0.890 -0.0509 -0.0930  0.1915
   43MOL   C32443248   6.705   6.776   0.870  0.4504  0.3229  0.2912
   43MOL   C32543249   6.801   6.713   0.947 -0.6308 -0.3593 -0.4581
   43MOL   C32643250   6.941   6.734   0.929 -0.5516 -0.5240 -0.1741
   43MOL   C32743251   6.980   6.826   0.825 -0.0555 -0.0284  0.3604
   43MOL   C32843252   7.132   6.849   0.807  0.6646  0.3747  0.9493
   43MOL   C32943253   6.888   6.900   0.748 -0.2942 -0.4430  0.1093
   43MOL   C33043254   6.749   6.863   0.771 -0.3205 -0.3825 -0.5357
   43MOL   C33143255   6.452   6.546   0.904  0.5358  0.4727  0.5266
   43MOL   C33243256   6.377   6.451   0.974  0.1870  0.4772 -0.0085
   43MOL   C33343257   6.400   6.302   1.359  0.1403 -0.1236 -0.4630
   43MOL   C33443258   6.412   6.239   1.483 -0.0312 -0.3132 -0.4710
   43MOL   C33543259   6.509   6.198   1.799  0.0479  0.4752  0.5801
   43MOL   C33643260   6.626   6.153   1.858  0.3795  0.2062  0.3085
   43MOL   H33743261   6.791   6.030   2.031  0.7973  0.5636 -1.1658
   43MOL   H33843262   6.528   5.828   1.899 -1.3844  0.3150  0.0625
   43MOL   H33943263   6.331   5.913   1.780 -1.1501 -0.2137  2.4093
   43MOL   H34043264   6.200   6.154   1.720 -0.0272  1.8963  1.7071
   43MOL   H34143265   6.077   6.205   1.544  0.4676  1.9444  0.4605
   43MOL   H34243266   6.063   6.293   1.320  0.2215 -0.2913 -1.8357
   43MOL   H34343267   6.177   6.379   1.127  0.7934  0.0937 -1.6873
   43MOL   H34443268   6.395   6.588   1.278  1.4852 -2.4438 -0.4573
   43MOL   H34543269   6.530   6.766   1.152 -0.6315  0.7863 -1.5434
   43MOL   H34643270   6.510   6.781   0.809 -1.0695 -1.2191  0.5653
   43MOL   H34743271   6.768   6.637   1.017 -1.2594 -0.7535 -1.1793
   43MOL   H34843272   7.017   6.693   0.995 -0.1128  0.1336 -0.2638
   43MOL   H34943273   7.164   6.763   0.748  0.4095  1.4114 -0.7208
   43MOL   H35043274   7.169   6.834   0.908  0.2374  2.3706  1.4260
   43MOL   H35143275   6.913   6.977   0.676  2.3721 -0.8449  0.5556
   43MOL   H35243276   6.677   6.916   0.711 -1.4313  1.6654  2.4876
   43MOL   H35343277   6.465   6.542   0.797  2.2679  0.4745  0.7155
   43MOL   H35443278   6.315   6.378   0.924  0.4297  0.1248  0.2072
   43MOL   H35543279   6.486   6.318   1.296  0.1350 -1.8361 -0.9332
   43MOL   H35643280   6.511   6.215   1.519  0.3148  1.7012 -0.0240
   43MOL   H35743281   6.511   6.303   1.771  0.9938 -0.4655 -3.1310
   43MOL   H35843282   6.701   6.226   1.884  0.6663 -0.0075  0.0851
   43MOL   N35943283   7.174   6.970   0.731  0.2494  0.3046  0.4647
   43MOL   C36043284   7.195   7.092   0.806 -0.4791 -0.3958  0.2576
   43MOL   C36143285   7.142   7.124   0.934 -0.0372  0.6050  0.8502
   43MOL   C36243286   7.169   7.248   0.993 -0.2495 -0.3698 -0.4945
   43MOL   C36343287   7.247   7.345   0.932 -0.1079 -0.2428  0.5967
   43MOL   N36443288   7.287   7.460   0.999  0.5583 -0.4763 -0.5885
   43MOL   C36543289   7.260   7.497   1.127  0.1878 -0.1592  0.1467
   43MOL   C36643290   7.319   7.428   1.236  0.6549 -0.5460  0.6303
   43MOL   C36743291   7.280   7.457   1.369 -0.3557 -0.4346  0.5259
   43MOL   C36843292   7.185   7.557   1.388  0.1553  0.3939 -0.2364
   43MOL   N36943293   7.152   7.580   1.520 -0.3725  0.4778 -0.0913
   43MOL   C37043294   7.033   7.630   1.577 -0.0439 -0.5694 -0.1790
   43MOL   C37143295   6.912   7.614   1.504 -0.3367  0.3890 -0.2621
   43MOL   C37243296   6.799   7.672   1.559  0.2838  1.0581  0.0707
   43MOL   C37343297   6.804   7.747   1.683  0.3432  1.2638  0.4025
   43MOL   N37443298   6.683   7.803   1.729 -0.1434 -0.0216  0.6815
   43MOL   C37543299   6.665   7.941   1.771  0.6428  0.4028  0.2050
   43MOL   C37643300   6.543   0.009   1.828  0.0301 -0.4053 -0.5631
   43MOL   C37743301   6.520   0.149   1.859 -0.1012 -0.3732  0.5700
   43MOL   C37843302   6.631   0.235   1.856 -0.0607  0.1423 -0.1414
   43MOL   C37943303   6.619   0.378   1.902 -0.1210  0.0387  0.0718
   43MOL   C38043304   6.752   0.189   1.808 -0.0291  0.4633  0.0728
   43MOL   C38143305   6.770   0.053   1.765  0.0236  0.1512  0.0484
   43MOL   C38243306   6.931   7.769   1.740 -0.0097  0.1591  0.6095
   43MOL   C38343307   7.043   7.703   1.691 -0.2536  0.3093 -0.2908
   43MOL   C38443308   7.137   7.637   1.283 -0.1393  0.1282 -0.1372
   43MOL   C38543309   7.173   7.610   1.151  0.4548  0.2531 -0.4945
   43MOL   C38643310   7.296   7.317   0.802 -0.0458  0.8361 -0.2186
   43MOL   C38743311   7.272   7.192   0.737 -0.3861  0.2509 -0.1250
   43MOL   H38843312   7.234   6.941   0.655 -0.2488  0.2167  0.1041
   43MOL   H38943313   7.081   7.050   0.983  1.4432 -1.1066  0.1935
   43MOL   H39043314   7.136   7.269   1.094 -0.7594  0.6233 -0.8546
   43MOL   H39143315   7.329   7.539   0.951  2.7420 -1.0739  0.3110
   43MOL   H39243316   7.385   7.345   1.216 -2.4612 -3.1506  0.7792
   43MOL   H39343317   7.317   7.397   1.451 -2.5486 -1.1752  0.9879
   43MOL   H39443318   7.201   7.525   1.590  0.1340  0.6052 -0.3403
   43MOL   H39543319   6.914   7.553   1.414 -0.2205  0.9640 -0.6485
   43MOL   H39643320   6.704   7.664   1.507 -0.2530 -0.3563  1.2333
   43MOL   H39743321   6.604   7.741   1.719 -0.4095  0.2964  0.7805
   43MOL   H39843322   6.454   7.930   1.831 -0.2749  0.1038  0.7907
   43MOL   H39943323   6.424   0.185   1.893  0.3239  1.7110 -0.3912
   43MOL   H40043324   6.722   0.414   1.902  0.2939 -1.1513 -0.5237
   43MOL   H40143325   6.577   0.388   2.003 -2.2943  1.1538 -0.9018
   43MOL   H40243326   6.840   0.250   1.799  0.1244  0.5233  1.6875
   43MOL   H40343327   6.872   0.032   1.737  1.0841  1.0527  2.9980
   43MOL   H40443328   6.946   7.827   1.830  0.5307  0.5330  0.2842
   43MOL   H40543329   7.140   7.713   1.739 -0.6443 -0.4292  0.6500
   43MOL   H40643330   7.052   7.701   1.300  1.5444  1.8586  2.0135
   43MOL   H40743331   7.117   7.655   1.071  1.8744  0.0726 -1.6117
   43MOL   H40843332   7.340   7.394   0.740 -0.9822  0.3766 -1.4614
   43MOL   H40943333   7.323   7.185   0.642  0.2153  1.2169  0.1230
   43MOL   N41043334   6.538   0.459   1.806 -0.6490  0.6404 -0.0783
   43MOL   C41143335   6.396   0.469   1.820 -0.3857  0.3345  0.3862
   43MOL   C41243336   6.321   0.452   1.937 -0.2456  0.1084  0.6546
   43MOL   C41343337   6.180   0.470   1.940 -0.0364 -0.6841  0.5056
   43MOL   C41443338   6.110   0.515   1.826  0.1401  0.1321  0.1598
   43MOL   N41543339   5.973   0.533   1.826 -0.1335 -0.6421  0.1613
   43MOL   C41643340   5.902   0.614   1.737 -0.3701  0.1038 -0.1684
   43MOL   C41743341   5.940   0.746   1.707 -1.1380  0.9678 -0.0372
   43MOL   C41843342   5.858   0.824   1.627  0.1664 -0.3211 -0.1010
   43MOL   C41943343   5.742   0.772   1.564  0.5111 -0.3166 -0.0392
   43MOL   N42043344   5.654   0.841   1.479 -0.8490 -0.9446  0.9081
   43MOL   C42143345   5.675   0.976   1.435 -0.4964 -0.7041  0.7591
   43MOL   C42243346   5.793   1.013   1.371 -0.3240  0.3527 -0.5602
   43MOL   C42343347   5.809   1.144   1.327  0.4530  0.4143  0.7204
   43MOL   C42443348   5.703   1.238   1.342 -0.2530  0.2946  0.7687
   43MOL   N42543349   5.703   1.367   1.294  0.0820  0.2334  0.7141
   43MOL   C42643350   5.817   1.447   1.285 -0.1475 -0.5799 -0.2640
   43MOL   C42743351   5.807   1.540   1.181  0.2869 -0.7144  0.5746
   43MOL   C42843352   5.914   1.629   1.162 -0.4454 -0.1272 -0.1710
   43MOL   C42943353   6.021   1.633   1.256 -0.2100 -0.2009 -0.1165
   43MOL   C43043354   6.140   1.726   1.234  0.5223  0.6589  0.0060
   43MOL   C43143355   6.025   1.550   1.370  0.4714  0.1945  0.5612
   43MOL   C43243356   5.919   1.452   1.385  0.2756 -0.0656  0.1761
   43MOL   C43343357   5.578   1.197   1.396 -0.3693  0.3005 -0.3281
   43MOL   C43443358   5.567   1.070   1.449 -0.2427 -0.1152 -0.2056
   43MOL   C43543359   5.708   0.641   1.594 -0.4615  0.5680  0.2994
   43MOL   C43643360   5.785   0.564   1.677 -0.0267  0.7117 -0.2488
   43MOL   C43743361   6.182   0.545   1.709 -0.0918 -0.8850 -0.6346
   43MOL   C43843362   6.324   0.520   1.707 -0.6378  0.7434 -0.6143
   43MOL   H43943363   6.582   0.469   1.715  1.9303 -1.2567  0.8851
   43MOL   H44043364   6.380   0.420   2.021 -1.2789  0.1581  1.4062
   43MOL   H44143365   6.136   0.455   2.037 -1.3179 -1.4489 -0.1769
   43MOL   H44243366   5.943   0.436   1.821  0.5145 -0.7401 -2.2453
   43MOL   H44343367   6.027   0.785   1.757  0.4618 -2.7546  0.2600
   43MOL   H44443368   5.884   0.928   1.613 -1.2093  0.2127  1.2923
   43MOL   H44543369   5.562   0.803   1.459 -0.9598 -0.0845 -0.3322
   43MOL   H44643370   5.880   0.949   1.371 -0.1736  0.5287  1.8238
   43MOL   H44743371   5.898   1.174   1.274 -0.5398 -1.5982 -2.1742
   43MOL   H44843372   5.619   1.404   1.252 -0.4281 -1.1042  0.5427
   43MOL   H44943373   5.732   1.530   1.104  0.6645  0.8271 -0.0230
   43MOL   H45043374   5.923   1.704   1.085  3.1961  0.0275  0.3559
   43MOL   H45143375   6.122   1.807   1.304 -2.4108 -1.4546  1.7900
   43MOL   H45243376   6.134   1.759   1.130 -2.8004  0.6639  0.1600
   43MOL   H45343377   6.109   1.553   1.437  1.0088  0.4678 -0.1193
   43MOL   H45443378   5.926   1.379   1.464  3.8689  1.0753  1.0152
   43MOL   H45543379   5.490   1.259   1.386 -0.0003  1.1623  1.6334
   43MOL   H45643380   5.476   1.031   1.492  0.1965 -1.3820 -0.4027
   43MOL   H45743381   5.621   0.600   1.546 -0.1056  1.6026 -1.2613
   43MOL   H45843382   5.750   0.464   1.699 -2.5833  0.9450 -3.0602
   43MOL   H45943383   6.130   0.584   1.623 -0.5917  0.8744  0.4534
   43MOL   H46043384   6.375   0.552   1.617  1.9330  1.0082  0.8836
   43MOL   N46143385   6.275   1.669   1.247 -0.7396  0.4299  0.3453
   43MOL   C46243386   6.312   1.535   1.206 -0.3867  0.3335  0.4071
   43MOL   C46343387   6.250   1.464   1.102  0.3940 -0.6681 -0.0902
   43MOL   C46443388   6.292   1.334   1.069 -0.1446 -0.6632  0.2231
   43MOL   C46543389   6.395   1.271   1.141 -0.0647  0.7720 -0.0406
   43MOL   N46643390   6.427   1.137   1.112  0.0526  0.0613 -0.1068
   43MOL   C46743391   6.542   1.058   1.119 -0.6180 -0.0314  0.2695
   43MOL   C46843392   6.533   0.925   1.089 -0.5460  0.1470  0.6480
   43MOL   C46943393   6.644   0.846   1.111  0.6300  0.1086  0.0153
   43MOL   C47043394   6.765   0.895   1.151 -0.0363 -0.1005  0.2635
   43MOL   N47143395   6.880   0.820   1.169  0.3747 -1.3222 -0.3763
   43MOL   C47243396   6.923   0.718   1.084  0.3902  0.8220 -0.4417
   43MOL   C47343397   7.015   0.622   1.139 -0.0922  0.0706  0.2621
   43MOL   C47443398   7.073   0.523   1.056  0.6659  0.1288 -0.2820
   43MOL   C47543399   7.030   0.514   0.918  0.3404  0.4520 -0.2845
   43MOL   N47643400   7.082   0.413   0.842  0.1914 -0.3538  0.4819
   43MOL   C47743401   7.187   0.327   0.875 -0.3080 -0.4979  0.8272
   43MOL   C47843402   7.315   0.377   0.922 -0.5297 -0.0825 -0.2094
   43MOL   C47943403   7.414   0.289   0.964  0.1878  0.1694  0.7641
   43MOL   C48043404   7.395   0.153   0.943  0.7583 -0.3710 -0.1732
   43MOL   C48143405   7.496   0.060   0.996  0.4529  0.4090 -0.3190
   43MOL   C48243406   7.268   0.103   0.905 -0.0502  0.6563 -0.3459
   43MOL   C48343407   7.164   0.188   0.873 -0.1052 -0.3394 -0.0465
   43MOL   C48443408   6.934   0.601   0.870 -0.3523 -0.3715  0.0772
   43MOL   C48543409   6.886   0.704   0.946 -0.5627  0.1429  0.3019
   43MOL   C48643410   6.777   1.035   1.180 -0.4768  0.0623  0.9400
   43MOL   C48743411   6.665   1.119   1.159 -0.1321 -0.2564  0.1299
   43MOL   C48843412   6.460   1.339   1.244 -0.5732 -0.7671  0.3081
   43MOL   C48943413   6.417   1.472   1.278 -0.1204  0.0481 -0.9439
   43MOL   H49043414   6.327   1.711   1.322 -0.6525  1.4433 -0.2769
   43MOL   H49143415   6.171   1.512   1.045  1.4010  0.0952 -0.8784
   43MOL   H49243416   6.239   1.286   0.989  0.6909 -0.6169 -0.3759
   43MOL   H49343417   6.357   1.092   1.054 -0.2561  1.0102 -0.4764
   43MOL   H49443418   6.437   0.885   1.057 -0.8384  0.2744  1.3570
   43MOL   H49543419   6.629   0.741   1.093 -1.2964  0.0509  1.6818
   43MOL   H49643420   6.939   0.857   1.242 -0.7626 -0.9210  0.3682
   43MOL   H49743421   7.044   0.630   1.243  1.7485 -0.7673 -0.1672
   43MOL   H49843422   7.141   0.452   1.100 -0.3385 -0.5286  0.2163
   43MOL   H49943423   7.041   0.400   0.750  0.9277 -2.3443  0.4240
   43MOL   H50043424   7.331   0.483   0.920  2.4049 -0.4437  1.5025
   43MOL   H50143425   7.500   0.329   1.014  0.2520 -1.4919  2.0255
   43MOL   H50243426   7.445   0.007   1.077 -0.4909  1.6746 -0.0830
   43MOL   H50343427   7.580   0.115   1.039 -1.7953  3.2411  0.5907
   43MOL   H50443428   7.242   7.980   0.905  2.4824  0.0024 -1.6931
   43MOL   H50543429   7.069   0.149   0.842 -1.0049  1.9336 -0.2853
   43MOL   H50643430   6.903   0.595   0.767 -0.1779 -1.8656  0.0999
   43MOL   H50743431   6.814   0.777   0.911  0.3454  0.4616 -0.9237
   43MOL   H50843432   6.870   1.085   1.204  1.5761 -1.2869 -3.5905
   43MOL   H50943433   6.676   1.224   1.178  0.9784 -0.3681  0.1216
   43MOL   H51043434   6.527   1.278   1.303 -0.3852 -0.8093  0.0522
   43MOL   H51143435   6.460   1.524   1.362 -2.5702 -1.5118  1.3522
   43MOL   N51243436   7.524   7.924   0.909  0.1267 -0.2984 -0.0268
   43MOL   C51343437   7.595   7.808   0.949 -0.2275  0.0607 -0.1060
   43MOL   C51443438   7.676   7.754   0.850  0.3641 -0.7112  0.3290
   43MOL   C51543439   7.752   7.638   0.876  0.6465  0.1785  0.4664
   43MOL   C51643440   7.730   7.569   0.994 -0.5068  0.5913 -1.0536
   43MOL   N51743441   7.797   7.444   1.017 -0.2196 -0.2806 -0.2692
   43MOL   C51843442   7.743   7.325   1.043 -0.4010 -0.2699 -0.0001
   43MOL   C51943443   7.601   7.307   1.030  0.2862  0.3274 -0.4657
   43MOL   C52043444   7.549   7.181   1.048  0.5386  0.6988  0.0057
   43MOL   C52143445   7.627   7.076   1.101  0.0438  0.4762 -0.2039
   43MOL   N52243446   7.567   6.952   1.132  0.1347 -0.4905  0.0601
   43MOL   C52343447   7.435   6.916   1.168 -0.3457  0.3358 -0.3396
   43MOL   C52443448   7.382   6.786   1.142  0.0719 -0.2226  0.4681
   43MOL   C52543449   7.253   6.750   1.179 -0.4673 -0.4644  0.1707
   43MOL   C52643450   7.172   6.841   1.239 -0.2280 -0.0970 -0.2005
   43MOL   N52743451   7.042   6.811   1.279  0.4054 -0.3598  0.3513
   43MOL   C52843452   6.986   6.686   1.300  0.0796 -0.1712  0.6112
   43MOL   C52943453   7.064   6.585   1.361  0.0112  0.4315  0.8940
   43MOL   C53043454   6.996   6.473   1.409 -0.2266  0.2506 -0.0360
   43MOL   C53143455   6.860   6.448   1.386 -0.1684  0.0892  0.1971
   43MOL   C53243456   6.792   6.330   1.437 -0.3677  0.1094 -0.1151
   43MOL   C53343457   6.791   6.551   1.318  0.2103 -0.1284  0.0418
   43MOL   C53443458   6.850   6.673   1.280  0.6320 -0.1917  0.7049
   43MOL   C53543459   7.218   6.977   1.264  0.4901  0.7139 -0.0995
   43MOL   C53643460   7.350   7.006   1.229 -0.1042  0.2366  0.9117
   43MOL   C53743461   7.767   7.092   1.107  0.5618 -0.1295 -0.4020
   43MOL   C53843462   7.826   7.216   1.071 -0.2406  0.8628  0.1799
   43MOL   C53943463   7.648   7.617   1.099  0.2195  0.0801  0.2685
   43MOL   C54043464   7.580   7.742   1.071 -0.4100 -0.1498  0.4203
   43MOL   H54143465   7.527   7.941   0.810  0.4715  0.0711  0.0448
   43MOL   H54243466   7.685   7.812   0.760 -1.9393  0.7828  1.0083
   43MOL   H54343467   7.815   7.596   0.799  1.4544  0.7712  0.7974
   43MOL   H54443468   7.896   7.441   1.037 -0.5309 -0.5598  1.3037
   43MOL   H54543469   7.537   7.385   0.994 -1.2845 -0.9324 -0.4930
   43MOL   H54643470   7.443   7.172   1.035  0.7180 -1.2075 -0.2728
   43MOL   H54743471   7.624   6.880   1.089  1.4478  1.0855 -0.8801
   43MOL   H54843472   7.442   6.704   1.106 -0.7512 -0.8537  0.5114
   43MOL   H54943473   7.221   6.650   1.156  1.2184 -1.1446  0.7123
   43MOL   H55043474   6.973   6.881   1.256  0.2747 -1.1704 -1.7675
   43MOL   H55143475   7.170   6.595   1.378  0.1553  2.8078 -1.0583
   43MOL   H55243476   7.059   6.402   1.460 -0.5346 -0.8149 -1.1229
   43MOL   H55343477   6.748   6.277   1.352 -0.8157 -0.6248  0.5756
   43MOL   H55443478   6.706   6.367   1.492  0.0090  1.7743 -0.6049
   43MOL   H55543479   6.684   6.547   1.301  0.0738 -2.8190  1.2378
   43MOL   H55643480   6.786   6.753   1.248  0.5118 -0.6703 -0.2671
   43MOL   H55743481   7.148   7.055   1.286 -0.5539 -0.1021 -0.5136
   43MOL   H55843482   7.389   7.104   1.254  0.0971  0.6179 -0.8922
   43MOL   H55943483   7.833   7.012   1.136  0.5600 -0.4135 -1.1668
   43MOL   H56043484   7.931   7.231   1.093 -0.1752  1.6176 -0.6219
   43MOL   H56143485   7.634   7.571   1.195 -1.0049  3.9856  2.0878
   43MOL   H56243486   7.516   7.783   1.147 -0.0185 -0.6496  1.0258
   43MOL   N56343487   6.869   6.238   1.519 -0.2657  0.0716 -0.3882
   43MOL   C56443488   6.902   6.271   1.655  0.4632 -0.2112  0.7421
   43MOL   C56543489   6.988   6.183   1.725  0.8210  0.1376 -0.7087
   43MOL   C56643490   7.042   6.220   1.848 -0.5288  0.1478 -0.2558
   43MOL   C56743491   7.001   6.336   1.914  0.3032 -0.9396  0.4533
   43MOL   N56843492   7.059   6.381   2.037  0.7174  0.0626  0.0870
   43MOL   C56943493   7.048   6.308   2.157 -0.1065 -0.8311 -0.0203
   43MOL   C57043494   7.039   6.170   2.165  0.2721  0.1376 -0.1219
   43MOL   C57143495   7.035   6.107   2.287 -0.3145  0.8287 -0.0963
   43MOL   C57243496   7.061   6.181   2.406 -0.1661  0.0531 -0.4405
   43MOL   N57343497   7.065   6.126   2.541 -0.3822 -0.1825  0.0346
   43MOL   C57443498   7.024   5.993   2.562 -0.7593 -0.2279  0.8103
   43MOL   C57543499   6.902   5.962   2.621 -0.0120  0.8031 -0.4552
   43MOL   C57643500   6.856   5.827   2.622  0.7695  0.9541  0.3640
   43MOL   C57743501   6.932   5.723   2.570  0.4049  0.3392  0.6421
   43MOL   N57843502   6.888   5.587   2.568 -0.3975 -0.4175  0.2631
   43MOL   C57943503   6.843   5.508   2.672  0.2196  0.3468 -0.1315
   43MOL   C58043504   6.762   5.398   2.638  0.3045 -0.4717  0.9030
   43MOL   C58143505   6.721   5.308   2.737 -0.0932 -0.1787  0.2364
   43MOL   C58243506   6.767   5.329   2.870  0.7519 -0.1199  0.1993
   43MOL   C58343507   6.720   5.241   2.988  0.2382  0.1055 -0.2734
   43MOL   C58443508   6.840   5.444   2.907 -0.1158 -0.8813  0.1274
   43MOL   C58543509   6.878   5.530   2.805  0.5819  0.0850 -0.3391
   43MOL   C58643510   7.061   5.751   2.519  0.1002 -0.0629 -1.0532
   43MOL   C58743511   7.103   5.890   2.515  0.3297 -0.0606 -0.0681
   43MOL   C58843512   7.084   6.319   2.397 -0.6109  0.5338 -0.3667
   43MOL   C58943513   7.077   6.384   2.273  0.6142 -0.6783 -0.3440
   43MOL   C59043514   6.913   6.426   1.848  0.5154  0.1708 -0.8372
   43MOL   C59143515   6.863   6.394   1.717 -0.5003 -0.3851  0.0679
   43MOL   H59243516   6.892   6.145   1.487 -2.4172 -0.6573  0.1033
   43MOL   H59343517   7.007   6.087   1.679 -0.7250  0.1383 -1.3830
   43MOL   H59443518   7.110   6.153   1.897  0.4640 -0.3974 -2.2967
   43MOL   H59543519   7.086   6.478   2.043  1.4601 -0.0057 -1.8680
   43MOL   H59643520   7.040   6.100   2.083  1.7581  0.2639 -0.2204
   43MOL   H59743521   7.022   6.000   2.287 -0.2576  0.8220 -0.3172
   43MOL   H59843522   7.022   6.190   2.606  1.0384  1.4680 -0.6149
   43MOL   H59943523   6.831   6.038   2.653 -1.5444 -0.7805 -0.0140
   43MOL   H60043524   6.756   5.809   2.660  0.0915  1.1871 -1.2697
   43MOL   H60143525   6.895   5.536   2.481 -0.1499 -1.0879  0.6728
   43MOL   H60243526   6.742   5.379   2.534  0.1335  1.3675  0.5811
   43MOL   H60343527   6.662   5.225   2.703 -1.7136  1.7887 -1.8828
   43MOL   H60443528   6.612   5.234   2.991  0.4117 -3.4124  0.3217
   43MOL   H60543529   6.750   5.292   3.079  0.1931 -1.4763  0.6417
   43MOL   H60643530   6.865   5.475   3.007 -2.5032  1.6372 -0.0039
   43MOL   H60743531   6.944   5.609   2.840 -1.2621  1.0741  0.9773
   43MOL   H60843532   7.125   5.670   2.487 -0.2411 -0.3995 -0.8883
   43MOL   H60943533   7.189   5.932   2.465 -0.5808  2.0679  0.1260
   43MOL   H61043534   7.092   6.376   2.488 -1.4081 -0.5609  0.4104
   43MOL   H61143535   7.087   6.491   2.271  1.4261 -0.7735 -2.1996
   43MOL   H61243536   6.905   6.525   1.889  2.2920  0.4163 -1.0162
   43MOL   H61343537   6.803   6.467   1.665  1.5021  0.2900 -1.3535
   43MOL   N61443538   6.770   5.103   2.990 -0.1621 -0.8271  0.3881
   43MOL   C61543539   6.713   5.004   2.910 -0.4291  0.3756 -0.3517
   43MOL   C61643540   6.576   4.982   2.894 -0.1081  0.2548 -0.0080
   43MOL   C61743541   6.528   4.872   2.822 -0.1373 -0.0868 -0.4469
   43MOL   C61843542   6.622   4.810   2.735  0.5239 -1.1924 -0.3120
   43MOL   N61943543   6.580   4.713   2.646 -0.2412 -0.3680  0.3281
   43MOL   C62043544   6.461   4.694   2.573  0.2465 -0.6779 -0.8676
   43MOL   C62143545   6.366   4.797   2.558  0.0705  0.7750 -0.4188
   43MOL   C62243546   6.235   4.774   2.510 -0.0641  0.2683  0.6504
   43MOL   C62343547   6.199   4.650   2.453  0.0042  0.0623 -0.3134
   43MOL   N62443548   6.073   4.642   2.394 -0.1947  0.5184  0.0453
   43MOL   C62543549   6.006   4.527   2.350  0.2106 -0.4781  0.0883
   43MOL   C62643550   6.034   4.399   2.392 -0.7191  0.6781 -0.0847
   43MOL   C62743551   5.973   4.289   2.328  0.1946 -0.1302 -0.1132
   43MOL   C62843552   5.875   4.305   2.226 -0.3891 -0.3358 -0.1425
   43MOL   N62943553   5.801   4.196   2.181  0.0727  0.0418 -0.0578
   43MOL   C63043554   5.717   4.193   2.067  0.7766 -0.3508  0.2314
   43MOL   C63143555   5.751   4.260   1.953 -0.3971 -0.1027  0.1491
   43MOL   C63243556   5.668   4.247   1.842 -0.0100 -0.4234  0.0010
   43MOL   C63343557   5.543   4.186   1.846  0.3262 -0.8293 -0.4566
   43MOL   C63443558   5.455   4.192   1.724  0.2370 -0.2862  0.4105
   43MOL   C63543559   5.509   4.113   1.963 -0.0431 -0.3380  0.3799
   43MOL   C63643560   5.595   4.116   2.068 -0.0070  0.5620 -0.4496
   43MOL   C63743561   5.838   4.437   2.196 -0.2899  0.2775 -0.8014
   43MOL   C63843562   5.907   4.546   2.250  0.7694 -0.2386 -0.2362
   43MOL   C63943563   6.297   4.546   2.457 -0.6814 -0.0106 -0.0677
   43MOL   C64043564   6.425   4.570   2.514 -0.1645  0.1111  0.4713
   43MOL   C64143565   6.759   4.819   2.758  0.9884  0.3611 -0.4453
   43MOL   C64243566   6.808   4.916   2.842  1.3251  0.2566  0.1381
   43MOL   H64343567   6.870   5.093   2.995 -0.0598 -0.3404 -0.5305
   43MOL   H64443568   6.510   5.050   2.945  0.8741  0.3099  1.2115
   43MOL   H64543569   6.423   4.849   2.829  0.1184 -0.5563  2.4293
   43MOL   H64643570   6.662   4.663   2.614 -0.5468 -1.1983  0.8456
   43MOL   H64743571   6.391   4.896   2.594 -0.0665  1.2552 -1.6079
   43MOL   H64843572   6.161   4.851   2.494  0.3374  0.5353  0.0998
   43MOL   H64943573   6.014   4.724   2.406  0.7040  0.9706  1.4121
   43MOL   H65043574   6.104   4.374   2.470 -1.7296 -0.6910  0.4131
   43MOL   H65143575   5.991   4.188   2.362  1.5425  0.3743  0.6757
   43MOL   H65243576   5.822   4.109   2.228 -3.4151  0.0561  1.6740
   43MOL   H65343577   5.842   4.318   1.951 -1.7179  2.1766  2.7753
   43MOL   H65443578   5.705   4.301   1.756 -1.6284  0.6084 -0.0794
   43MOL   H65543579   5.392   4.105   1.711 -0.5277  0.6652 -2.5733
   43MOL   H65643580   5.514   4.212   1.635  0.1933  3.1122  1.0588
   43MOL   H65743581   5.410   4.070   1.957 -0.3716  0.4545  0.0545
   43MOL   H65843582   5.577   4.057   2.157  0.4080 -2.9484 -2.6272
   43MOL   H65943583   5.761   4.465   2.126 -1.2731  2.3528  1.0595
   43MOL   H66043584   5.874   4.648   2.240  1.1438 -0.0295  0.6173
   43MOL   H66143585   6.281   4.449   2.411  1.7242 -1.1279  1.3246
   43MOL   H66243586   6.486   4.484   2.537  0.1606 -0.3050 -1.8495
   43MOL   H66343587   6.828   4.748   2.715 -1.1018 -1.7003 -0.4901
   43MOL   H66443588   6.913   4.930   2.865  1.1615  1.1761  0.3399
   43MOL   N66543589   5.355   4.303   1.736 -0.1466 -0.1703  0.4999
   43MOL   C66643590   5.290   4.347   1.621  0.1811  0.0222  0.0995
   43MOL   C66743591   5.317   4.302   1.489  0.0190  0.1067  0.3967
   43MOL   C66843592   5.239   4.347   1.382 -0.0575  0.3743  0.0272
   43MOL   C66943593   5.125   4.428   1.410  0.3548 -0.1547 -0.0073
   43MOL   N67043594   5.049   4.470   1.300 -0.4799 -0.5696 -0.1287
   43MOL   C67143595   5.014   4.386   1.198 -0.2519 -0.3433  0.8981
   43MOL   C67243596   4.985   4.247   1.225 -0.3120 -0.2333  0.7322
   43MOL   C67343597   4.967   4.163   1.111  0.7923  0.0099 -0.4353
   43MOL   C67443598   4.964   4.217   0.982 -0.5584 -0.0224 -0.3703
   43MOL   N67543599   4.939   4.134   0.874  0.1130 -0.2704 -0.4082
   43MOL   C67643600   4.901   3.998   0.873  0.1968 -0.2058  0.0015
   43MOL   C67743601   4.802   3.949   0.957  0.6155  0.2119  0.4266
   43MOL   C67843602   4.757   3.814   0.950  0.7707 -0.0079  0.1581
   43MOL   C67943603   4.810   3.732   0.851 -0.1191 -0.1334  0.4435
   43MOL   N68043604   4.763   3.597   0.837  0.3032  0.4005 -0.3141
   43MOL   C68143605   4.690   3.553   0.727 -0.0228  0.0148 -0.0024
   43MOL   C68243606   4.630   3.425   0.727  0.1553 -0.2989  0.3790
   43MOL   C68343607   4.556   3.377   0.621  0.5790  0.6596 -0.6644
   43MOL   C68443608   4.540   3.454   0.504 -0.6012 -0.6362 -0.2168
   43MOL   C68543609   4.460   3.398   0.387 -0.0055  0.6299  0.1969
   43MOL   C68643610   4.592   3.585   0.500  0.4978 -0.1394  0.2813
   43MOL   C68743611   4.675   3.626   0.605  0.0259 -0.4467 -0.5568
   43MOL   C68843612   4.905   3.787   0.761  0.1929  0.9322  0.3845
   43MOL   C68943613   4.956   3.916   0.774  0.4948 -0.1582 -0.1919
   43MOL   C69043614   4.990   4.351   0.958 -0.2628 -0.0898 -0.3556
   43MOL   C69143615   5.015   4.438   1.068 -0.2158  1.0025  0.2733
   43MOL   C69243616   5.095   4.468   1.541  0.2637  0.3348 -0.0646
   43MOL   C69343617   5.175   4.424   1.649  0.4135  0.8657 -0.1896
   43MOL   H69443618   5.312   4.317   1.826  0.0725  1.6422  0.3538
   43MOL   H69543619   5.409   4.249   1.467  0.1992  0.9222 -0.8388
   43MOL   H69643620   5.266   4.320   1.281 -1.4376  0.8142 -0.4669
   43MOL   H69743621   5.031   4.567   1.280  3.2791  0.7028  2.1588
   43MOL   H69843622   4.990   4.215   1.328  0.4290  0.4944  0.9276
   43MOL   H69943623   4.937   4.062   1.132  1.0680 -0.3670 -1.7720
   43MOL   H70043624   4.988   4.155   0.788 -0.8854  1.3725 -0.5943
   43MOL   H70143625   4.746   4.013   1.024  0.4822 -0.4031  0.9157
   43MOL   H70243626   4.673   3.773   1.004 -1.7801  0.5373 -3.2484
   43MOL   H70343627   4.766   3.536   0.918 -0.8669 -1.7503 -1.8647
   43MOL   H70443628   4.632   3.360   0.814 -0.6091 -1.2029 -0.2775
   43MOL   H70543629   4.502   3.284   0.636  1.9848  0.0838  1.0138
   43MOL   H70643630   4.423   3.480   0.325 -0.7355 -0.6151 -1.0186
   43MOL   H70743631   4.375   3.352   0.437  0.5612 -1.1250 -0.4409
   43MOL   H70843632   4.598   3.648   0.412  2.3891 -0.1866  0.3374
   43MOL   H70943633   4.719   3.724   0.598  0.1749 -0.4756 -0.0365
   43MOL   H71043634   4.957   3.731   0.684  0.3887  3.2937 -1.2425
   43MOL   H71143635   5.025   3.956   0.701  0.4113  0.9645  0.3301
   43MOL   H71243636   4.984   4.389   0.857  3.4097 -0.5000 -0.7994
   43MOL   H71343637   5.026   4.543   1.047  1.6872  0.7420 -0.1232
   43MOL   H71443638   5.019   4.542   1.561  0.1904  0.7021 -1.6364
   43MOL   H71543639   5.157   4.467   1.746 -0.3127  1.4158 -0.5637
   43MOL   N71643640   4.534   3.294   0.314  0.4656 -0.2845  0.2947
   43MOL   C71743641   4.611   3.314   0.196 -0.2442 -0.5490 -0.4165
   43MOL   C71843642   4.633   3.440   0.141  0.2275 -0.0098 -0.4980
   43MOL   C71943643   4.720   3.461   0.030 -0.0368 -0.0639  0.0290
   43MOL   C72043644   4.779   3.348   7.944  0.2940  0.1672 -0.4407
   43MOL   N72143645   4.852   3.364   7.827  0.0019 -0.7499  0.0248
   43MOL   C72243646   4.870   3.479   7.752 -0.2564 -0.6895 -0.6213
   43MOL   C72343647   4.759   3.562   7.722  0.0162 -0.2264 -0.1578
   43MOL   C72443648   4.785   3.681   7.652  0.2682 -0.1904  0.4183
   43MOL   C72543649   4.910   3.718   7.608  0.3573  0.6862  0.1618
   43MOL   N72643650   4.927   3.845   7.541  0.2888 -0.4017  0.0488
   43MOL   C72743651   5.030   3.936   7.557  0.3937  0.1872 -0.3908
   43MOL   C72843652   5.071   3.959   7.690  0.4953 -0.5031  0.6901
   43MOL   C72943653   5.166   4.066   7.715 -0.1093 -0.2744  0.4707
   43MOL   C73043654   5.213   4.140   7.610 -1.1579 -0.0699 -0.3004
   43MOL   N73143655   5.304   4.240   7.645  0.6541 -0.2529 -0.0090
   43MOL   C73243656   5.271   4.379   7.645  0.7029  0.0663  0.0646
   43MOL   C73343657   5.358   4.466   7.709 -0.0385  0.1868  0.5177
   43MOL   C73443658   5.321   4.600   7.734 -0.2830 -0.4788  0.2482
   43MOL   C73543659   5.210   4.651   7.670 -0.8430 -0.5693  0.2246
   43MOL   C73643660   5.184   4.799   7.701  0.0813  0.4268 -0.1953
   43MOL   C73743661   5.134   4.568   7.588  0.5452 -0.0352 -0.3659
   43MOL   C73843662   5.155   4.432   7.575 -0.2122 -0.5095 -0.0066
   43MOL   C73943663   5.175   4.122   7.475  0.1346  0.4049 -0.1354
   43MOL   C74043664   5.081   4.013   7.449 -0.3646  0.0951  0.4430
   43MOL   C74143665   5.016   3.635   7.641  0.3733 -0.3615 -0.2074
   43MOL   C74243666   4.997   3.517   7.711  0.5804  0.0535  0.1743
   43MOL   C74343667   4.758   3.223   0.021 -0.2064  0.4604  0.2220
   43MOL   C74443668   4.680   3.208   0.136  0.1936 -0.1491 -0.8311
   43MOL   H74543669   4.561   3.206   0.355  1.9560 -0.9419 -1.9865
   43MOL   H74643670   4.582   3.524   0.185  1.1321  0.6498 -0.6835
   43MOL   H74743671   4.729   3.562   7.975 -1.0762  0.0848  0.1469
   43MOL   H74843672   4.912   3.286   7.804  1.8332 -0.0015  2.1681
   43MOL   H74943673   4.665   3.523   7.758  0.2132 -1.5319 -1.0138
   43MOL   H75043674   4.698   3.743   7.634  0.0283 -0.2964  1.2285
   43MOL   H75143675   4.841   3.881   7.502  0.8696  1.1473  0.1861
   43MOL   H75243676   5.036   3.896   7.770 -1.9583 -1.9050 -1.4184
   43MOL   H75343677   5.215   4.080   7.810 -0.0669  0.8847  0.2864
   43MOL   H75443678   5.388   4.224   7.698  2.2974  3.3933 -1.3269
   43MOL   H75543679   5.450   4.438   7.759  1.1729  1.7452 -0.7873
   43MOL   H75643680   5.378   4.647   7.813  0.5796  1.2869 -1.3999
   43MOL   H75743681   5.275   4.853   7.729  0.2739 -1.0310  2.1422
   43MOL   H75843682   5.117   4.809   7.786 -1.3920  0.1505 -1.3120
   43MOL   H75943683   5.042   4.603   7.544 -1.7227 -3.5519  1.3621
   43MOL   H76043684   5.083   4.364   7.533  0.2607 -0.6918 -0.5227
   43MOL   H76143685   5.224   4.181   7.399 -0.2360  2.8808  1.4952
   43MOL   H76243686   5.048   4.006   7.346 -1.7701 -1.5913  0.9740
   43MOL   H76343687   5.116   3.666   7.618  0.1298  0.1896 -0.5339
   43MOL   H76443688   5.079   3.455   7.744  1.5736  0.6185 -1.1598
   43MOL   H76543689   4.799   3.133   7.961  2.2045  0.7254  1.9225
   43MOL   H76643690   4.676   3.108   0.177 -1.1278 -0.0150 -0.5977
   43MOL   N76743691   5.119   4.885   7.605 -1.0431 -0.0939 -0.3710
   43MOL   C76843692   5.096   5.019   7.637  0.6540 -0.2652  1.3938
   43MOL   C76943693   5.121   5.084   7.758 -0.0979  0.5562  0.1249
   43MOL   C77043694   5.096   5.222   7.784 -0.4369  0.9964 -0.0512
   43MOL   C77143695   5.045   5.298   7.688  0.0589 -0.2248  0.8749
   43MOL   N77243696   5.030   5.433   7.710  0.6313  0.1981 -0.3023
   43MOL   C77343697   4.950   5.532   7.646  0.7084 -0.0421  0.3843
   43MOL   C77443698   4.997   5.660   7.645  0.0208  0.2484 -0.0854
   43MOL   C77543699   4.922   5.763   7.583  0.4003  0.5111  0.8255
   43MOL   C77643700   4.797   5.738   7.518 -0.8695 -0.1294  0.5414
   43MOL   N77743701   4.740   5.846   7.448 -0.1062 -0.1999 -0.6060
   43MOL   C77843702   4.612   5.868   7.386  0.1211 -0.7911  0.2602
   43MOL   C77943703   4.604   5.959   7.272  0.3860  0.6916 -0.5392
   43MOL   C78043704   4.475   5.987   7.217  0.4911 -0.4582 -0.0029
   43MOL   C78143705   4.359   5.946   7.284  0.2893 -0.6488 -0.1375
   43MOL   N78243706   4.231   5.985   7.241  0.0766 -0.1125 -0.0954
   43MOL   C78343707   4.181   6.100   7.176 -0.4682 -0.6585  0.1244
   43MOL   C78443708   4.053   6.078   7.115  0.0421 -0.0082 -0.4276
   43MOL   C78543709   3.992   6.184   7.049 -0.0950  0.1989 -0.4390
   43MOL   C78643710   4.061   6.311   7.039 -0.4750  0.0033 -1.2656
   43MOL   C78743711   4.013   6.423   6.956 -0.0551  0.4848  0.4130
   43MOL   C78843712   4.187   6.331   7.101 -0.1713 -0.6178 -0.3251
   43MOL   C78943713   4.244   6.223   7.168 -0.9316 -0.6307  0.3112
   43MOL   C79043714   4.366   5.874   7.401  0.2474 -0.1071 -1.0053
   43MOL   C79143715   4.490   5.834   7.450  0.2831  0.1220 -0.2702
   43MOL   C79243716   4.747   5.609   7.530 -0.6900  0.0531  0.5459
   43MOL   C79343717   4.825   5.503   7.588  0.1185 -0.0732 -0.0313
   43MOL   C79443718   5.011   5.241   7.567 -0.0014 -0.3607 -0.8549
   43MOL   C79543719   5.032   5.101   7.539  0.3135 -0.5281  0.3927
   43MOL   H79643720   5.131   4.855   7.509  0.1182  0.7931 -0.5156
   43MOL   H79743721   5.164   5.032   7.842  0.3501 -0.8424 -0.9474
   43MOL   H79843722   5.118   5.259   7.883  0.7189  0.3033 -0.0343
   43MOL   H79943723   5.111   5.476   7.753  1.7772 -2.2051  0.0195
   43MOL   H80043724   5.089   5.685   7.696 -1.3446 -0.7974  2.9650
   43MOL   H80143725   4.950   5.867   7.591  0.5419  0.5127  0.3512
   43MOL   H80243726   4.805   5.922   7.436  1.4365 -1.2032  1.0283
   43MOL   H80343727   4.691   6.001   7.224  0.1886 -0.9695 -2.4388
   43MOL   H80443728   4.461   6.047   7.129 -0.3181  2.3928  1.9886
   43MOL   H80543729   4.166   5.908   7.247 -1.5222  1.3993  2.8969
   43MOL   H80643730   3.989   5.994   7.136  0.1435  0.2732  1.0294
   43MOL   H80743731   3.890   6.173   7.013  0.0059 -1.4318 -0.2967
   43MOL   H80843732   3.910   6.403   6.925  0.1570  0.2850 -0.1647
   43MOL   H80943733   4.073   6.441   6.867  0.9746 -1.0598  0.7766
   43MOL   H81043734   4.240   6.425   7.090 -0.2283 -0.5560 -0.0813
   43MOL   H81143735   4.345   6.240   7.202 -1.3748  0.9703  0.8532
   43MOL   H81243736   4.275   5.852   7.455  0.1817  1.2113 -0.5601
   43MOL   H81343737   4.484   5.789   7.548 -1.2543  0.4641 -0.1919
   43MOL   H81443738   4.649   5.586   7.492  0.1839 -2.9589  0.0469
   43MOL   H81543739   4.776   5.407   7.595 -1.7418  0.9260  1.1535
   43MOL   H81643740   4.967   5.300   7.489  1.1105 -1.2923 -2.2170
   43MOL   H81743741   5.014   5.065   7.439 -0.5654 -1.4977  0.8975
   43MOL   N81843742   4.028   6.545   7.024  0.5797 -0.2295 -0.1356
   43MOL   C81943743   3.995   6.668   6.967  0.0488 -0.2692 -0.0391
   43MOL   C82043744   4.012   6.779   7.047 -0.9344 -0.2784  0.2965
   43MOL   C82143745   3.990   6.909   6.989  0.6763  0.0483  0.1927
   43MOL   C82243746   3.948   6.925   6.857 -0.0576  0.5543  0.1202
   43MOL   N82343747   3.926   7.052   6.804  0.1954  0.0883  0.2117
   43MOL   C82443748   3.815   7.131   6.824 -1.4645 -0.0608  0.1281
   43MOL   C82543749   3.783   7.216   6.722 -1.0382 -0.0311 -0.0040
   43MOL   C82643750   3.675   7.311   6.735 -0.4539 -0.1823  0.0040
   43MOL   C82743751   3.591   7.301   6.846  0.2272  0.0674  0.1209
   43MOL   N82843752   3.476   7.377   6.862 -0.2780 -0.5191  0.4676
   43MOL   C82943753   3.425   7.493   6.795 -0.2405  0.1747 -0.5843
   43MOL   C83043754   3.285   7.499   6.752 -1.0661 -0.2473  0.7472
   43MOL   C83143755   3.244   7.621   6.696  0.1088 -0.8683  0.0128
   43MOL   C83243756   3.324   7.743   6.695 -0.4992  1.0545 -0.3986
   43MOL   N83343757   3.262   7.869   6.671  0.6634  0.0161 -0.1752
   43MOL   C83443758   3.310   7.976   6.599  0.3145  0.0347 -0.0647
   43MOL   C83543759   3.233   0.117   6.590 -0.4044  0.7308  0.3424
   43MOL   C83643760   3.269   0.217   6.498  0.5198  0.5606 -0.0455
   43MOL   C83743761   3.393   0.211   6.435 -0.6236  0.0002  0.3044
   43MOL   C83843762   3.446   0.330   6.349  0.3108 -0.4491 -0.2008
   43MOL   C83943763   3.464   0.092   6.436  0.5300  0.1657  1.3191
   43MOL   C84043764   3.424   7.964   6.513  0.0290 -0.6882  0.0288
   43MOL   C84143765   3.456   7.726   6.731 -0.4176 -0.2811  0.5540
   43MOL   C84243766   3.509   7.599   6.770 -0.9115 -1.2066 -0.0419
   43MOL   C84343767   3.616   7.202   6.943 -0.4364  0.2207  0.0766
   43MOL   C84443768   3.731   7.125   6.933 -0.0472 -0.1196 -0.3177
   43MOL   C84543769   3.937   6.811   6.780  0.1491  0.1092  0.0457
   43MOL   C84643770   3.963   6.683   6.828 -0.2829  1.0944 -1.0356
   43MOL   H84743771   4.085   6.541   7.107  1.4628  0.0419 -0.7237
   43MOL   H84843772   4.034   6.776   7.152 -1.3839 -0.1312  0.3978
   43MOL   H84943773   4.002   6.998   7.050  2.7592  0.6642 -1.0701
   43MOL   H85043774   3.967   7.058   6.711  0.8303  1.4991  0.5650
   43MOL   H85143775   3.847   7.230   6.636 -0.6330  1.2592  0.4803
   43MOL   H85243776   3.657   7.390   6.664 -1.4813 -0.1004  0.3419
   43MOL   H85343777   3.418   7.335   6.933  1.4199 -0.3571  1.9942
   43MOL   H85443778   3.222   7.412   6.759  1.2352 -2.1200 -0.9035
   43MOL   H85543779   3.140   7.632   6.667  0.6616 -0.7034 -1.9526
   43MOL   H85643780   3.171   7.877   6.716  0.6346  2.2972 -0.5740
   43MOL   H85743781   3.145   0.129   6.651  1.0250  1.3355  2.3671
   43MOL   H85843782   3.211   0.307   6.509  1.3555  1.0009  0.7738
   43MOL   H85943783   3.385   0.419   6.364 -0.6547 -1.0865 -0.2446
   43MOL   H86043784   3.439   0.309   6.242 -0.8749  2.7395 -0.7839
   43MOL   H86143785   3.550   0.076   6.374 -1.2350 -1.0097 -0.9000
   43MOL   H86243786   3.483   7.873   6.507 -0.9503 -1.3366  0.0989
   43MOL   H86343787   3.519   7.813   6.729  0.5398 -0.9036  2.2274
   43MOL   H86443788   3.613   7.598   6.799  0.1136  1.2914 -3.2829
   43MOL   H86543789   3.559   7.198   7.035 -0.9703  2.2053 -0.1375
   43MOL   H86643790   3.760   7.062   7.016 -0.5548  0.8748  0.6229
   43MOL   H86743791   3.918   6.816   6.674  2.9865 -0.4981 -0.5388
   43MOL   H86843792   3.954   6.593   6.770 -1.3624 -1.1223  2.3711
   43MOL   N86943793   3.582   0.357   6.389 -0.1526  0.4500 -0.1165
   43MOL   C87043794   3.628   0.486   6.374 -0.0423 -0.0197 -0.1484
   43MOL   C87143795   3.625   0.553   6.250  0.3416 -0.5564 -0.2682
   43MOL   C87243796   3.664   0.688   6.246 -0.2320  0.3045  0.4240
   43MOL   C87343797   3.702   0.763   6.359  0.7279 -0.5687 -0.8992
   43MOL   N87443798   3.734   0.903   6.353  0.6009  0.4083  0.5892
   43MOL   C87543799   3.655   1.008   6.398  0.8062  0.2080 -0.5969
   43MOL   C87643800   3.673   1.136   6.349 -0.4713  0.0129 -0.2698
   43MOL   C87743801   3.595   1.245   6.394  0.1953 -0.1862 -0.5350
   43MOL   C87843802   3.502   1.232   6.502  0.1754 -0.2524 -0.8340
   43MOL   N87943803   3.433   1.348   6.553  0.2311  0.3726 -0.2478
   43MOL   C88043804   3.365   1.353   6.676 -0.2101 -0.8158 -0.5706
   43MOL   C88143805   3.259   1.451   6.678 -0.1183  0.1160 -0.5755
   43MOL   C88243806   3.188   1.465   6.799 -0.9034 -0.7452 -0.9143
   43MOL   C88343807   3.224   1.397   6.917 -0.3604  0.1826 -0.5238
   43MOL   N88443808   3.147   1.418   7.027 -0.5201 -0.2267 -0.5642
   43MOL   C88543809   3.008   1.450   7.029  0.0087 -0.7709 -0.0450
   43MOL   C88643810   2.958   1.543   7.125 -0.2371 -0.0672 -0.4328
   43MOL   C88743811   2.819   1.558   7.134  0.0609  0.5334 -0.1438
   43MOL   C88843812   2.731   1.495   7.048  0.0926  0.1012  0.2285
   43MOL   C88943813   2.585   1.516   7.077 -0.7387  0.9708 -0.4886
   43MOL   C89043814   2.783   1.410   6.951  0.2451  0.1743 -0.8587
   43MOL   C89143815   2.926   1.393   6.932 -0.2291  0.8557 -0.0473
   43MOL   C89243816   3.332   1.309   6.923  0.2896 -0.2898 -0.0805
   43MOL   C89343817   3.399   1.287   6.799 -0.1224 -0.7815  0.2784
   43MOL   C89443818   3.478   1.100   6.544 -0.1128  0.7918 -0.0973
   43MOL   C89543819   3.554   0.985   6.496 -0.7996 -0.1340  0.0328
   43MOL   C89643820   3.710   0.694   6.479  0.2917  0.5558 -0.3145
   43MOL   C89743821   3.677   0.560   6.487  0.1064 -0.2677 -0.0071
   43MOL   H89843822   3.599   0.306   6.475  0.4631  2.0546  0.7512
   43MOL   H89943823   3.595   0.502   6.160  3.0079 -0.1478 -1.4387
   43MOL   H90043824   3.666   0.728   6.146 -0.3783  0.9689  0.6874
   43MOL   H90143825   3.783   0.927   6.268  0.2575 -0.5243  0.1239
   43MOL   H90243826   3.747   1.146   6.272  0.1086 -0.9381  0.1553
   43MOL   H90343827   3.587   1.340   6.343 -1.5746 -0.0347 -0.0145
   43MOL   H90443828   3.402   1.403   6.475 -1.3504  1.1298  0.8768
   43MOL   H90543829   3.226   1.501   6.588  2.4389  2.8030 -0.0891
   43MOL   H90643830   3.109   1.538   6.809  0.3699  0.6920 -1.1561
   43MOL   H90743831   3.198   1.427   7.114 -0.9165  1.2130 -0.4722
   43MOL   H90843832   3.023   1.596   7.192 -1.2790  0.3724  0.2346
   43MOL   H90943833   2.793   1.632   7.209  0.6628  0.3160  0.2786
   43MOL   H91043834   2.573   1.595   7.151  2.0472  0.0066  1.0548
   43MOL   H91143835   2.543   1.422   7.112 -0.9779  1.2182 -0.1055
   43MOL   H91243836   2.714   1.352   6.892  0.2888  0.8812 -1.6155
   43MOL   H91343837   2.960   1.321   6.859  1.4741  2.0861 -0.5171
   43MOL   H91443838   3.355   1.239   7.003 -1.1514 -2.5549 -1.5788
   43MOL   H91543839   3.479   1.215   6.797 -0.6872 -1.4040  0.0355
   43MOL   H91643840   3.411   1.081   6.626  1.2865  1.3738  1.2155
   43MOL   H91743841   3.540   0.886   6.536 -0.6956  0.6893  2.1783
   43MOL   H91843842   3.723   0.743   6.574 -0.4169 -1.0101  0.6127
   43MOL   H91943843   3.683   0.526   6.589 -1.2909 -1.7262 -0.3873
   43MOL   N92043844   2.502   1.558   6.967  0.1925 -0.1168 -0.5268
   43MOL   C92143845   2.370   1.594   6.993  0.5368 -0.2154  0.2052
   43MOL   C92243846   2.313   1.706   6.927  0.0614  0.7361 -0.2654
   43MOL   C92343847   2.177   1.733   6.941  0.4648 -0.0956 -0.5487
   43MOL   C92443848   2.097   1.647   7.021  0.6552  1.2100  0.4320
   43MOL   N92543849   1.961   1.682   7.028  0.4039 -0.8338 -0.0123
   43MOL   C92643850   1.858   1.642   7.115 -0.5717 -0.7384  0.0932
   43MOL   C92743851   1.732   1.610   7.057 -0.1579 -0.0515  0.1038
   43MOL   C92843852   1.625   1.576   7.141 -0.3999  0.7739  0.1559
   43MOL   C92943853   1.638   1.595   7.283  0.0597 -0.1706 -0.9638
   43MOL   N93043854   1.530   1.575   7.365  0.1751 -0.3276 -0.2202
   43MOL   C93143855   1.436   1.472   7.350  0.1858  0.2491  0.5609
   43MOL   C93243856   1.458   1.342   7.297 -0.7118 -0.4161  0.5113
   43MOL   C93343857   1.351   1.250   7.292  0.5096  0.9296  0.0005
   43MOL   C93443858   1.222   1.287   7.339 -0.4802 -0.3677 -0.7618
   43MOL   N93543859   1.118   1.199   7.322 -0.5540  0.0311 -0.2181
   43MOL   C93643860   1.091   1.098   7.407  0.7068  0.7159 -0.0554
   43MOL   C93743861   1.100   0.969   7.349  0.4357  0.5618 -1.1996
   43MOL   C93843862   1.073   0.854   7.427 -0.7160  0.3533  0.1600
   43MOL   C93943863   1.041   0.865   7.560  0.1863  0.1956 -0.2383
   43MOL   C94043864   1.003   0.734   7.631 -0.4703 -0.3775  0.7913
   43MOL   C94143865   1.028   0.993   7.615 -0.2645 -0.1346  0.4908
   43MOL   C94243866   1.059   1.107   7.540 -0.0340 -0.2413 -0.4501
   43MOL   C94343867   1.198   1.413   7.392 -0.4863 -0.3449  0.2778
   43MOL   C94443868   1.306   1.508   7.395  0.3568  0.7565  0.1052
   43MOL   C94543869   1.759   1.632   7.339  0.4081 -0.7890 -0.9269
   43MOL   C94643870   1.869   1.649   7.258  0.5734 -0.5194  0.2333
   43MOL   C94743871   2.151   1.537   7.086 -0.1176 -0.0900 -0.1427
   43MOL   C94843872   2.291   1.520   7.086 -0.1691  0.6444 -0.3537
   43MOL   H94943873   2.540   1.621   6.898  1.3164 -0.0297  0.1596
   43MOL   H95043874   2.372   1.770   6.864  2.4827 -0.5175  0.6696
   43MOL   H95143875   2.133   1.815   6.886  1.0485  0.1755 -0.6146
   43MOL   H95243876   1.925   1.720   6.942  0.6412 -2.9965 -1.1054
   43MOL   H95343877   1.716   1.619   6.950 -0.7157  0.0827  0.1960
   43MOL   H95443878   1.526   1.561   7.101 -0.3173  0.2451  0.1355
   43MOL   H95543879   1.530   1.645   7.437 -0.1328  1.4030 -1.8395
   43MOL   H95643880   1.557   1.312   7.267 -1.1735 -2.9359  1.3744
   43MOL   H95743881   1.370   1.151   7.253 -0.1856  0.4685  0.8263
   43MOL   H95843882   1.130   1.157   7.230 -2.4162 -1.4885  0.2061
   43MOL   H95943883   1.124   0.955   7.245 -0.8039  0.3453 -1.4637
   43MOL   H96043884   1.071   0.760   7.374 -0.3665  0.8983 -0.8414
   43MOL   H96143885   1.101   0.695   7.659 -0.6429 -0.1891  1.6616
   43MOL   H96243886   0.945   0.667   7.568  0.7074  0.2979 -1.0571
   43MOL   H96343887   0.987   1.014   7.712  0.1731 -0.7002  0.8060
   43MOL   H96443888   1.042   1.199   7.594  0.9940  0.6258 -1.5912
   43MOL   H96543889   1.097   1.436   7.425  0.0771  0.9194  1.1571
   43MOL   H96643890   1.275   1.606   7.427  1.3170  1.2396 -0.4417
   43MOL   H96743891   1.760   1.651   7.446 -1.4398 -1.4848 -0.7690
   43MOL   H96843892   1.962   1.676   7.307 -0.0346 -0.0829  1.1635
   43MOL   H96943893   2.092   1.467   7.142 -1.4329  1.4890  0.4783
   43MOL   H97043894   2.334   1.441   7.146 -1.2072 -0.5228 -1.1038
   43MOL   N97143895   0.913   0.749   7.742  0.4255 -0.2552  0.3531
   43MOL   C97243896   0.897   0.624   7.812 -0.2373 -0.2308  0.7960
   43MOL   C97343897   0.768   0.591   7.852  0.1974 -0.0632  0.4338
   43MOL   C97443898   0.749   0.471   7.921 -0.0214  0.5808 -0.4263
   43MOL   C97543899   0.856   0.379   7.943 -0.3079  0.1338 -0.5435
   43MOL   N97643900   0.833   0.250   0.015  0.2129  0.0309  0.2290
   43MOL   C97743901   0.723   0.170   7.970 -0.3583  0.1790  0.5027
   43MOL   C97843902   0.650   0.110   0.095 -0.3497  0.1112 -0.0528
   43MOL   C97943903   0.547   0.020   0.069  0.5124 -0.3747  0.5233
   43MOL   C98043904   0.507   7.975   7.918 -0.0983 -0.5441  0.2429
   43MOL   N98143905   0.416   7.874   7.886  0.0250  0.0096 -0.0387
   43MOL   C98243906   0.288   7.894   7.838 -0.6433  0.2801  0.3503
   43MOL   C98343907   0.186   7.820   7.896 -0.3895  0.7071 -0.1158
   43MOL   C98443908   0.052   7.845   7.853 -0.4022  0.1984 -0.3643
   43MOL   C98543909   0.032   7.930   7.743 -0.0129  0.0660 -0.1975
   43MOL   N98643910   7.881   7.948   7.706  0.3211  0.5956 -0.0294
   43MOL   C98743911   7.838   0.050   7.610 -0.1022 -0.1117  0.0604
   43MOL   C98843912   7.872   0.191   7.614 -0.2395  0.1130 -0.1445
   43MOL   C98943913   7.849   0.268   7.497  0.0606  0.3714  0.3810
   43MOL   C99043914   7.790   0.207   7.383  0.6972 -0.1559  0.4823
   43MOL   C99143915   7.784   0.277   7.247  0.2038 -0.1617 -0.1235
   43MOL   C99243916   7.751   0.074   7.390  0.2821  0.3728  0.2417
   43MOL   C99343917   7.766   7.981   7.503  0.7829  0.1784 -0.4624
   43MOL   C99443918   0.141   0.012   7.680  0.5238  0.3348 -1.0268
   43MOL   C99543919   0.267   7.981   7.731  0.2337 -0.4004 -0.5314
   43MOL   C99643920   0.581   0.053   7.809  0.3587  0.1371  0.2177
   43MOL   C99743921   0.685   0.148   7.834 -0.0366  0.2016  0.2851
   43MOL   C99843922   0.984   0.415   7.901 -0.1129  0.1971 -0.1868
   43MOL   C99943923   1.006   0.535   7.837  0.6166  0.2306 -0.2783
   43MOL     H143924   0.821   0.787   7.728  0.3882 -1.4045 -2.9587
   43MOL     H243925   0.689   0.661   7.828  0.7171  1.1683  2.2728
   43MOL     H343926   0.649   0.443   7.951  0.2808  0.3052  0.3536
   43MOL     H443927   0.889   0.229   0.097  0.4215  0.7156  0.2581
   43MOL     H543928   0.675   0.136   0.197  2.1295  0.8469 -0.8308
   43MOL     H643929   0.511   7.949   0.156 -2.5885  1.4936  0.4791
   43MOL     H743930   0.415   7.802   7.956 -1.3221 -1.1793 -1.2393
   43MOL     H843931   0.201   7.751   7.977  2.4638  0.3448 -0.9139
   43MOL     H943932   7.949   7.803   7.904  1.1580 -1.8002  0.6783
   43MOL    H1043933   7.801   7.927   7.764  0.2435  0.3074 -0.2386
   43MOL    H1143934   7.919   0.231   7.703 -0.8514 -3.3864  1.8601
   43MOL    H1243935   7.878   0.372   7.485 -0.3761  0.3942 -0.4746
   43MOL    H1343936   7.690   0.253   7.198  0.6205  1.6625 -1.9139
   43MOL    H1443937   7.858   0.232   7.180  0.5078 -0.4647  0.4113
   43MOL    H1543938   7.722   0.024   7.298  0.2100 -0.3466  0.6536
   43MOL    H1643939   7.743   7.875   7.501 -0.1204  0.2388  3.5771
   43MOL    H1743940   0.133   0.074   7.592  0.7073 -0.2216 -1.4414
   43MOL    H1843941   0.335   0.057   7.671 -0.0225 -0.0870 -0.5184
   43MOL    H1943942   0.554   0.026   7.708  2.6847 -0.8457 -0.1718
   43MOL    H2043943   0.733   0.193   7.748 -1.0166 -1.3632 -1.1111
   43MOL    H2143944   1.073   0.357   7.919 -0.5165 -0.5163 -0.4896
   43MOL    H2243945   1.111   0.550   7.813  1.4273 -3.0780  0.8640
   43MOL    H2343946   7.811   0.383   7.245 -0.4382  0.0092  0.0533
   44MOL     N143947   6.705   0.678   2.626 -0.0726 -0.3426 -0.3287
   44MOL     C243948   6.768   0.582   2.706  0.1561 -0.0052  0.5919
   44MOL     C343949   6.710   0.532   2.826 -0.8406  0.7809  0.1151
   44MOL     C443950   6.779   0.444   2.906  0.1638  0.5325 -0.5953
   44MOL     C543951   6.897   0.379   2.864  0.5013  0.7788  0.2721
   44MOL     N643952   6.959   0.269   2.926 -0.2147 -0.5282  0.2496
   44MOL     C743953   6.972   0.234   3.056  0.3332 -1.3019  1.2071
   44MOL     C843954   6.937   0.328   3.158  0.4606  0.2424  0.2893
   44MOL     C943955   6.934   0.292   3.293 -0.0796  0.2319  0.0106
   44MOL    C1043956   6.974   0.163   3.335  0.2179  1.4265  0.8462
   44MOL    N1143957   6.988   0.143   3.468  0.6468 -0.5700  0.5126
   44MOL    C1243958   6.951   0.016   3.518 -0.3675 -0.5416  0.1760
   44MOL    C1343959   7.037   7.923   3.602  0.3168 -0.4086 -0.9801
   44MOL    C1443960   7.002   7.798   3.649  0.3656  0.3574  0.1381
   44MOL    C1543961   6.881   7.741   3.604  0.0214 -0.1147  0.2423
   44MOL    N1643962   6.847   7.607   3.635  0.7060  0.1959  0.3214
   44MOL    C1743963   6.747   7.563   3.725 -0.0405 -0.6803  0.5491
   44MOL    C1843964   6.757   7.432   3.775  0.0490  0.5901 -0.2802
   44MOL    C1943965   6.660   7.405   3.869 -0.1724  0.1371  0.0465
   44MOL    C2043966   6.546   7.484   3.904 -0.2520  0.8845  0.2480
   44MOL    C2143967   6.442   7.436   3.999  0.0418 -0.0310  0.3540
   44MOL    C2243968   6.537   7.613   3.841 -0.2377  0.9788  0.3527
   44MOL    C2343969   6.637   7.651   3.753  0.0013 -0.2154  0.8843
   44MOL    C2443970   6.797   7.807   3.515 -0.4195  0.3463 -0.1546
   44MOL    C2543971   6.826   7.939   3.480 -0.7460 -0.6752 -0.0194
   44MOL    C2643972   7.012   0.070   3.235 -0.5351 -0.4469  0.3277
   44MOL    C2743973   7.009   0.106   3.098  0.7450 -0.1588  0.0284
   44MOL    C2843974   6.956   0.425   2.748  0.0901 -0.3029  0.1469
   44MOL    C2943975   6.892   0.519   2.667  0.4654  0.2655 -0.1109
   44MOL    H3043976   6.752   0.737   2.558 -2.4850  1.4540 -0.5109
   44MOL    H3143977   6.611   0.562   2.854 -1.5967 -1.6913  0.2301
   44MOL    H3243978   6.728   0.411   2.996  0.5634  1.6142  0.0443
   44MOL    H3343979   6.966   0.194   2.859  1.0051 -0.7162  0.5763
   44MOL    H3443980   6.922   0.430   3.127  2.7354  0.4782 -0.1030
   44MOL    H3543981   6.919   0.366   3.370  0.0989  0.8692 -0.5660
   44MOL    H3643982   7.044   0.199   3.530  0.5506 -0.7214  0.7403
   44MOL    H3743983   7.126   7.969   3.643 -0.6321 -0.4547  1.1632
   44MOL    H3843984   7.073   7.745   3.711  0.8895 -0.0116 -0.7609
   44MOL    H3943985   6.925   7.544   3.647  0.4444  0.1757  1.9522
   44MOL    H4043986   6.831   7.361   3.743 -1.0400 -1.2477  1.1714
   44MOL    H4143987   6.676   7.307   3.911  2.3073  0.7209  0.5358
   44MOL    H4243988   6.353   7.392   3.954 -0.0092  1.5493 -1.1366
   44MOL    H4343989   6.400   7.520   4.055  0.7878  1.7178 -1.6533
   44MOL    H4443990   6.466   7.691   3.866 -0.0884  0.7829  1.4161
   44MOL    H4543991   6.632   7.753   3.717  1.4379 -0.2610  0.5055
   44MOL    H4643992   6.704   7.760   3.489  0.9338 -1.2366 -2.1806
   44MOL    H4743993   6.759   0.003   3.408  2.0045 -0.5246 -2.5857
   44MOL    H4843994   7.038   7.949   3.258 -0.9880 -0.9522 -1.3217
   44MOL    H4943995   7.039   0.030   3.028 -0.0137 -0.4245 -0.0183
   44MOL    H5043996   7.039   0.377   2.699 -1.1228 -0.7083 -1.5816
   44MOL    H5143997   6.935   0.553   2.574 -1.3482  0.1790 -1.0175
   44MOL    H5243998   6.619   0.721   2.655  0.8716  0.7881  0.8668
   44MOL    N5343999   6.486   7.328   4.090 -0.6887  0.1636  0.3315
   44MOL    C5444000   6.416   7.299   4.205 -0.1313 -0.1060 -0.1581
   44MOL    C5544001   6.284   7.350   4.236 -0.3976 -0.7668 -0.0961
   44MOL    C5644002   6.227   7.316   4.354 -0.6457 -0.0915 -1.0133
   44MOL    C5744003   6.297   7.254   4.462 -0.1995  0.2169  0.3249
   44MOL    N5844004   6.243   7.245   4.592 -0.2206 -0.2402  0.7468
   44MOL    C5944005   6.106   7.252   4.620 -0.4943 -0.0392 -0.2472
   44MOL    C6044006   6.032   7.140   4.654  0.3988 -0.5474  0.0744
   44MOL    C6144007   5.893   7.154   4.681 -0.2383 -0.2147 -0.1460
   44MOL    C6244008   5.825   7.277   4.678 -0.3659 -0.5318 -0.5803
   44MOL    N6344009   5.694   7.290   4.726  0.5256  0.1925 -0.3667
   44MOL    C6444010   5.571   7.270   4.663  0.6557  0.4990 -0.3123
   44MOL    C6544011   5.447   7.275   4.736  0.0529 -1.1947  0.1535
   44MOL    C6644012   5.325   7.281   4.662  0.0697 -0.2565  0.3175
   44MOL    C6744013   5.328   7.266   4.524  0.3950 -0.7798 -0.7718
   44MOL    N6844014   5.204   7.283   4.454  0.6400  0.6337  0.5346
   44MOL    C6944015   5.170   7.245   4.317  0.1530  0.1700 -0.6246
   44MOL    C7044016   5.246   7.294   4.207 -0.0161  0.5814 -0.2727
   44MOL    C7144017   5.209   7.257   4.080 -0.2626 -0.1706 -0.1331
   44MOL    C7244018   5.107   7.167   4.053 -0.3173  0.7930  0.8003
   44MOL    C7344019   5.069   7.145   3.905 -0.3770  0.0955  0.8314
   44MOL    C7444020   5.043   7.111   4.163 -0.0394 -0.5538 -0.0751
   44MOL    C7544021   5.067   7.161   4.293 -0.4739 -0.0867 -0.5325
   44MOL    C7644022   5.447   7.235   4.461 -0.1871  0.0269  0.0090
   44MOL    C7744023   5.570   7.234   4.528  0.8766 -0.3719 -0.0512
   44MOL    C7844024   5.896   7.389   4.628  0.3215  0.4622 -0.2301
   44MOL    C7944025   6.037   7.376   4.608  0.0294  0.4017  0.4899
   44MOL    C8044026   6.426   7.207   4.434  0.6331 -0.7363 -0.0830
   44MOL    C8144027   6.485   7.236   4.311 -0.7901  0.1842 -0.0116
   44MOL    H8244028   6.584   7.340   4.111 -0.8311  0.4491  0.8332
   44MOL    H8344029   6.226   7.394   4.156 -0.0577 -1.6643 -0.8456
   44MOL    H8444030   6.123   7.344   4.368  0.0528  2.0165  0.1924
   44MOL    H8544031   6.301   7.200   4.661  0.7111  1.4397  1.0784
   44MOL    H8644032   6.078   7.043   4.646  2.5834  0.4721 -0.1125
   44MOL    H8744033   5.837   7.076   4.728  1.5394 -2.1177 -1.1113
   44MOL    H8844034   5.693   7.330   4.819 -0.1945  0.9610 -0.7012
   44MOL    H8944035   5.453   7.290   4.842 -0.7219  0.5571 -0.0148
   44MOL    H9044036   5.230   7.301   4.710  0.4129 -1.4073  1.4992
   44MOL    H9144037   5.129   7.325   4.508  0.3670  1.2834 -0.3377
   44MOL    H9244038   5.326   7.364   4.223  1.2186 -0.7654 -0.4446
   44MOL    H9344039   5.277   7.297   4.006 -2.6186  1.4046 -1.5217
   44MOL    H9444040   5.144   7.075   3.866 -1.5666 -0.4247 -0.5652
   44MOL    H9544041   5.081   7.236   3.846  1.2902 -2.0035 -2.2396
   44MOL    H9644042   4.955   7.052   4.141 -1.3269  1.4969 -0.5429
   44MOL    H9744043   4.996   7.141   4.373  0.4382 -1.1534  0.0247
   44MOL    H9844044   5.443   7.236   4.353 -1.6284  2.0771  0.0555
   44MOL    H9944045   5.650   7.231   4.455  0.5401 -1.5170 -0.3960
   44MOL   H10044046   5.834   7.475   4.606  1.1018  1.9401  2.9768
   44MOL   H10144047   6.088   7.465   4.574  1.0263 -0.8769 -1.5016
   44MOL   H10244048   6.489   7.172   4.515 -0.0636 -0.5252  0.5615
   44MOL   H10344049   6.585   7.207   4.284  0.1544  0.7466  2.7138
   44MOL   N10444050   4.932   7.100   3.880  0.0414  0.3830 -0.1748
   44MOL   C10544051   4.809   7.166   3.911 -0.7001  0.2713 -1.1173
   44MOL   C10644052   4.692   7.089   3.891  0.1793 -0.3192  0.6109
   44MOL   C10744053   4.570   7.152   3.914  0.4420 -0.1049 -0.2593
   44MOL   C10844054   4.565   7.290   3.926  1.2735 -0.5425  0.0847
   44MOL   N10944055   4.444   7.360   3.915  0.6225 -0.5082 -0.0545
   44MOL   C11044056   4.409   7.461   3.819  0.0757 -0.1167 -0.4385
   44MOL   C11144057   4.482   7.485   3.701 -0.0051  0.0784  0.1747
   44MOL   C11244058   4.434   7.578   3.610 -0.2233 -0.6012 -0.0305
   44MOL   C11344059   4.318   7.652   3.634  0.4331  0.2062  0.6970
   44MOL   N11444060   4.264   7.747   3.544  0.6572 -0.2692 -0.2449
   44MOL   C11544061   4.331   7.826   3.454  0.2797 -0.0427 -0.9406
   44MOL   C11644062   4.471   7.856   3.458  0.1004 -0.7471 -0.0827
   44MOL   C11744063   4.520   7.940   3.357 -0.2159  0.4766 -0.3274
   44MOL   C11844064   4.437   0.013   3.259 -0.0662  0.0444 -0.1914
   44MOL   N11944065   4.493   0.102   3.165 -1.0959  0.4404 -0.0807
   44MOL   C12044066   4.460   0.114   3.029 -0.7599 -0.2922 -0.8430
   44MOL   C12144067   4.445   0.005   2.946  0.4297  0.2215  0.3996
   44MOL   C12244068   4.416   0.024   2.809  0.0950  0.1361 -0.1334
   44MOL   C12344069   4.414   0.150   2.747 -0.0421  0.0620  0.5413
   44MOL   C12444070   4.392   0.160   2.598 -0.3258  0.1787 -0.2003
   44MOL   C12544071   4.431   0.262   2.833  0.2728  0.2316  0.0704
   44MOL   C12644072   4.440   0.243   2.974 -0.1569  1.2076 -0.0498
   44MOL   C12744073   4.301   7.968   3.261 -1.2904  0.5762  0.4348
   44MOL   C12844074   4.248   7.890   3.360 -0.2582  0.0440 -0.4895
   44MOL   C12944075   4.248   7.630   3.755  0.5867 -0.7690  0.0525
   44MOL   C13044076   4.296   7.541   3.851 -0.1476 -0.2577  0.8004
   44MOL   C13144077   4.682   7.363   3.960  0.5554 -0.1348  0.0562
   44MOL   C13244078   4.807   7.298   3.955 -0.1552 -0.3668 -0.4300
   44MOL   H13344079   4.927   7.061   3.787  1.7313 -1.8400  0.6139
   44MOL   H13444080   4.690   6.981   3.882 -1.3069 -0.5764  3.3976
   44MOL   H13544081   4.484   7.087   3.907  0.3226 -0.1713  1.7270
   44MOL   H13644082   4.369   7.311   3.961 -0.8708  1.5362 -0.2234
   44MOL   H13744083   4.566   7.424   3.670 -0.9053 -1.0159 -0.1782
   44MOL   H13844084   4.494   7.582   3.520 -0.4979  0.0430 -0.1855
   44MOL   H13944085   4.164   7.758   3.542  0.3526 -2.8918 -0.7278
   44MOL   H14044086   4.523   7.809   3.540 -0.7476  0.2513  1.0437
   44MOL   H14144087   4.627   7.951   3.360 -0.1814  0.2105 -0.6424
   44MOL   H14244088   4.565   0.165   3.197 -0.9237  1.6877 -2.7833
   44MOL   H14344089   4.462   7.889   2.987  0.1721  0.5835  1.3876
   44MOL   H14444090   4.398   7.916   2.752  0.2171 -0.3133  0.5388
   44MOL   H14544091   4.292   0.122   2.575 -0.6168  1.5312 -1.2385
   44MOL   H14644092   4.467   0.093   2.555 -1.4993 -0.5891 -1.0964
   44MOL   H14744093   4.429   0.361   2.791 -2.0131  0.2285  0.0974
   44MOL   H14844094   4.452   0.340   3.020  1.8016  2.0811 -2.2910
   44MOL   H14944095   4.245   0.043   3.189  1.8966  3.6539  0.2744
   44MOL   H15044096   4.140   7.878   3.364 -0.5545  2.3175 -1.0681
   44MOL   H15144097   4.169   7.699   3.781  0.8303 -0.7648  0.7994
   44MOL   H15244098   4.243   7.529   3.944  0.1516 -1.7018  0.8061
   44MOL   H15344099   4.679   7.468   3.984  2.2376 -0.2618  0.9089
   44MOL   H15444100   4.899   7.351   3.969 -0.6531  0.9401 -1.9800
   44MOL   N15544101   4.413   0.291   2.553  0.4187  0.3424 -0.4869
   44MOL   C15644102   4.349   0.337   2.436  0.0915 -0.9643 -0.0550
   44MOL   C15744103   4.291   0.259   2.335 -1.1761 -0.6722 -0.6211
   44MOL   C15844104   4.250   0.319   2.219  0.6369 -0.4214  0.6725
   44MOL   C15944105   4.247   0.454   2.200  0.3574 -0.0613  0.5850
   44MOL   N16044106   4.193   0.504   2.079  0.3559 -0.2054 -0.1058
   44MOL   C16144107   4.080   0.456   2.004 -0.1260  0.0600 -0.3469
   44MOL   C16244108   3.980   0.388   2.072  0.3927 -0.0115 -0.0519
   44MOL   C16344109   3.863   0.346   1.999  0.0748  0.2610  0.0967
   44MOL   C16444110   3.852   0.372   1.861  0.2991  0.2173 -0.2934
   44MOL   N16544111   3.737   0.326   1.791  0.1958  0.2924  0.4312
   44MOL   C16644112   3.725   0.280   1.656 -0.2805  0.2759 -0.0860
   44MOL   C16744113   3.593   0.248   1.611  0.4632  0.4984 -0.3254
   44MOL   C16844114   3.573   0.214   1.476 -0.7225  0.7039  0.0853
   44MOL   C16944115   3.681   0.201   1.387 -0.7089 -0.1327 -0.6664
   44MOL   N17044116   3.664   0.188   1.254 -0.1360 -0.6975  0.0680
   44MOL   C17144117   3.564   0.248   1.172 -0.3768  0.1218 -1.0713
   44MOL   C17244118   3.552   0.205   1.042  0.2354  0.2089  0.4561
   44MOL   C17344119   3.454   0.254   0.951 -0.1063 -0.1547  0.1016
   44MOL   C17444120   3.365   0.348   1.001 -0.1176 -0.0284 -0.1139
   44MOL   C17544121   3.248   0.385   0.910  0.7668 -0.1042 -0.3887
   44MOL   C17644122   3.387   0.409   1.123 -0.2926  0.4901  0.1011
   44MOL   C17744123   3.490   0.357   1.211  0.3541 -0.3647  0.5083
   44MOL   C17844124   3.812   0.206   1.434 -0.2436  0.4389  0.6222
   44MOL   C17944125   3.832   0.256   1.567  0.1995 -0.7420 -0.0650
   44MOL   C18044126   3.956   0.445   1.799 -0.4813 -0.0435 -0.0081
   44MOL   C18144127   4.071   0.490   1.865  0.0236 -0.2665  0.1601
   44MOL   C18244128   4.296   0.538   2.303 -0.1732 -0.0832 -0.6372
   44MOL   C18344129   4.354   0.478   2.417  0.0122 -0.2206  0.7561
   44MOL   H18444130   4.447   0.357   2.622  2.5503 -2.0707  0.8504
   44MOL   H18544131   4.287   0.152   2.350 -0.5637 -0.3168  2.3121
   44MOL   H18644132   4.210   0.249   2.146 -1.2895  0.7514  0.5772
   44MOL   H18744133   4.254   0.571   2.034  1.8075 -0.3444  1.5878
   44MOL   H18844134   3.981   0.364   2.177  0.5208 -2.4941 -0.5829
   44MOL   H18944135   3.782   0.307   2.058  1.0843 -0.3329  1.1292
   44MOL   H19044136   3.655   0.307   1.847 -1.5986  1.5077 -1.7148
   44MOL   H19144137   3.499   0.267   1.662  1.5323  1.4629  1.3358
   44MOL   H19244138   3.472   0.201   1.440 -0.8203  0.1184  0.5560
   44MOL   H19344139   3.732   0.138   1.198  1.1467 -0.1496  1.1130
   44MOL   H19444140   3.620   0.126   1.014 -0.5028 -0.1883 -0.2039
   44MOL   H19544141   3.439   0.202   0.858  0.4151  0.6249 -0.4173
   44MOL   H19644142   3.239   0.323   0.820 -1.3979 -0.2063 -0.1329
   44MOL   H19744143   3.256   0.488   0.874  0.2132  0.4280  0.9530
   44MOL   H19844144   3.325   0.491   1.156 -1.4534  0.8421 -2.7912
   44MOL   H19944145   3.505   0.395   1.311  1.3520  0.2594  0.1302
   44MOL   H20044146   3.895   0.194   1.366  0.0987  0.3421  1.0565
   44MOL   H20144147   3.933   0.263   1.605  1.0080 -1.2754 -2.0032
   44MOL   H20244148   3.949   0.474   1.695 -1.6243 -2.0145 -0.5005
   44MOL   H20344149   4.154   0.539   1.816  0.3938 -0.0206  1.0151
   44MOL   H20444150   4.291   0.645   2.295  2.1840 -0.0171 -1.8081
   44MOL   H20544151   4.393   0.539   2.497 -1.3857  2.5769 -0.6329
   44MOL   N20644152   3.122   0.375   0.980  0.0272 -0.0570 -0.8291
   44MOL   C20744153   3.008   0.442   0.937 -0.2094 -0.1204  0.0036
   44MOL   C20844154   2.899   0.468   1.024 -0.1217  0.6687  0.2033
   44MOL   C20944155   2.781   0.530   0.979  0.0392 -0.5577  0.8138
   44MOL   C21044156   2.772   0.569   0.842  0.0233 -0.1187  0.7695
   44MOL   N21144157   2.655   0.628   0.792 -0.7307  0.2475  0.5588
   44MOL   C21244158   2.630   0.764   0.770 -1.0755 -0.3326 -0.0050
   44MOL   C21344159   2.520   0.788   0.688 -0.2568  0.3442 -0.4204
   44MOL   C21444160   2.493   0.920   0.645 -0.1992 -0.8521 -0.3691
   44MOL   C21544161   2.571   1.030   0.692  0.8953 -0.1622 -0.4659
   44MOL   N21644162   2.539   1.162   0.659  0.5624 -0.4804  0.5966
   44MOL   C21744163   2.487   1.209   0.538  0.2966  0.0442  0.3206
   44MOL   C21844164   2.497   1.130   0.419  0.2277  0.0168 -0.0559
   44MOL   C21944165   2.458   1.189   0.294  0.4050 -0.4279 -0.0204
   44MOL   C22044166   2.402   1.313   0.293  0.8522  0.1342 -1.0014
   44MOL   N22144167   2.350   1.370   0.172 -0.0283  0.4146 -0.1142
   44MOL   C22244168   2.376   1.321   0.044  0.0188  0.4172  1.1984
   44MOL   C22344169   2.265   1.289   7.945  0.3761 -0.6029 -0.3457
   44MOL   C22444170   2.287   1.241   7.813 -0.6141  0.3521 -0.4524
   44MOL   C22544171   2.419   1.219   7.756 -0.4910 -0.3013 -0.5361
   44MOL   C22644172   2.421   1.152   7.622 -0.0511 -0.0488  0.2074
   44MOL   C22744173   2.526   1.263   7.836 -0.7005 -0.3363  0.8518
   44MOL   C22844174   2.505   1.320   7.966 -0.4202 -0.0480  0.1117
   44MOL   C22944175   2.385   1.385   0.414 -0.0736 -0.0213 -0.2244
   44MOL   C23044176   2.426   1.340   0.536 -0.3168  0.2562  0.3382
   44MOL   C23144177   2.677   0.998   0.775  0.1451  0.0201 -0.0100
   44MOL   C23244178   2.711   0.867   0.815 -0.3707  0.4082 -0.3508
   44MOL   C23344179   2.884   0.556   0.761 -0.1870  0.2153  0.2304
   44MOL   C23444180   2.999   0.484   0.801  0.0008  0.1979 -0.6570
   44MOL   H23544181   3.123   0.344   1.076 -0.8189  2.6300  0.1006
   44MOL   H23644182   2.903   0.443   1.129 -1.6335 -1.3533 -0.1955
   44MOL   H23744183   2.706   0.551   1.053 -2.1495 -1.1100 -1.1804
   44MOL   H23844184   2.604   0.560   0.737  0.2129 -0.1941  0.2129
   44MOL   H23944185   2.448   0.718   0.650  0.1568 -1.8269  2.6235
   44MOL   H24044186   2.398   0.942   0.597 -1.4901 -0.2746  2.3474
   44MOL   H24144187   2.562   1.234   0.727 -1.9058  0.3932  0.5785
   44MOL   H24244188   2.542   1.032   0.415 -2.2979 -1.2612  1.7125
   44MOL   H24344189   2.459   1.123   0.208  0.8275  2.2375 -2.1065
   44MOL   H24444190   2.312   1.463   0.172  1.4879  1.0505 -0.1224
   44MOL   H24544191   2.169   1.306   0.010  0.3083 -1.0907 -0.3148
   44MOL   H24644192   2.201   1.201   7.760 -1.8179  1.2946  0.7496
   44MOL   H24744193   2.373   1.220   7.552  0.1138 -0.5065 -0.3622
   44MOL   H24844194   2.345   1.073   7.616  0.0674 -0.0707 -1.0560
   44MOL   H24944195   2.625   1.259   7.792 -1.6558  1.6128 -1.6109
   44MOL   H25044196   2.599   1.354   0.025  0.0377  0.7099 -1.4928
   44MOL   H25144197   2.343   1.484   0.407  1.1148  0.6423  1.5442
   44MOL   H25244198   2.423   1.382   0.635  0.9382  0.4522  0.3005
   44MOL   H25344199   2.732   1.081   0.819  0.4262  0.0645 -0.4440
   44MOL   H25444200   2.799   0.847   0.874  0.2603  1.1655 -1.0226
   44MOL   H25544201   2.875   0.591   0.660  0.5824 -0.8256 -0.2095
   44MOL   H25644202   3.083   0.470   0.734  0.4140  1.2997 -0.3719
   44MOL   N25744203   2.554   1.110   7.577 -0.1532  0.6232  0.0753
   44MOL   C25844204   2.630   1.025   7.654  1.1273 -0.2519 -0.0325
   44MOL   C25944205   2.575   0.944   7.752  0.3663  0.5331 -0.0096
   44MOL   C26044206   2.655   0.861   7.829 -0.1347 -0.3800 -0.1298
   44MOL   C26144207   2.797   0.861   7.814  0.3656  0.6594  0.1227
   44MOL   N26244208   2.879   0.781   7.896 -0.2208 -0.3502 -0.2086
   44MOL   C26344209   2.853   0.653   7.940  0.2852 -0.4656 -0.7340
   44MOL   C26444210   2.759   0.569   7.886 -0.0161  0.8468  0.1183
   44MOL   C26544211   2.734   0.441   7.939  0.0199  0.3811  0.4185
   44MOL   C26644212   2.823   0.386   0.049  0.1949 -0.1862  0.4063
   44MOL   N26744213   2.794   0.257   0.093  0.0423 -0.7744 -0.0033
   44MOL   C26844214   2.894   0.156   0.105 -1.1861 -1.1829  1.1218
   44MOL   C26944215   2.865   0.030   0.171 -0.3294 -1.0553 -0.1195
   44MOL   C27044216   2.961   7.911   0.183  0.5422  0.0997  0.8436
   44MOL   C27144217   3.082   7.919   0.114  0.2025 -0.7048 -0.6196
   44MOL   N27244218   3.177   7.812   0.100 -0.2711 -0.1467 -0.6951
   44MOL   C27344219   3.223   7.720   0.199  0.5464  0.5016 -0.1969
   44MOL   C27444220   3.222   7.760   0.333 -0.3549 -0.3596 -0.2235
   44MOL   C27544221   3.270   7.673   0.439 -0.0906  1.1397 -0.1161
   44MOL   C27644222   3.335   7.552   0.397  0.9029 -0.3821  0.3559
   44MOL   C27744223   3.407   7.457   0.490  0.3037  0.2096 -0.6727
   44MOL   C27844224   3.334   7.516   0.262 -0.3742 -1.0068 -0.0124
   44MOL   C27944225   3.272   7.592   0.163 -0.3180 -0.0286  0.3032
   44MOL   C28044226   3.112   0.063   0.056  0.2638  0.2678 -0.4869
   44MOL   C28144227   3.024   0.168   0.047  0.3292  0.2785  0.0174
   44MOL   C28244228   2.926   0.465   0.101 -0.7869 -0.1060 -0.0000
   44MOL   C28344229   2.938   0.602   0.056  0.9410  0.1715 -1.0737
   44MOL   C28444230   2.853   0.952   7.726 -0.2013  0.1737  0.2424
   44MOL   C28544231   2.773   1.038   7.645  0.4180 -0.1659 -0.0099
   44MOL   H28644232   2.600   1.171   7.512  1.7265 -0.2698  0.5377
   44MOL   H28744233   2.469   0.937   7.768 -0.2558  4.8859 -1.4639
   44MOL   H28844234   2.611   0.790   7.896 -1.0376 -0.2205 -0.5457
   44MOL   H28944235   2.966   0.828   7.920  0.2096 -2.2723  2.2435
   44MOL   H29044236   2.684   0.599   7.814 -0.6336  1.7213  1.1102
   44MOL   H29144237   2.655   0.394   7.883  1.1383  0.0066 -0.8838
   44MOL   H29244238   2.696   0.237   0.104 -0.0221 -0.2483  0.4019
   44MOL   H29344239   2.774   0.014   0.228 -0.9269 -1.9295 -1.2919
   44MOL   H29444240   2.947   7.817   0.235 -1.8204  0.1691  0.3778
   44MOL   H29544241   3.225   7.807   0.012 -1.1719  1.9556 -1.3465
   44MOL   H29644242   3.187   7.858   0.359 -0.1493 -0.4140  0.2598
   44MOL   H29744243   3.277   7.708   0.541  0.0530 -1.4634  0.7930
   44MOL   H29844244   3.452   7.369   0.444 -0.0296  0.4576 -1.4779
   44MOL   H29944245   3.332   7.422   0.560  0.6832  1.2302  0.2519
   44MOL   H30044246   3.388   7.426   0.235  0.1523 -0.3040 -1.3916
   44MOL   H30144247   3.260   7.553   0.063  0.5060  0.5300 -0.0190
   44MOL   H30244248   3.211   0.075   0.014  0.5168  1.8337  0.5404
   44MOL   H30344249   3.053   0.264   0.008  0.9910  0.4189  0.8187
   44MOL   H30444250   2.987   0.421   0.178 -1.0258  0.6214  0.6100
   44MOL   H30544251   3.019   0.660   0.096 -1.0718  2.9036 -0.7598
   44MOL   H30644252   2.961   0.963   7.724  0.0555 -2.1064 -0.4700
   44MOL   H30744253   2.823   1.123   7.599  0.1530  0.5121  0.9504
   44MOL   N30844254   3.522   7.521   0.558 -0.5703 -0.0858  0.4559
   44MOL   C30944255   3.605   7.433   0.626 -0.0701 -0.3084  0.0517
   44MOL   C31044256   3.740   7.447   0.605  0.4298 -0.6293 -0.1676
   44MOL   C31144257   3.827   7.356   0.660 -0.2297  0.1030  0.5229
   44MOL   C31244258   3.782   7.247   0.736  0.4430  0.3988 -0.2973
   44MOL   N31344259   3.866   7.154   0.790 -0.1746  0.0533  0.3906
   44MOL   C31444260   3.995   7.133   0.759 -0.5754 -0.4025  0.4748
   44MOL   C31544261   4.029   7.046   0.654  0.1877  0.7455 -0.5500
   44MOL   C31644262   4.164   7.003   0.628  0.5626 -0.2726  0.8469
   44MOL   C31744263   4.265   7.057   0.708  0.2065  1.0664  0.5813
   44MOL   N31844264   4.391   7.011   0.690 -0.1317  0.4846 -0.4241
   44MOL   C31944265   4.503   7.092   0.692 -0.3725 -0.3485 -0.8156
   44MOL   C32044266   4.501   7.232   0.662 -0.2112 -0.1488 -0.3872
   44MOL   C32144267   4.620   7.296   0.641  0.5152 -0.4295 -0.5648
   44MOL   C32244268   4.746   7.225   0.650 -0.6984  0.1850 -0.2540
   44MOL   N32344269   4.866   7.295   0.623 -0.5492  0.6356 -0.1734
   44MOL   C32444270   4.993   7.241   0.620 -0.0081 -0.8889  0.7909
   44MOL   C32544271   5.097   7.318   0.679  0.2553 -0.0873 -0.6229
   44MOL   C32644272   5.238   7.286   0.657  0.7183  0.4451 -0.2696
   44MOL   C32744273   5.267   7.175   0.579 -0.1915 -0.0933 -0.0652
   44MOL   C32844274   5.413   7.147   0.564 -0.4631  0.3881 -0.0073
   44MOL   C32944275   5.160   7.099   0.517 -0.1955 -0.1911 -0.1749
   44MOL   C33044276   5.029   7.137   0.532  0.2366  0.5754  0.6481
   44MOL   C33144277   4.750   7.084   0.677  1.0027  0.4977  0.0953
   44MOL   C33244278   4.625   7.024   0.704  0.1598  0.6977  0.1945
   44MOL   C33344279   4.235   7.145   0.817 -0.2881 -0.2086 -0.1433
   44MOL   C33444280   4.101   7.194   0.835 -0.0063  0.0745 -0.4156
   44MOL   C33544281   3.643   7.227   0.751 -0.6141  0.8389 -0.0538
   44MOL   C33644282   3.555   7.325   0.697 -0.2821  0.4601  0.2023
   44MOL   H33744283   3.569   7.572   0.484 -1.3875  1.9541  1.2773
   44MOL   H33844284   3.785   7.537   0.564 -0.0451 -0.1344  0.3771
   44MOL   H33944285   3.932   7.373   0.642 -0.1477  2.0847  2.6244
   44MOL   H34044286   3.835   7.095   0.867 -0.2601 -0.5607 -0.1153
   44MOL   H34144287   3.949   6.994   0.603 -2.0964 -0.3270  3.8570
   44MOL   H34244288   4.190   6.938   0.546  0.9225 -0.9086  1.4640
   44MOL   H34344289   4.417   6.919   0.658  1.7600  0.8094  0.1131
   44MOL   H34444290   4.408   7.285   0.647 -0.6979 -0.4442  1.4223
   44MOL   H34544291   4.628   7.399   0.609  1.2603 -0.0993  0.6457
   44MOL   H34644292   4.844   7.392   0.610 -3.4738  0.0725  0.1664
   44MOL   H34744293   5.061   7.405   0.731  2.6137 -0.3656  1.5716
   44MOL   H34844294   5.317   7.337   0.710  1.0665  1.9890 -2.2153
   44MOL   H34944295   5.462   7.120   0.658  0.4161 -0.9522 -0.8297
   44MOL   H35044296   5.452   7.243   0.531  1.2329  0.3004  1.6465
   44MOL   H35144297   5.199   7.023   0.452 -0.7154  0.7952 -1.6680
   44MOL   H35244298   4.957   7.079   0.476  1.3698  1.1041 -1.3998
   44MOL   H35344299   4.830   7.012   0.683  0.5348  0.0174  0.7087
   44MOL   H35444300   4.629   6.917   0.721 -1.9487  0.4068 -1.0626
   44MOL   H35544301   4.315   7.177   0.882  0.8589  1.7102 -2.3854
   44MOL   H35644302   4.081   7.269   0.911  0.9542 -0.9835  0.9015
   44MOL   H35744303   3.605   7.146   0.810  3.0626  1.9724  4.1061
   44MOL   H35844304   3.449   7.304   0.700 -0.6827  2.4885  1.1306
   44MOL   N35944305   5.441   7.057   0.455 -0.3825 -0.3149  0.3745
   44MOL   C36044306   5.462   6.920   0.487  0.5423  0.0422 -0.0851
   44MOL   C36144307   5.574   6.849   0.437 -0.2436 -1.1336 -0.3733
   44MOL   C36244308   5.597   6.719   0.455  0.0447  0.5833 -0.4694
   44MOL   C36344309   5.500   6.649   0.532 -0.4513  0.0756  0.4639
   44MOL   N36444310   5.529   6.518   0.561 -0.0081  0.3387 -0.6749
   44MOL   C36544311   5.576   6.476   0.683 -0.1454 -0.2942  0.5862
   44MOL   C36644312   5.604   6.341   0.706  0.1432 -0.3135 -0.2222
   44MOL   C36744313   5.649   6.295   0.828  0.3341 -0.1558  0.0143
   44MOL   C36844314   5.690   6.386   0.925 -0.5682  0.6785 -0.6062
   44MOL   N36944315   5.751   6.338   1.041 -0.5014 -0.2210  0.2462
   44MOL   C37044316   5.819   6.407   1.139  0.5080  0.7837  0.6884
   44MOL   C37144317   5.773   6.415   1.271 -0.0917  0.0039 -0.4238
   44MOL   C37244318   5.834   6.504   1.359  0.2740 -0.0393  0.2971
   44MOL   C37344319   5.957   6.557   1.321 -0.2632  0.8241 -0.0075
   44MOL   N37444320   6.020   6.647   1.413 -0.4436  0.8614  0.3943
   44MOL   C37544321   6.056   6.777   1.391  0.0326  0.1671  0.0854
   44MOL   C37644322   6.157   6.816   1.301 -0.1856  0.4240 -0.6514
   44MOL   C37744323   6.195   6.953   1.286  0.6569  0.1262 -0.5061
   44MOL   C37844324   6.127   7.050   1.366 -0.3949  0.4665 -0.8381
   44MOL   C37944325   6.151   7.197   1.353 -0.2431 -0.0056  0.5344
   44MOL   C38044326   6.025   7.010   1.453  0.2743  0.8395 -0.2412
   44MOL   C38144327   5.986   6.873   1.461  0.2740 -0.7539  0.3317
   44MOL   C38244328   6.014   6.536   1.200  0.0160 -0.1580 -0.2703
   44MOL   C38344329   5.940   6.465   1.099  0.6644  0.0875 -0.6895
   44MOL   C38444330   5.662   6.527   0.903 -0.0706 -0.1211 -0.1381
   44MOL   C38544331   5.602   6.568   0.786  0.1047 -0.1830 -0.1168
   44MOL   C38644332   5.386   6.710   0.585 -0.1554 -0.2651  0.6189
   44MOL   C38744333   5.378   6.845   0.569  0.4448 -0.2958 -0.8543
   44MOL   H38844334   5.501   7.106   0.390 -2.3080  1.8609  0.1739
   44MOL   H38944335   5.641   6.915   0.384 -0.0426 -0.9996  0.0407
   44MOL   H39044336   5.684   6.672   0.413  0.8333  1.3743  0.2628
   44MOL   H39144337   5.585   6.479   0.486  1.3512  2.5639 -0.8807
   44MOL   H39244338   5.584   6.269   0.629  0.6791 -1.9165  1.1012
   44MOL   H39344339   5.656   6.187   0.833  1.6858 -0.0681  0.1044
   44MOL   H39444340   5.711   6.255   1.083  1.4270 -1.4105 -0.2232
   44MOL   H39544341   5.684   6.357   1.295  0.4916 -0.5700  0.4057
   44MOL   H39644342   5.798   6.525   1.458  1.3956  1.1534  0.4687
   44MOL   H39744343   5.994   6.629   1.509 -0.2053 -0.0271  0.2917
   44MOL   H39844344   6.207   6.740   1.242 -2.8819 -1.0747 -1.0942
   44MOL   H39944345   6.272   6.980   1.215  1.3056 -2.3790 -0.8199
   44MOL   H40044346   6.063   7.250   1.391 -1.7362 -0.9208 -1.5946
   44MOL   H40144347   6.154   7.220   1.247 -1.8191  0.6215  0.6050
   44MOL   H40244348   5.969   7.079   1.514  0.7732  0.6725  0.4039
   44MOL   H40344349   5.899   6.845   1.518 -2.0672 -0.0024 -2.7512
   44MOL   H40444350   6.110   6.576   1.173 -0.2308  1.3994  1.0567
   44MOL   H40544351   5.990   6.453   1.004  1.2951  1.5788 -0.5611
   44MOL   H40644352   5.687   6.603   0.975  2.1863  0.2632 -1.2967
   44MOL   H40744353   5.588   6.674   0.772 -1.0109 -0.4299 -0.9259
   44MOL   H40844354   5.309   6.651   0.633 -0.0071 -1.8463 -1.0374
   44MOL   H40944355   5.282   6.879   0.606  0.1340 -1.2820 -0.7567
   44MOL   N41044356   6.273   7.252   1.409  0.0263 -0.1096  0.8990
   44MOL   C41144357   6.287   7.388   1.449  0.0993  0.3197  0.6724
   44MOL   C41244358   6.407   7.427   1.510  0.0598  0.1289 -0.4896
   44MOL   C41344359   6.426   7.564   1.539  0.3165 -0.7175 -0.1829
   44MOL   C41444360   6.336   7.658   1.496  0.2537  0.3329 -1.1162
   44MOL   N41544361   6.365   7.798   1.535  0.2361 -0.6614 -0.8524
   44MOL   C41644362   6.288   7.917   1.542  0.2674  0.5020  0.3619
   44MOL   C41744363   6.147   7.924   1.535 -0.1482  0.4345  0.5911
   44MOL   C41844364   6.089   0.071   1.540 -0.0779 -0.0562  0.2267
   44MOL   C41944365   6.171   0.186   1.542 -0.5467 -0.5787 -0.4444
   44MOL   N42044366   6.116   0.315   1.520  0.1378  1.0037 -0.2947
   44MOL   C42144367   6.045   0.355   1.402  0.2972  0.1208 -0.2220
   44MOL   C42244368   6.029   0.269   1.295  0.0547 -0.3328 -0.3480
   44MOL   C42344369   5.954   0.318   1.182 -0.1324  0.1436 -0.2289
   44MOL   C42444370   5.894   0.445   1.185 -0.4791  0.6134 -0.5545
   44MOL   N42544371   5.824   0.491   1.069  0.1174  0.7681  0.1700
   44MOL   C42644372   5.726   0.591   1.052 -0.5464 -0.3966  0.3537
   44MOL   C42744373   5.651   0.628   1.161  0.3472  0.0102  0.3292
   44MOL   C42844374   5.555   0.725   1.149 -0.4389 -0.1591  0.0529
   44MOL   C42944375   5.534   0.792   1.029  0.2023 -0.2320  0.2074
   44MOL   C43044376   5.415   0.887   1.015  0.0190 -0.2730  0.6746
   44MOL   C43144377   5.604   0.761   0.917 -0.0332  0.0736 -0.4828
   44MOL   C43244378   5.707   0.659   0.930  0.2912 -0.2507  0.5305
   44MOL   C43344379   5.919   0.533   1.291 -0.0433  0.4366  0.2590
   44MOL   C43444380   5.986   0.479   1.406 -0.3750  0.1902  0.2491
   44MOL   C43544381   6.309   0.175   1.557  0.4030 -0.0793 -0.5726
   44MOL   C43644382   6.366   0.048   1.550  0.9039  0.3505 -0.1668
   44MOL   C43744383   6.218   7.619   1.427 -0.7523  0.1859 -0.3135
   44MOL   C43844384   6.188   7.484   1.412 -0.1140 -0.7490  0.0730
   44MOL   H43944385   6.323   7.182   1.462  1.0828 -0.3684 -0.4194
   44MOL   H44044386   6.489   7.363   1.538  0.1775  0.2988 -0.4460
   44MOL   H44144387   6.517   7.588   1.593 -0.1419  1.0179 -0.1338
   44MOL   H44244388   6.463   7.817   1.551  0.1440 -0.0586 -0.9670
   44MOL   H44344389   6.093   7.831   1.534 -3.4922  2.2690 -1.7641
   44MOL   H44444390   5.982   0.075   1.529 -0.1286  0.3964  0.8120
   44MOL   H44544391   6.165   0.390   1.566  0.0690  1.7471 -1.4059
   44MOL   H44644392   6.066   0.167   1.292 -1.4231 -1.0111  2.7165
   44MOL   H44744393   5.931   0.254   1.099  1.3789  1.0536 -1.3612
   44MOL   H44844394   5.863   0.449   0.986  0.8926  2.1884 -0.2038
   44MOL   H44944395   5.655   0.576   1.256  0.4808 -1.5035 -0.4908
   44MOL   H45044396   5.506   0.753   1.241  1.1682 -0.5218  1.0416
   44MOL   H45144397   5.330   0.827   0.982 -0.2675  0.3226  0.3330
   44MOL   H45244398   5.448   0.943   0.928  1.4674 -0.6359  0.9872
   44MOL   H45344399   5.597   0.805   0.819  1.4785  1.2961 -0.0672
   44MOL   H45444400   5.775   0.654   0.846 -0.9213 -0.3595 -0.4544
   44MOL   H45544401   5.882   0.634   1.303 -0.6091  0.0037  2.3541
   44MOL   H45644402   5.984   0.541   1.495  1.7948  2.9705 -1.5232
   44MOL   H45744403   6.373   0.261   1.567 -0.2931  0.2056  1.6561
   44MOL   H45844404   6.473   0.031   1.551  1.0752  1.3987  0.2869
   44MOL   H45944405   6.144   7.688   1.390  0.2277  1.6222  0.3430
   44MOL   H46044406   6.091   7.468   1.368  0.0267 -0.5827 -0.2995
   44MOL   N46144407   5.399   0.987   1.123  0.3720 -0.0804  0.0373
   44MOL   C46244408   5.289   0.996   1.207 -0.1443 -0.2153  0.2822
   44MOL   C46344409   5.190   0.897   1.209  0.1590  0.3287  0.4813
   44MOL   C46444410   5.063   0.924   1.267  0.0278  0.0305  0.0460
   44MOL   C46544411   5.041   1.051   1.338 -0.8553  0.5670  0.5863
   44MOL   N46644412   4.923   1.069   1.404 -0.1802  0.1771  0.1230
   44MOL   C46744413   4.796   1.080   1.354  0.1246 -0.3696 -0.0252
   44MOL   C46844414   4.686   1.094   1.445 -0.2037  0.7327  0.4330
   44MOL   C46944415   4.554   1.099   1.400 -0.0579 -0.2418 -0.3056
   44MOL   C47044416   4.523   1.099   1.258 -0.0495  0.0374 -0.0187
   44MOL   N47144417   4.391   1.110   1.208 -0.4064 -0.3814  0.9265
   44MOL   C47244418   4.357   1.137   1.074 -0.3937 -0.0522  0.3405
   44MOL   C47344419   4.416   1.244   0.995  0.1489  0.9415  0.8786
   44MOL   C47444420   4.389   1.250   0.856 -0.8327  0.2926 -0.3051
   44MOL   C47544421   4.313   1.147   0.795  0.7279 -0.0161  0.1142
   44MOL   N47644422   4.282   1.151   0.657 -0.8837 -0.4803 -0.4879
   44MOL   C47744423   4.258   1.260   0.569  0.2067 -0.5332 -0.0583
   44MOL   C47844424   4.258   1.397   0.602  0.5534  0.5356  0.3260
   44MOL   C47944425   4.211   1.494   0.506 -0.2618  0.1940 -0.2454
   44MOL   C48044426   4.184   1.458   0.369 -0.3541 -0.7316  0.3206
   44MOL   C48144427   4.129   1.559   0.265 -0.1898  0.5903  0.2762
   44MOL   C48244428   4.189   1.319   0.337 -0.5210 -0.0882 -0.0130
   44MOL   C48344429   4.213   1.224   0.438 -0.3133  0.3850  0.0595
   44MOL   C48444430   4.252   1.053   0.866 -0.2114  0.2659  0.2954
   44MOL   C48544431   4.275   1.043   1.007 -0.1635 -0.8172  0.2114
   44MOL   C48644432   4.634   1.087   1.174  0.0251  0.3481  0.7583
   44MOL   C48744433   4.767   1.073   1.219 -0.1798  0.0019  0.2961
   44MOL   C48844434   5.144   1.148   1.338 -0.1055  0.0743  0.1362
   44MOL   C48944435   5.265   1.120   1.272 -0.0738 -0.8169  0.3564
   44MOL   H49044436   5.475   1.052   1.130 -0.4023  1.1909 -2.8171
   44MOL   H49144437   5.184   0.807   1.151  0.2486  0.3308  0.4697
   44MOL   H49244438   4.992   0.843   1.263  1.0078 -0.7564 -2.1824
   44MOL   H49344439   4.930   1.089   1.502  1.3175 -1.6596  0.4321
   44MOL   H49444440   4.711   1.101   1.550 -1.1988 -0.2471  0.7435
   44MOL   H49544441   4.473   1.105   1.471  0.1390  0.7067 -0.1450
   44MOL   H49644442   4.310   1.094   1.266  0.2635  0.3351  2.0805
   44MOL   H49744443   4.476   1.324   1.037  2.7429 -0.6665  0.3479
   44MOL   H49844444   4.444   1.318   0.793 -0.0040  0.2595  0.3693
   44MOL   H49944445   4.248   1.063   0.620  1.5312 -2.9949  2.9336
   44MOL   H50044446   4.278   1.437   0.700 -1.0469  2.0698  0.0672
   44MOL   H50144447   4.209   1.598   0.536  1.4505 -0.8996  3.8688
   44MOL   H50244448   4.029   1.587   0.297 -0.3462 -0.4234  0.7018
   44MOL   H50344449   4.145   1.514   0.167  0.4855  0.7287  0.3196
   44MOL   H50444450   4.174   1.291   0.234 -0.2519  1.5676 -0.5114
   44MOL   H50544451   4.202   1.121   0.407  0.6248 -0.8043  3.4503
   44MOL   H50644452   4.203   0.969   0.820 -0.8854  2.2715 -2.8280
   44MOL   H50744453   4.232   0.967   1.071 -1.4156  0.5245  0.9939
   44MOL   H50844454   4.630   1.090   1.066 -0.8251 -0.1989  0.7624
   44MOL   H50944455   4.840   1.069   1.139  0.5811 -1.9095  1.0533
   44MOL   H51044456   5.129   1.244   1.384  1.2732  0.4990 -0.2578
   44MOL   H51144457   5.334   1.203   1.262 -1.4974  0.4113  0.5941
   44MOL   N51244458   4.188   1.690   0.256  0.6905 -0.1725 -0.4215
   44MOL   C51344459   4.325   1.703   0.202 -0.6263 -0.0397 -0.9759
   44MOL   C51444460   4.409   1.592   0.166 -0.8127  0.4684  0.2378
   44MOL   C51544461   4.537   1.611   0.113  0.0136 -0.4460 -0.4147
   44MOL   C51644462   4.595   1.736   0.097 -0.7564  0.1102  0.2117
   44MOL   N51744463   4.724   1.756   0.056 -0.3132  0.0036 -0.2255
   44MOL   C51844464   4.805   1.678   7.959  0.1741  0.0932 -0.4472
   44MOL   C51944465   4.747   1.621   7.845  0.0624 -0.5601 -0.5286
   44MOL   C52044466   4.824   1.556   7.752 -0.0687  0.6415 -0.2325
   44MOL   C52144467   4.964   1.544   7.776 -0.0316 -0.1748  0.2473
   44MOL   N52244468   5.053   1.481   7.687 -0.1825  0.5206 -0.2497
   44MOL   C52344469   5.028   1.413   7.563 -0.6570 -0.0193 -0.4475
   44MOL   C52444470   4.961   1.483   7.460 -0.5153  0.3376  0.4758
   44MOL   C52544471   4.931   1.416   7.338  0.5417  0.7546  0.9822
   44MOL   C52644472   4.979   1.285   7.319  0.5205  0.1528  0.2600
   44MOL   N52744473   4.964   1.203   7.204  0.1692  1.0926 -0.6164
   44MOL   C52844474   4.898   1.224   7.085  0.0834  0.1557 -0.0502
   44MOL   C52944475   4.824   1.114   7.040  0.0877 -0.0447 -0.0082
   44MOL   C53044476   4.761   1.123   6.915  0.3866  0.1143 -0.7719
   44MOL   C53144477   4.761   1.246   6.844 -0.2930  0.1442 -0.5421
   44MOL   C53244478   4.666   1.249   6.726 -0.7274  1.0059  0.0379
   44MOL   C53344479   4.835   1.358   6.894  0.1758 -0.0663  0.0935
   44MOL   C53444480   4.910   1.345   7.018  0.1192 -0.3436  0.1264
   44MOL   C53544481   5.042   1.219   7.425  0.1027  0.0296  0.7512
   44MOL   C53644482   5.078   1.282   7.540 -0.4337  0.7018 -0.1298
   44MOL   C53744483   5.018   1.604   7.894  0.0336  0.1636 -0.3669
   44MOL   C53844484   4.941   1.677   0.001  0.0553 -0.3767 -1.3568
   44MOL   C53944485   4.506   1.843   0.110 -0.7858  0.1650  0.4516
   44MOL   C54044486   4.374   1.829   0.167  0.1763 -0.4871 -0.1646
   44MOL   H54144487   4.154   1.761   0.319  2.6094  1.2134 -0.9092
   44MOL   H54244488   4.374   1.493   0.190  0.9255 -0.2017  0.0995
   44MOL   H54344489   4.601   1.525   0.104  0.0216 -0.2371 -2.4331
   44MOL   H54444490   4.784   1.834   0.081 -2.5902  2.0203 -0.8998
   44MOL   H54544491   4.641   1.640   7.837  0.2661  1.2392  0.7592
   44MOL   H54644492   4.771   1.505   7.673 -0.9675 -3.2017  2.7044
   44MOL   H54744493   5.143   1.457   7.725 -0.8541  0.1020  1.0976
   44MOL   H54844494   4.925   1.584   7.473  0.5311  0.6403  1.0022
   44MOL   H54944495   4.889   1.467   7.253  0.4956  1.1014  1.2146
   44MOL   H55044496   4.978   1.105   7.223  1.4941  2.0705  3.9910
   44MOL   H55144497   4.816   1.026   7.101 -1.0801 -0.7106 -1.0919
   44MOL   H55244498   4.712   1.037   6.871 -0.2683 -0.8141  1.6394
   44MOL   H55344499   4.562   1.264   6.756 -1.2523 -1.9538 -0.1241
   44MOL   H55444500   4.666   1.155   6.670 -0.2947  0.9663  0.1076
   44MOL   H55544501   4.826   1.458   6.854  0.4885  0.4112  1.1787
   44MOL   H55644502   4.960   1.434   7.053  0.8486 -0.7693  0.1602
   44MOL   H55744503   5.084   1.120   7.420  0.9977  0.3972  0.9096
   44MOL   H55844504   5.132   1.224   7.613  1.8818  0.7338 -1.7624
   44MOL   H55944505   5.124   1.612   7.914 -0.1282  2.5750 -0.2392
   44MOL   H56044506   4.985   1.719   0.090 -4.7072 -0.2116  1.0995
   44MOL   H56144507   4.547   1.939   0.079  0.4055 -0.3949  0.2747
   44MOL   H56244508   4.314   1.918   0.181  0.1020 -0.3468 -1.3830
   44MOL   N56344509   4.697   1.357   6.633 -0.2464 -0.6748 -0.6053
   44MOL   C56444510   4.774   1.322   6.518 -0.0013  0.6013  0.0896
   44MOL   C56544511   4.885   1.232   6.526  0.1154 -0.5251 -0.4360
   44MOL   C56644512   4.962   1.205   6.404  0.4120 -0.3048  0.7561
   44MOL   C56744513   4.927   1.261   6.284  0.1631 -0.7896  0.4996
   44MOL   N56844514   5.014   1.255   6.177 -0.1403 -0.5937 -0.0206
   44MOL   C56944515   5.155   1.267   6.179  0.1188  0.4365  0.1858
   44MOL   C57044516   5.225   1.217   6.068  0.2404  0.0844 -0.1897
   44MOL   C57144517   5.359   1.235   6.051  0.4307  0.2708 -0.0784
   44MOL   C57244518   5.435   1.294   6.152  0.5531  0.3551 -0.6346
   44MOL   N57344519   5.578   1.298   6.146 -0.0727 -0.8064 -0.4593
   44MOL   C57444520   5.668   1.306   6.042  0.5707  0.5463  0.3280
   44MOL   C57544521   5.803   1.257   6.055 -0.0888  0.0779  0.1147
   44MOL   C57644522   5.896   1.289   5.957  0.0214 -0.1617  0.4820
   44MOL   C57744523   5.862   1.369   5.847 -0.0200  0.6040 -0.0791
   44MOL   N57844524   5.947   1.395   5.738  0.6064  0.0135 -0.4811
   44MOL   C57944525   6.089   1.403   5.733 -0.3510  0.0186 -0.3088
   44MOL   C58044526   6.155   1.341   5.623  0.6257  0.2162 -0.1471
   44MOL   C58144527   6.294   1.355   5.599 -0.1285  0.5628  0.2622
   44MOL   C58244528   6.373   1.429   5.691 -0.2822  0.3139 -0.1530
   44MOL   C58344529   6.523   1.445   5.668  0.4759  0.1578 -0.0354
   44MOL   C58444530   6.308   1.495   5.806 -0.5575  0.7149 -1.0029
   44MOL   C58544531   6.168   1.475   5.831 -0.5569 -1.0838  0.2535
   44MOL   C58644532   5.734   1.409   5.829 -0.1137  0.0900 -0.6949
   44MOL   C58744533   5.634   1.377   5.928  0.4305 -0.3050 -0.3319
   44MOL   C58844534   5.372   1.342   6.266  0.4155 -0.2969 -0.7465
   44MOL   C58944535   5.231   1.327   6.279  0.2758 -0.2567 -0.4829
   44MOL   C59044536   4.819   1.350   6.283  0.1192  0.0559  0.4873
   44MOL   C59144537   4.740   1.374   6.393 -0.4116 -0.0520  0.2160
   44MOL   H59244538   4.630   1.432   6.637  0.7581  0.2890 -1.5370
   44MOL   H59344539   4.929   1.193   6.616 -1.1879  0.2757  0.5580
   44MOL   H59444540   5.057   1.153   6.411  0.1243 -1.0099 -0.5234
   44MOL   H59544541   4.978   1.283   6.087  2.8299 -0.6245 -1.2755
   44MOL   H59644542   5.169   1.168   5.989 -2.4412  1.2593  0.9122
   44MOL   H59744543   5.413   1.194   5.967 -1.5764 -0.7297 -0.9220
   44MOL   H59844544   5.621   1.262   6.230 -1.1787  0.3769  0.6230
   44MOL   H59944545   5.834   1.203   6.144 -1.6362  1.6810  1.6709
   44MOL   H60044546   5.993   1.244   5.973  0.7106  0.8202 -0.7929
   44MOL   H60144547   5.897   1.400   5.650 -0.2918 -0.9821 -0.0406
   44MOL   H60244548   6.098   1.276   5.558  0.4775  1.2838 -1.1078
   44MOL   H60344549   6.344   1.292   5.526 -0.5646 -0.9529  1.2594
   44MOL   H60444550   6.568   1.346   5.671  0.0705 -0.0041  0.5707
   44MOL   H60544551   6.563   1.505   5.749 -0.2731  0.0694  0.4047
   44MOL   H60644552   6.368   1.549   5.879  0.3199 -1.2222 -0.2533
   44MOL   H60744553   6.119   1.520   5.916  4.4812  0.3730  2.5701
   44MOL   H60844554   5.703   1.462   5.740 -1.3033 -0.7603 -0.8114
   44MOL   H60944555   5.536   1.422   5.923  0.1064 -1.0817 -1.0407
   44MOL   H61044556   5.436   1.389   6.339  0.1606 -2.9501  1.2705
   44MOL   H61144557   5.189   1.362   6.373  2.8587  2.1149 -0.1492
   44MOL   H61244558   4.800   1.401   6.190 -0.4184 -0.4987  0.2872
   44MOL   H61344559   4.654   1.437   6.376  0.6158  1.1953 -0.4275
   44MOL   N61444560   6.534   1.504   5.531 -0.7077 -0.2696 -0.6261
   44MOL   C61544561   6.604   1.433   5.435 -1.1155 -0.4868  0.3589
   44MOL   C61644562   6.563   1.447   5.301  0.2181  0.6194  0.4439
   44MOL   C61744563   6.642   1.387   5.199 -0.2193 -0.2135  0.2663
   44MOL   C61844564   6.758   1.323   5.226 -0.0132 -0.5444 -0.6684
   44MOL   N61944565   6.827   1.248   5.129 -0.2327 -0.2296 -0.3246
   44MOL   C62044566   6.865   1.292   5.003  0.4070  0.4186 -0.6545
   44MOL   C62144567   6.860   1.427   4.958 -1.1085  0.3087 -0.5584
   44MOL   C62244568   6.900   1.462   4.827 -0.0181 -0.2010  0.1847
   44MOL   C62344569   6.928   1.361   4.736 -0.3377  0.7153 -0.7261
   44MOL   N62444570   6.958   1.383   4.603 -0.4289  0.1669 -0.4524
   44MOL   C62544571   6.985   1.511   4.544 -0.5183  0.2489 -0.1904
   44MOL   C62644572   7.088   1.596   4.594  0.3407  0.5353  0.5419
   44MOL   C62744573   7.101   1.726   4.545 -0.7225  0.1137  0.6052
   44MOL   C62844574   7.024   1.773   4.436 -0.0640 -0.1342 -0.1408
   44MOL   N62944575   7.044   1.900   4.380 -0.4570  0.4389 -0.0614
   44MOL   C63044576   7.163   1.964   4.327  0.1500 -0.0595 -0.9565
   44MOL   C63144577   7.145   2.094   4.276 -0.5914 -0.2697  0.6483
   44MOL   C63244578   7.255   2.156   4.209 -0.0871  0.7804  0.4253
   44MOL   C63344579   7.367   2.084   4.185 -0.2395 -0.6104  0.2183
   44MOL   C63444580   7.479   2.144   4.099  0.3762  0.3060  0.2028
   44MOL   C63544581   7.389   1.955   4.237  0.1585 -0.1707 -0.0174
   44MOL   C63644582   7.287   1.889   4.309  1.2853 -0.9034  0.1266
   44MOL   C63744583   6.921   1.690   4.387  0.3967 -0.1464 -0.4285
   44MOL   C63844584   6.906   1.554   4.437  0.9874 -0.3307 -0.3288
   44MOL   C63944585   6.939   1.225   4.783 -0.1146  0.7507 -0.4150
   44MOL   C64044586   6.912   1.191   4.917 -0.1938 -0.7146 -0.5012
   44MOL   C64144587   6.800   1.309   5.360  0.0148  0.1845  0.7854
   44MOL   C64244588   6.719   1.363   5.463 -0.3321  0.0960  0.1935
   44MOL   H64344589   6.452   1.554   5.499 -0.2708  1.0394  0.2568
   44MOL   H64444590   6.477   1.509   5.280 -1.0273 -0.2339  2.8375
   44MOL   H64544591   6.602   1.382   5.099  0.6968 -0.1727 -0.1057
   44MOL   H64644592   6.861   1.158   5.160 -1.1328 -0.1056  1.0435
   44MOL   H64744593   6.836   1.511   5.021  2.3691  0.0780  1.2005
   44MOL   H64844594   6.886   1.566   4.800  0.9229  0.2683  1.4430
   44MOL   H64944595   6.898   1.328   4.543  0.5217  0.4560 -1.6735
   44MOL   H65044596   7.146   1.553   4.674 -1.8212 -2.5663  0.5128
   44MOL   H65144597   7.190   1.772   4.586 -0.3269 -1.6075  1.7369
   44MOL   H65244598   6.958   1.945   4.352 -1.0301  0.1973  1.2808
   44MOL   H65344599   7.051   2.145   4.288 -1.2419 -1.3527  0.2611
   44MOL   H65444600   7.256   2.259   4.177  0.1550  0.7814  0.4346
   44MOL   H65544601   7.468   2.097   4.001 -0.7469 -1.3686  1.1066
   44MOL   H65644602   7.579   2.130   4.139  1.1820  4.1088 -0.2964
   44MOL   H65744603   7.474   1.902   4.196  1.1491 -0.1049  1.8813
   44MOL   H65844604   7.307   1.784   4.327  1.6914 -0.6152  1.4279
   44MOL   H65944605   6.859   1.724   4.305  1.0308 -1.3057 -1.4056
   44MOL   H66044606   6.824   1.494   4.402 -0.6795  1.0520  1.1281
   44MOL   H66144607   6.969   1.139   4.723  1.1802 -1.7172  3.5732
   44MOL   H66244608   6.921   1.087   4.943  0.9635  0.0923  2.5284
   44MOL   H66344609   6.886   1.250   5.384 -0.1609 -0.2639  0.3244
   44MOL   H66444610   6.767   1.366   5.560  0.3856 -0.0614 -0.1587
   44MOL   N66544611   7.475   2.291   4.087  0.3782  0.3328  0.5072
   44MOL   C66644612   7.580   2.363   4.021  1.1798 -0.0761 -0.3401
   44MOL   C66744613   7.591   2.500   4.042 -0.0655  0.4242  0.4493
   44MOL   C66844614   7.670   2.582   3.959  0.4755  0.3221 -0.0031
   44MOL   C66944615   7.755   2.514   3.867  0.2731 -1.1060 -1.0350
   44MOL   N67044616   7.842   2.594   3.787 -0.1657 -0.5006 -0.4128
   44MOL   C67144617   7.888   2.722   3.804 -0.5498 -0.2368  0.8382
   44MOL   C67244618   7.926   2.778   3.927  0.1169 -0.1478  1.2435
   44MOL   C67344619   0.009   2.905   3.933  0.1145  0.2855 -0.2355
   44MOL   C67444620   0.046   2.976   3.819  0.7520 -1.0217 -0.5077
   44MOL   N67544621   0.104   3.107   3.825  0.0551  0.1630  0.0776
   44MOL   C67644622   0.180   3.161   3.929 -0.4331  0.4189 -0.1873
   44MOL   C67744623   0.209   3.297   3.914  0.5425  0.1080  0.3291
   44MOL   C67844624   0.294   3.358   4.018  0.7606  0.2367 -0.3395
   44MOL   C67944625   0.359   3.280   4.116  0.1811  1.0699 -0.4934
   44MOL   N68044626   0.429   3.342   4.221 -0.3655 -0.3010 -0.5402
   44MOL   C68144627   0.512   3.457   4.212 -0.4019  0.1242  0.2095
   44MOL   C68244628   0.592   3.483   4.094 -0.0822 -0.9574 -0.0121
   44MOL   C68344629   0.712   3.556   4.102 -0.5439  0.0582 -0.7862
   44MOL   C68444630   0.738   3.632   4.220 -0.4781 -0.2046 -0.0578
   44MOL   C68544631   0.863   3.722   4.228 -0.2627 -0.2666 -0.2753
   44MOL   C68644632   0.651   3.617   4.333 -0.0405  0.2158 -0.2687
   44MOL   C68744633   0.542   3.529   4.329  0.7077  0.2848  0.3434
   44MOL   C68844634   0.338   3.139   4.117 -0.1098 -0.6212 -0.3578
   44MOL   C68944635   0.248   3.085   4.027  0.0155  0.0717 -0.2437
   44MOL   C69044636   0.018   2.916   3.698 -0.6542  0.7959 -0.1934
   44MOL   C69144637   7.910   2.804   3.690  0.7848  0.3912  0.1453
   44MOL   C69244638   7.756   2.373   3.855  0.3017 -0.5912  0.2387
   44MOL   C69344639   7.664   2.301   3.928 -0.2861 -0.2043 -0.1057
   44MOL   H69444640   7.422   2.352   4.146  0.9531 -1.2505  2.7069
   44MOL   H69544641   7.517   2.542   4.108 -1.4287 -3.4217  1.4490
   44MOL   H69644642   7.661   2.688   3.976  1.3685  0.8360 -2.5315
   44MOL   H69744643   7.868   2.546   3.702  1.4280  1.0165 -0.8205
   44MOL   H69844644   7.901   2.727   4.019  4.2745 -1.0710  1.9643
   44MOL   H69944645   0.032   2.943   4.031  1.0476 -0.8793  0.0114
   44MOL   H70044646   0.105   3.158   3.738 -0.7257 -1.2052 -0.7605
   44MOL   H70144647   0.164   3.345   3.828 -0.4235 -3.2225 -1.1075
   44MOL   H70244648   0.300   3.465   4.032 -0.0971  0.3628 -0.9241
   44MOL   H70344649   0.448   3.286   4.303  0.7082  2.2168  0.9927
   44MOL   H70444650   0.572   3.417   4.011  1.6675 -2.3606  0.6193
   44MOL   H70544651   0.775   3.548   4.015  0.8895 -1.2632  0.3510
   44MOL   H70644652   0.905   3.742   4.130 -0.7419 -2.2154 -0.8964
   44MOL   H70744653   0.947   3.674   4.278  0.2975  0.7264 -0.2547
   44MOL   H70844654   0.668   3.670   4.425  1.3185  1.0097 -0.9561
   44MOL   H70944655   0.490   3.517   4.423 -1.0142  1.9034 -0.3603
   44MOL   H71044656   0.369   3.081   4.202  1.2673 -0.2714 -0.5970
   44MOL   H71144657   0.224   2.979   4.028 -1.1073  0.3225  1.6141
   44MOL   H71244658   0.036   2.952   3.598  0.6479 -0.2549 -0.3534
   44MOL   H71344659   7.882   2.764   3.593 -1.0899  1.0579  0.4011
   44MOL   H71444660   7.828   2.327   3.789 -0.1306 -0.5413 -0.2749
   44MOL   H71544661   7.669   2.194   3.918  3.1077 -0.0566 -0.5344
   44MOL   N71644662   0.839   3.850   4.282 -0.4374 -0.1250  0.5012
   44MOL   C71744663   0.944   3.930   4.329 -0.6329 -0.1663  0.1302
   44MOL   C71844664   1.066   3.928   4.267  0.2689  0.0813 -0.3850
   44MOL   C71944665   1.171   4.005   4.319 -0.1828 -0.8232 -0.1843
   44MOL   C72044666   1.153   4.074   4.442  0.3661  0.5162 -0.2141
   44MOL   N72144667   1.266   4.131   4.505  0.2982  0.8218  0.4084
   44MOL   C72244668   1.274   4.158   4.639  0.3615  0.6673 -0.2705
   44MOL   C72344669   1.353   4.079   4.720  0.2026  0.3684 -0.8255
   44MOL   C72444670   1.388   4.115   4.851  0.3004  0.7132 -0.1842
   44MOL   C72544671   1.317   4.224   4.917 -0.5492  0.3336 -0.1293
   44MOL   N72644672   1.326   4.245   5.054 -0.1328 -0.4989 -0.6989
   44MOL   C72744673   1.355   4.151   5.155 -0.0583  0.2310  0.1262
   44MOL   C72844674   1.335   4.015   5.142  0.1698 -0.5735 -0.1560
   44MOL   C72944675   1.374   3.928   5.242 -0.4963  0.5269  0.0850
   44MOL   C73044676   1.430   3.970   5.364  0.2496  0.7084 -0.5638
   44MOL   N73144677   1.464   3.879   5.466  0.3115  0.2908  0.0713
   44MOL   C73244678   1.464   3.901   5.602 -0.2400 -0.2330  0.1884
   44MOL   C73344679   1.555   3.837   5.690 -0.1251  0.0576  0.4701
   44MOL   C73444680   1.550   3.851   5.831  0.2513  0.4278  0.1032
   44MOL   C73544681   1.445   3.929   5.892  0.5501  1.3777 -0.0026
   44MOL   C73644682   1.434   3.927   6.042  1.0338 -0.5583 -0.2141
   44MOL   C73744683   1.367   4.007   5.803 -0.4558 -0.3343  0.9785
   44MOL   C73844684   1.368   3.991   5.664  0.7293  0.7247  1.0404
   44MOL   C73944685   1.456   4.110   5.379  0.9824 -0.1347  0.5782
   44MOL   C74044686   1.412   4.200   5.276 -0.7631 -0.1400  0.4947
   44MOL   C74144687   1.239   4.305   4.831 -0.0563 -0.1641 -0.0384
   44MOL   C74244688   1.223   4.273   4.693  0.5293 -0.9852 -0.6975
   44MOL   C74344689   1.031   4.074   4.516  0.7145  0.1682  0.1217
   44MOL   C74444690   0.927   4.008   4.446  0.1136 -0.2776  0.2830
   44MOL   H74544691   0.743   3.863   4.311 -0.7698 -1.0324 -0.1795
   44MOL   H74644692   1.081   3.871   4.177 -0.3471  0.8379 -0.9780
   44MOL   H74744693   1.273   4.009   4.282 -0.0589  1.4907  0.3012
   44MOL   H74844694   1.353   4.128   4.454  0.6757 -0.5283  1.1085
   44MOL   H74944695   1.399   3.987   4.686 -0.4507 -0.5178  0.6313
   44MOL   H75044696   1.466   4.061   4.902  0.8959  0.2651 -1.5367
   44MOL   H75144697   1.300   4.339   5.080 -0.4646 -1.0234  0.9086
   44MOL   H75244698   1.290   3.977   5.051 -1.4049 -1.6451  1.0645
   44MOL   H75344699   1.361   3.821   5.234 -0.6744  0.6235 -0.9800
   44MOL   H75444700   1.503   3.789   5.442 -0.5583 -0.4313  1.3131
   44MOL   H75544701   1.633   3.785   5.635 -0.9807 -0.9620  0.1805
   44MOL   H75644702   1.626   3.805   5.893 -0.7258  0.8446  1.6496
   44MOL   H75744703   1.339   3.973   6.072  1.0653 -0.0243 -0.9083
   44MOL   H75844704   1.515   3.988   6.082  0.0188  0.6285  0.0884
   44MOL   H75944705   1.285   4.072   5.832 -0.3564  0.7372 -1.0178
   44MOL   H76044706   1.297   4.040   5.599 -0.4201 -1.6200  0.4799
   44MOL   H76144707   1.489   4.155   5.472 -2.2706  1.8658  0.8634
   44MOL   H76244708   1.433   4.306   5.286 -0.9678 -0.1852  1.5238
   44MOL   H76344709   1.185   4.390   4.870  2.3962  0.1535  2.8609
   44MOL   H76444710   1.163   4.340   4.633  0.4312 -1.1741 -0.8108
   44MOL   H76544711   1.010   4.114   4.614 -1.1586  1.3992 -0.7545
   44MOL   H76644712   0.832   4.000   4.497  0.8187  0.3366  1.7465
   44MOL   N76744713   1.415   3.793   6.098  0.1920 -0.5435 -0.3035
   44MOL   C76844714   1.494   3.753   6.211 -0.6148  0.6704  0.3532
   44MOL   C76944715   1.543   3.622   6.215  0.3452  0.4999  0.4590
   44MOL   C77044716   1.622   3.583   6.323  0.0096 -0.2733  0.0578
   44MOL   C77144717   1.643   3.676   6.429  0.6218 -0.1304 -0.0488
   44MOL   N77244718   1.712   3.620   6.537 -0.2323 -0.5558  0.2853
   44MOL   C77344719   1.673   3.631   6.676 -0.4768 -0.1054  0.7167
   44MOL   C77444720   1.767   3.580   6.769 -0.4043 -0.8575  0.0179
   44MOL   C77544721   1.741   3.572   6.904  0.3582  0.4960  0.7402
   44MOL   C77644722   1.612   3.608   6.950  0.0668  0.7614  0.2390
   44MOL   N77744723   1.573   3.580   7.081  0.1619  0.0952 -0.1926
   44MOL   C77844724   1.440   3.552   7.125  0.1740  0.0293  0.1054
   44MOL   C77944725   1.398   3.589   7.256  0.9553  0.1184  0.7598
   44MOL   C78044726   1.273   3.554   7.305 -0.1410  0.2727 -0.6849
   44MOL   C78144727   1.187   3.481   7.222  0.3111 -0.1851  0.7083
   44MOL   N78244728   1.069   3.440   7.286  0.0617 -0.6545  0.1112
   44MOL   C78344729   0.950   3.395   7.224 -0.2727 -0.1061  0.6060
   44MOL   C78444730   0.895   3.468   7.119  0.2058  0.1867  0.2764
   44MOL   C78544731   0.768   3.425   7.070  0.2417 -0.8345 -0.3260
   44MOL   C78644732   0.700   3.319   7.126 -0.3491 -0.3338 -0.2234
   44MOL   C78744733   0.558   3.289   7.094 -0.1684  0.4301 -0.3606
   44MOL   C78844734   0.757   3.247   7.234 -0.0383  0.5155 -0.0529
   44MOL   C78944735   0.882   3.288   7.282 -0.2371  0.7221  0.2369
   44MOL   C79044736   1.226   3.439   7.092  0.3157 -0.0463  0.2338
   44MOL   C79144737   1.350   3.482   7.043  0.1253 -0.1601  0.0717
   44MOL   C79244738   1.522   3.661   6.854 -0.0478  0.0976  0.2070
   44MOL   C79344739   1.550   3.670   6.721 -0.1364 -0.3290  0.3189
   44MOL   C79444740   1.604   3.810   6.415  1.0270  0.3318 -0.7382
   44MOL   C79544741   1.528   3.844   6.306 -0.4854 -0.9421 -0.1363
   44MOL   H79644742   1.389   3.725   6.029  2.8488 -0.1566 -1.7302
   44MOL   H79744743   1.532   3.548   6.137  2.2712 -0.1718  0.8007
   44MOL   H79844744   1.648   3.478   6.325 -2.4803 -0.9085  0.2863
   44MOL   H79944745   1.776   3.547   6.512  0.3528 -0.2315  0.8245
   44MOL   H80044746   1.866   3.551   6.737  0.5908 -1.5084  3.4043
   44MOL   H80144747   1.818   3.541   6.973  0.4527  0.1417  0.4721
   44MOL   H80244748   1.641   3.555   7.151  2.5000 -1.6571 -2.9780
   44MOL   H80344749   1.471   3.628   7.325  1.6450 -0.0087  0.1172
   44MOL   H80444750   1.245   3.589   7.404  0.2257  2.6462 -1.4052
   44MOL   H80544751   1.075   3.424   7.385 -1.2716 -1.7192  0.0420
   44MOL   H80644752   0.947   3.557   7.088  2.1205 -0.7454  0.7581
   44MOL   H80744753   0.715   3.483   6.995  2.4974 -0.8134 -1.9553
   44MOL   H80844754   0.527   3.355   7.013 -0.5555  0.1741 -0.4249
   44MOL   H80944755   0.500   3.321   7.180 -1.5737 -0.8515 -0.8044
   44MOL   H81044756   0.700   3.167   7.280 -2.5051  1.3029 -1.6425
   44MOL   H81144757   0.928   3.231   7.361  0.2981 -1.5876 -1.7058
   44MOL   H81244758   1.167   3.381   7.023 -1.2587 -1.4455  2.6974
   44MOL   H81344759   1.370   3.450   6.942  2.2402  0.2910  0.3310
   44MOL   H81444760   1.424   3.696   6.881  0.1325  0.1764  0.7792
   44MOL   H81544761   1.477   3.712   6.653 -0.2784  2.4347  2.1110
   44MOL   H81644762   1.626   3.886   6.488  2.0452  0.4087 -1.1172
   44MOL   H81744763   1.501   3.948   6.293  1.5371 -0.2260  1.1243
   44MOL   N81844764   0.539   3.149   7.064 -0.1933  0.1790  0.3532
   44MOL   C81944765   0.427   3.105   7.002 -0.2161 -0.0617 -0.0478
   44MOL   C82044766   0.427   2.973   6.962 -0.3316 -1.0611  0.0427
   44MOL   C82144767   0.317   2.919   6.892 -0.7109  0.0811 -0.1285
   44MOL   C82244768   0.201   2.994   6.867 -0.5575  0.4529 -0.9449
   44MOL   N82344769   0.092   2.943   6.800  0.6035  0.2508  0.7854
   44MOL   C82444770   0.092   2.945   6.655 -0.6161 -0.2290  0.4157
   44MOL   C82544771   7.971   3.016   6.590 -0.6234  0.5824 -0.1957
   44MOL   C82644772   7.980   3.023   6.452 -0.3892  0.4766  0.1692
   44MOL   C82744773   0.110   2.964   6.387 -0.8332 -0.2966  0.2923
   44MOL   N82844774   0.120   2.995   6.247  0.1759  0.3058 -0.2274
   44MOL   C82944775   0.234   3.012   6.168 -0.1797 -0.2989 -0.2040
   44MOL   C83044776   0.229   2.977   6.034 -0.2664  0.4560  0.1090
   44MOL   C83144777   0.343   3.010   5.951  0.4471  0.1759  0.0425
   44MOL   C83244778   0.458   3.061   6.006  0.5738 -0.3966 -0.4128
   44MOL   N83344779   0.576   3.091   5.934 -0.1120  0.1880 -0.3535
   44MOL   C83444780   0.603   3.194   5.844  0.2098  0.3642  0.6995
   44MOL   C83544781   0.501   3.291   5.813 -0.0672  0.7163  0.7087
   44MOL   C83644782   0.534   3.405   5.744  0.3361 -0.5742  0.1398
   44MOL   C83744783   0.665   3.412   5.691  0.5891  0.5708 -0.4888
   44MOL   C83844784   0.714   3.533   5.614  0.2446 -0.4512 -0.2225
   44MOL   C83944785   0.754   3.310   5.701  0.9587  0.7514 -0.4601
   44MOL   C84044786   0.732   3.207   5.790 -0.1600 -0.3580  0.8249
   44MOL   C84144787   0.468   3.090   6.141  0.3520 -0.3472  0.1037
   44MOL   C84244788   0.355   3.063   6.219 -0.7224  0.4929 -0.5826
   44MOL   C84344789   0.219   2.900   6.455  0.3885 -0.3299 -0.1274
   44MOL   C84444790   0.201   2.880   6.591  0.3432  0.0042  0.8046
   44MOL   C84544791   0.196   3.126   6.920 -0.1182  0.5641  0.3350
   44MOL   C84644792   0.309   3.185   6.981  0.2448 -0.0649  0.3569
   44MOL   H84744793   0.619   3.088   7.067 -0.1121  0.2571 -0.1788
   44MOL   H84844794   0.517   2.913   6.972  1.6738  1.7606 -0.3867
   44MOL   H84944795   0.324   2.813   6.870  1.5220  0.3535 -0.8449
   44MOL   H85044796   0.004   2.970   6.842 -0.5281  2.9157 -3.0666
   44MOL   H85144797   7.882   3.063   6.630 -0.0786 -0.2448  2.0584
   44MOL   H85244798   7.918   3.088   6.392  0.4263  0.9488 -0.1746
   44MOL   H85344799   0.034   2.984   6.195  1.0967 -1.8875 -1.3364
   44MOL   H85444800   0.140   2.950   5.980 -0.7014 -1.1187  1.5565
   44MOL   H85544801   0.338   2.984   5.846 -2.8953  1.1502 -0.1173
   44MOL   H85644802   0.658   3.043   5.967 -0.5767 -0.0552  0.4452
   44MOL   H85744803   0.403   3.289   5.859  0.7934 -0.3000  2.5333
   44MOL   H85844804   0.469   3.490   5.734  1.7737  0.5127 -0.0560
   44MOL   H85944805   0.692   3.527   5.507 -0.2934  0.9395 -0.2089
   44MOL   H86044806   0.822   3.526   5.626  0.3241 -1.0155 -1.1752
   44MOL   H86144807   0.855   3.308   5.662  0.9741  1.0379 -0.4321
   44MOL   H86244808   0.805   3.130   5.811  0.3694 -0.8148 -2.4865
   44MOL   H86344809   0.556   3.138   6.181  2.3304 -1.6757 -2.4749
   44MOL   H86444810   0.373   3.083   6.323 -0.6128 -2.4176 -0.0002
   44MOL   H86544811   0.305   2.863   6.401  0.2095  2.1198 -2.1802
   44MOL   H86644812   0.282   2.831   6.642  1.2406 -1.4819 -1.9439
   44MOL   H86744813   0.105   3.183   6.916  0.2265  1.1928  1.3021
   44MOL   H86844814   0.312   3.285   7.023 -0.6084 -0.3757  1.1506
   44MOL   N86944815   0.658   3.658   5.661 -0.6011  0.3814  0.2946
   44MOL   C87044816   0.750   3.763   5.669 -0.0013  0.4266 -0.4041
   44MOL   C87144817   0.792   3.825   5.550 -0.9080 -0.7605  0.2506
   44MOL   C87244818   0.885   3.931   5.541 -0.3471 -0.5815 -0.2531
   44MOL   C87344819   0.945   3.973   5.660 -0.2009  0.0529 -0.1173
   44MOL   N87444820   1.022   4.087   5.669 -0.3364 -0.3663  0.2912
   44MOL   C87544821   1.091   4.174   5.583 -0.5747 -0.1068  0.2329
   44MOL   C87644822   1.162   4.278   5.652 -0.1919  0.4510 -0.2467
   44MOL   C87744823   1.227   4.380   5.585  0.2693  0.0729  0.6140
   44MOL   C87844824   1.204   4.397   5.444 -0.3173  0.2622 -0.8447
   44MOL   N87944825   1.255   4.502   5.366  1.1203 -0.4928 -0.1374
   44MOL   C88044826   1.200   4.566   5.253  0.1716  0.4166 -0.4739
   44MOL   C88144827   1.286   4.605   5.151  0.4751  0.0489 -0.3995
   44MOL   C88244828   1.249   4.641   5.022  0.1576  0.1724  0.6106
   44MOL   C88344829   1.110   4.646   4.997  0.8088  0.1073  1.0238
   44MOL   N88444830   1.056   4.686   4.874  0.4363  0.0047 -0.1297
   44MOL   C88544831   0.967   4.606   4.813 -0.4433  0.3558 -0.1109
   44MOL   C88644832   0.936   4.472   4.850  0.2892  0.4677  0.3721
   44MOL   C88744833   0.855   4.393   4.766 -0.0893 -0.1924 -0.2627
   44MOL   C88844834   0.801   4.443   4.650 -0.7823 -0.2330  0.1878
   44MOL   C88944835   0.742   4.361   4.535 -0.0181 -0.4145 -0.4542
   44MOL   C89044836   0.814   4.581   4.619 -0.7565 -0.0608  0.9472
   44MOL   C89144837   0.901   4.654   4.697 -0.1321  0.0615  0.4304
   44MOL   C89244838   1.019   4.618   5.107 -0.3039  0.4199 -0.2753
   44MOL   C89344839   1.063   4.576   5.234 -1.2602  0.0635 -0.1181
   44MOL   C89444840   1.131   4.292   5.374 -0.2436 -0.0608  0.1306
   44MOL   C89544841   1.077   4.188   5.445  0.0182 -0.7044  0.5498
   44MOL   C89644842   0.909   3.906   5.779  0.5427  0.2603 -0.8269
   44MOL   C89744843   0.816   3.802   5.786  0.3181 -0.2656  0.2664
   44MOL   H89844844   0.575   3.681   5.607  0.1674 -0.9539 -1.4938
   44MOL   H89944845   0.760   3.781   5.457 -2.8584 -1.5377  1.2622
   44MOL   H90044846   0.908   3.974   5.445  1.8015  0.2816  0.6048
   44MOL   H90144847   1.049   4.109   5.764 -0.8589 -0.4364  0.4570
   44MOL   H90244848   1.166   4.286   5.759 -2.7933  2.9911 -0.2525
   44MOL   H90344849   1.281   4.460   5.633 -1.3595  0.9561  1.0274
   44MOL   H90444850   1.350   4.535   5.380  0.1725  1.5111  1.8459
   44MOL   H90544851   1.388   4.594   5.185 -0.2213 -0.8747  1.4215
   44MOL   H90644852   1.328   4.663   4.953 -1.6811  1.6828 -1.0794
   44MOL   H90744853   1.049   4.782   4.845  1.2722 -0.3656 -1.6168
   44MOL   H90844854   0.983   4.427   4.936 -2.1811  0.2374  1.6423
   44MOL   H90944855   0.829   4.293   4.798  0.6350 -0.4523 -0.4833
   44MOL   H91044856   0.827   4.339   4.470  0.5851  1.6737 -0.4271
   44MOL   H91144857   0.670   4.422   4.480  1.4795  1.2596 -0.5948
   44MOL   H91244858   0.764   4.622   4.532 -1.1176  0.8829  1.5904
   44MOL   H91344859   0.921   4.752   4.656 -2.0834 -0.2998 -1.4745
   44MOL   H91444860   0.915   4.624   5.080  0.0857 -0.5054 -2.1163
   44MOL   H91544861   0.993   4.551   5.313 -1.5222  1.1572  0.0081
   44MOL   H91644862   1.115   4.300   5.267  0.5423  0.2036  0.0243
   44MOL   H91744863   1.003   4.132   5.391  0.1244  1.3823 -1.8032
   44MOL   H91844864   0.961   3.925   5.872  1.0003 -0.1927 -0.9878
   44MOL   H91944865   0.776   3.759   5.877 -1.2535  0.8038  0.0848
   44MOL   N92044866   0.669   4.245   4.578  0.5912 -1.0104 -0.1999
   44MOL   C92144867   0.608   4.158   4.489 -0.5192 -0.6394 -1.5495
   44MOL   C92244868   0.538   4.046   4.538 -0.4798 -0.1636 -0.0392
   44MOL   C92344869   0.477   3.957   4.450 -0.6128  0.4122  0.2960
   44MOL   C92444870   0.485   3.970   4.311 -0.2036  0.2780 -0.0637
   44MOL   N92544871   0.435   3.869   4.232  0.2924 -0.2065 -0.0657
   44MOL   C92644872   0.474   3.834   4.102 -0.0331 -0.2019  0.0113
   44MOL   C92744873   0.383   3.748   4.040  0.0759  0.0610  1.0297
   44MOL   C92844874   0.415   3.689   3.924  0.2959  0.8128 -0.0966
   44MOL   C92944875   0.535   3.707   3.858 -0.2977 -1.4994 -0.7745
   44MOL   N93044876   0.574   3.642   3.742  0.7329  0.5850  0.3510
   44MOL   C93144877   0.504   3.542   3.674  0.6378 -0.1900 -0.0592
   44MOL   C93244878   0.570   3.418   3.653 -0.0199 -0.0730 -0.2546
   44MOL   C93344879   0.502   3.318   3.582  0.1854  0.4023  0.5407
   44MOL   C93444880   0.367   3.331   3.549 -0.0260  0.6851  0.2295
   44MOL   N93544881   0.303   3.220   3.487 -0.1682 -0.7613 -0.2966
   44MOL   C93644882   0.168   3.192   3.457 -0.3748 -0.0565  0.3441
   44MOL   C93744883   0.141   3.082   3.373  0.1548 -0.3371 -0.5074
   44MOL   C93844884   0.010   3.049   3.341 -0.2329 -0.1145 -0.2994
   44MOL   C93944885   7.889   3.122   3.395 -0.1046  0.1892 -0.5359
   44MOL   C94044886   7.748   3.115   3.345 -0.5892  0.1027  0.6257
   44MOL   C94144887   7.912   3.222   3.493  0.1687 -0.4297  0.1854
   44MOL   C94244888   0.059   3.253   3.529 -0.5498  0.9539  0.2986
   44MOL   C94344889   0.312   3.460   3.557  0.0924  0.4672  0.2894
   44MOL   C94444890   0.370   3.561   3.622  0.5236 -0.0385  0.3536
   44MOL   C94544891   0.628   3.796   3.923  0.1095  0.3998  0.0988
   44MOL   C94644892   0.598   3.863   4.047 -0.7117  0.5752  0.0650
   44MOL   C94744893   0.554   4.088   4.267 -1.2308  0.8906  0.0590
   44MOL   C94844894   0.599   4.188   4.354  0.2564 -0.5044  0.3132
   44MOL   H94944895   0.653   4.232   4.677 -1.9724  2.1115 -0.1408
   44MOL   H95044896   0.537   4.027   4.644 -0.3532  2.0842  0.3901
   44MOL   H95144897   0.416   3.880   4.494  1.0472  0.1198  2.0898
   44MOL   H95244898   0.366   3.810   4.277  0.7893  1.6844  3.3848
   44MOL   H95344899   0.284   3.731   4.082  0.4022 -1.1717  1.3222
   44MOL   H95444900   0.344   3.621   3.881  0.8178  0.0547  0.2332
   44MOL   H95544901   0.672   3.619   3.749  0.3197 -1.0089  1.1538
   44MOL   H95644902   0.676   3.404   3.671 -0.4152 -1.0889  1.4625
   44MOL   H95744903   0.561   3.231   3.556  1.7725  1.5300  0.2418
   44MOL   H95844904   0.363   3.141   3.466  1.1965  0.5317 -1.4164
   44MOL   H95944905   0.223   3.034   3.323 -0.6945 -1.4344 -0.8754
   44MOL   H96044906   7.975   2.973   3.267  0.0466  0.4076 -0.9079
   44MOL   H96144907   7.677   3.129   3.426 -0.2600  0.5236  0.8400
   44MOL   H96244908   7.718   3.012   3.322 -1.9215 -0.5166  4.7034
   44MOL   H96344909   7.829   3.283   3.526  0.9850  0.9315 -0.2600
   44MOL   H96444910   0.063   3.331   3.604  1.0229  0.5084  0.6949
   44MOL   H96544911   0.218   3.468   3.504  0.4885 -0.3725 -0.5517
   44MOL   H96644912   0.323   3.658   3.631 -1.4389 -0.9078 -0.4982
   44MOL   H96744913   0.722   3.833   3.885  0.4620  0.4680  1.0475
   44MOL   H96844914   0.675   3.923   4.092 -0.3880  0.3539 -0.1902
   44MOL   H96944915   0.560   4.101   4.160  0.3473 -0.2037  0.0045
   44MOL   H97044916   0.639   4.280   4.314 -3.4080  0.9200 -0.2662
   44MOL   N97144917   7.730   3.185   3.218  0.3500 -0.1231  0.3294
   44MOL   C97244918   7.742   3.323   3.236  0.1289  0.0469 -0.8171
   44MOL   C97344919   7.651   3.388   3.317  0.2080 -0.1762  0.3164
   44MOL   C97444920   7.674   3.522   3.355 -0.6251 -0.0351 -0.3799
   44MOL   C97544921   7.797   3.585   3.321 -0.3003  0.0698 -0.7558
   44MOL   N97644922   7.819   3.721   3.361 -0.6504 -0.9940 -0.0453
   44MOL   C97744923   7.863   3.756   3.488  0.5025 -0.0294 -0.3929
   44MOL   C97844924   7.814   3.873   3.552  0.1471 -0.0092  0.1580
   44MOL   C97944925   7.863   3.906   3.675  0.6169 -0.6700 -0.1692
   44MOL   C98044926   7.964   3.833   3.740  0.2031 -0.2198  1.0434
   44MOL   N98144927   0.052   3.882   3.848 -0.5813 -0.5841  0.1545
   44MOL   C98244928   0.116   4.007   3.857 -0.1858  0.2806 -0.7637
   44MOL   C98344929   0.179   4.026   3.981  0.2563 -0.1524 -0.1966
   44MOL   C98444930   0.252   4.142   4.013  0.7244  0.1714 -0.1775
   44MOL   C98544931   0.270   4.237   3.912  0.1808 -0.3865 -0.1104
   44MOL   N98644932   0.359   4.342   3.927  0.5875  0.3495 -0.1892
   44MOL   C98744933   0.392   4.415   4.044 -0.0481 -0.1706  0.4443
   44MOL   C98844934   0.512   4.486   4.043 -0.3684 -0.1229 -0.1593
   44MOL   C98944935   0.548   4.563   4.153 -0.4449 -0.8551  0.0782
   44MOL   C99044936   0.467   4.564   4.267 -0.1274  0.5406 -0.4163
   44MOL   C99144937   0.509   4.650   4.390 -0.2421 -0.2801  0.4146
   44MOL   C99244938   0.352   4.479   4.272  0.0055  0.2359 -0.2855
   44MOL   C99344939   0.312   4.410   4.158  0.0595 -0.6947  0.2959
   44MOL   C99444940   0.196   4.224   3.784  0.2290  0.1537  0.3708
   44MOL   C99544941   0.125   4.103   3.759 -0.2099 -0.8924  0.1408
   44MOL   C99644942   0.028   3.716   3.678 -0.6150  0.4914  0.4684
   44MOL   C99744943   7.964   3.677   3.554  0.4610 -0.0707 -0.4424
   44MOL   C99844944   7.890   3.514   3.236 -0.4414  0.2350  0.2312
   44MOL   C99944945   7.863   3.384   3.194  0.0354  0.6030 -0.6248
   44MOL     H144946   7.792   3.143   3.151 -1.1175 -1.5387 -0.1687
   44MOL     H244947   7.563   3.337   3.354 -0.8961  1.1301 -0.4574
   44MOL     H344948   7.606   3.568   3.425 -0.5253  0.5378 -0.6504
   44MOL     H444949   7.757   3.792   3.325 -0.3190 -1.0148 -0.6722
   44MOL     H544950   7.728   3.930   3.520 -0.8781 -1.9756 -0.6977
   44MOL     H644951   7.825   3.997   3.719  0.7713 -0.7395  0.1045
   44MOL     H744952   0.082   3.816   3.919  1.9175 -0.5558 -0.8058
   44MOL     H844953   0.209   3.941   4.040  0.0004  0.7938  1.3078
   44MOL     H944954   0.304   4.153   4.106  2.7518  4.3107 -1.6967
   44MOL    H1044955   0.410   4.373   3.845  0.3595  0.0838 -0.4335
   44MOL    H1144956   0.581   4.495   3.961 -1.8886 -2.4050 -1.7346
   44MOL    H1244957   0.637   4.623   4.167 -0.8764 -0.4262  1.0058
   44MOL    H1344958   0.612   4.686   4.388 -0.8748  1.4948 -1.1567
   44MOL    H1444959   0.502   4.586   4.479 -1.5101 -2.3415 -1.1199
   44MOL    H1544960   0.293   4.470   4.362  1.9356 -1.5312  0.8317
   44MOL    H1644961   0.220   4.352   4.157  1.4088 -2.9855  3.0484
   44MOL    H1744962   0.197   4.288   3.697 -0.9997  3.1375  2.4437
   44MOL    H1844963   0.073   4.085   3.666 -2.3368 -1.8104  1.4746
   44MOL    H1944964   0.111   3.670   3.730 -2.2056 -3.1703 -0.1192
   44MOL    H2044965   0.027   3.587   3.514 -0.6610  0.8141 -3.8199
   44MOL    H2144966   7.978   3.563   3.197 -0.3573 -0.6164 -0.6432
   44MOL    H2244967   7.941   3.328   3.145 -0.1994 -0.2508 -0.0358
   44MOL    H2344968   0.449   4.740   4.402 -0.1434 -0.2872  1.0007
   45MOL     N144969   0.537   4.538   0.367  0.0672 -0.2954 -0.1441
   45MOL     C244970   0.526   4.663   0.303  0.2900  0.1200 -0.9246
   45MOL     C344971   0.420   4.674   0.210  0.8612  0.0130  0.0073
   45MOL     C444972   0.409   4.795   0.135  0.4128  0.1091  0.3918
   45MOL     C544973   0.507   4.901   0.148 -0.0816 -0.1709 -0.1773
   45MOL     N644974   0.491   5.021   0.077  0.0513  0.0167 -0.2164
   45MOL     C744975   0.368   5.087   0.073  0.1952 -0.6321 -0.2445
   45MOL     C844976   0.341   5.209   0.145 -0.5509  0.2938 -0.1159
   45MOL     C944977   0.216   5.277   0.145  0.4599  0.2774 -0.4994
   45MOL    C1044978   0.115   5.221   0.064  0.0186  0.0846 -0.5226
   45MOL    N1144979   7.970   5.280   0.070  0.0375  0.0536  0.2842
   45MOL    C1244980   7.885   5.258   0.176  1.5712  0.7018 -0.0448
   45MOL    C1344981   7.912   5.182   0.286 -0.0493  0.3836 -0.3246
   45MOL    C1444982   7.817   5.171   0.394  0.1009  0.9068 -0.2486
   45MOL    C1544983   7.696   5.244   0.389  0.0296 -0.1862  0.9995
   45MOL    N1644984   7.598   5.252   0.486 -0.4262  0.2488  0.2991
   45MOL    C1744985   7.593   5.182   0.607 -0.6151  0.2781  0.1322
   45MOL    C1844986   7.497   5.079   0.628 -0.3645  0.5846  0.1145
   45MOL    C1944987   7.485   5.030   0.761  0.0175  0.2621 -0.0789
   45MOL    C2044988   7.572   5.075   0.865  0.1504 -0.1893  0.1952
   45MOL    C2144989   7.563   5.007   1.002  0.8104 -0.1364 -0.9068
   45MOL    C2244990   7.669   5.172   0.838  0.2265 -0.3066  0.0776
   45MOL    C2344991   7.674   5.225   0.709  0.6454 -0.2465  0.1661
   45MOL    C2444992   7.664   5.307   0.269 -0.2604 -0.3801  0.0753
   45MOL    C2544993   7.755   5.319   0.167 -0.7466 -0.1184 -0.1530
   45MOL    C2644994   0.135   5.107   7.961  0.1270  0.0032 -0.6278
   45MOL    C2744995   0.264   5.041   7.971 -0.4355  0.3213 -0.3563
   45MOL    C2844996   0.605   4.896   0.248  0.9564 -0.1128 -0.0143
   45MOL    C2944997   0.615   4.770   0.317 -0.2589 -0.6663  0.1707
   45MOL    H3044998   0.457   4.479   0.385 -1.2292  0.7860 -2.2006
   45MOL    H3144999   0.347   4.596   0.199  0.2752  0.7299 -1.3030
   45MOL    H3245000   0.332   4.796   0.058  0.7277  0.8943  0.0734
   45MOL    H3345001   0.564   5.086   0.103 -0.9279  1.2239 -0.4629
   45MOL    H3445002   0.423   5.255   0.198  0.4822 -2.0043  0.3208
   45MOL    H3545003   0.199   5.364   0.207  0.9034  0.1656 -0.2243
   45MOL    H3645004   7.913   5.290   7.970 -0.7901 -0.6768  0.7554
   45MOL    H3745005   0.020   5.122   0.296 -0.2909  0.4272  2.5907
   45MOL    H3845006   7.842   5.106   0.477 -1.0056  0.2550 -0.4195
   45MOL    H3945007   7.514   5.272   0.433 -0.9841 -0.9607  0.6920
   45MOL    H4045008   7.422   5.052   0.555 -1.5993 -0.1455  1.6224
   45MOL    H4145009   7.412   4.952   0.769  0.9297 -0.6906 -0.9120
   45MOL    H4245010   7.500   5.068   1.065  1.5863 -1.5871  1.3265
   45MOL    H4345011   7.660   5.016   1.051  0.6251 -0.9085 -0.3905
   45MOL    H4445012   7.741   5.203   0.912  0.5152  0.3330 -0.4665
   45MOL    H4545013   7.741   5.305   0.679 -1.0853  1.0371 -0.3341
   45MOL    H4645014   7.561   5.337   0.256 -0.3959  0.1282  2.0644
   45MOL    H4745015   7.726   5.378   0.081 -1.2486  2.3013  1.6299
   45MOL    H4845016   0.061   5.065   7.895 -0.9026 -1.0391  1.1433
   45MOL    H4945017   0.277   4.950   7.916  1.9339  0.2961  0.2150
   45MOL    H5045018   0.681   4.966   0.279  0.8953  0.8225 -1.9043
   45MOL    H5145019   0.690   4.770   0.394  0.2883  0.1103 -0.3598
   45MOL    H5245020   0.602   4.471   0.327  1.5207  0.9454  0.0825
   45MOL    N5345021   7.517   4.868   1.002  0.2131  0.6882  0.4546
   45MOL    C5445022   7.575   4.794   1.103 -0.4358  0.2920  0.8137
   45MOL    C5545023   7.615   4.660   1.077 -0.1668  0.1621 -0.3202
   45MOL    C5645024   7.679   4.579   1.179 -0.4590  0.0610  0.1522
   45MOL    C5745025   7.716   4.634   1.309 -0.3963  0.3842 -0.4012
   45MOL    N5845026   7.781   4.556   1.404  0.6116  0.5782 -0.1178
   45MOL    C5945027   7.900   4.485   1.395 -0.3924  0.3797  0.2770
   45MOL    C6045028   7.978   4.491   1.283  0.5683  0.2431  0.0127
   45MOL    C6145029   0.118   4.418   1.283 -0.0847 -1.2283 -0.0551
   45MOL    C6245030   0.164   4.344   1.395 -0.5497  0.4471 -0.0793
   45MOL    N6345031   0.285   4.275   1.381 -0.2953 -0.0021 -0.1187
   45MOL    C6445032   0.334   4.165   1.460 -0.2637 -0.5418 -0.9395
   45MOL    C6545033   0.269   4.047   1.481 -0.1105  0.1814 -0.1056
   45MOL    C6645034   0.332   3.947   1.559  0.1889  0.5797  0.4650
   45MOL    C6745035   0.453   3.963   1.619  0.5266 -0.4061 -0.4446
   45MOL    N6845036   0.497   3.855   1.695  0.1605  0.0147  0.4934
   45MOL    C6945037   0.613   3.851   1.779  0.0689 -0.0596  0.1960
   45MOL    C7045038   0.632   3.943   1.884  0.0894  0.5057 -0.9670
   45MOL    C7145039   0.754   3.938   1.960  0.2416 -0.0801  0.1019
   45MOL    C7245040   0.844   3.832   1.938 -0.3689  0.0475  0.3405
   45MOL    C7345041   0.958   3.809   2.032  0.5085 -0.6791  0.0894
   45MOL    C7445042   0.817   3.737   1.841  0.2919  0.4098  0.0623
   45MOL    C7545043   0.703   3.739   1.766  0.0155 -0.0203 -0.4090
   45MOL    C7645044   0.524   4.081   1.603 -0.7030 -0.4642  0.1219
   45MOL    C7745045   0.462   4.179   1.525  0.5588 -0.3770  1.0948
   45MOL    C7845046   0.082   4.344   1.514 -0.2471 -0.2657  0.4867
   45MOL    C7945047   7.943   4.419   1.510 -0.0413 -0.3842  0.2412
   45MOL    C8045048   7.669   4.774   1.328 -0.6528 -0.1942 -0.1643
   45MOL    C8145049   7.596   4.846   1.231 -0.3615  0.0717 -0.1784
   45MOL    H8245050   7.516   4.831   0.908 -1.8757 -0.2798  0.8306
   45MOL    H8345051   7.598   4.619   0.978  0.0289 -1.4917  0.3235
   45MOL    H8445052   7.718   4.483   1.150 -1.6394 -0.4290  0.1463
   45MOL    H8545053   7.741   4.552   1.497 -0.1870 -0.4870 -0.4897
   45MOL    H8645054   7.952   4.539   1.190 -2.3131 -2.5937 -0.7393
   45MOL    H8745055   0.168   4.401   1.189 -0.3781  1.1870 -0.6803
   45MOL    H8845056   0.350   4.324   1.322  0.1832 -0.7804 -0.2524
   45MOL    H8945057   0.176   4.025   1.429  1.0755 -1.6701 -1.5214
   45MOL    H9045058   0.287   3.852   1.581  2.6089  0.0938  3.7362
   45MOL    H9145059   0.458   3.766   1.670  0.9337 -0.6659  1.6863
   45MOL    H9245060   0.570   4.030   1.902 -0.0660 -0.0072  1.1314
   45MOL    H9345061   0.765   4.013   2.037  2.8173 -0.0729 -0.2303
   45MOL    H9445062   0.922   3.811   2.135  1.2467 -2.0105  0.3764
   45MOL    H9545063   1.016   3.901   2.026 -2.2108  1.2983  2.4519
   45MOL    H9645064   0.882   3.653   1.826 -0.0814 -0.1109  1.3189
   45MOL    H9745065   0.673   3.653   1.709 -1.6995 -0.4315  1.0535
   45MOL    H9845066   0.621   4.081   1.652  0.3498  2.5417 -1.8083
   45MOL    H9945067   0.523   4.266   1.505  0.5118 -0.4581  0.5858
   45MOL   H10045068   0.114   4.292   1.603 -1.1137 -0.3530  0.7511
   45MOL   H10145069   7.883   4.424   1.600  0.8806 -0.4544  0.8655
   45MOL   H10245070   7.680   4.806   1.431 -0.9336 -2.3724  0.5703
   45MOL   H10345071   7.549   4.936   1.268 -0.9344 -0.2027 -0.2262
   45MOL   N10445072   1.032   3.683   2.016  0.4430 -0.1325 -0.7006
   45MOL   C10545073   1.133   3.679   1.920  0.4500 -0.1150 -0.5327
   45MOL   C10645074   1.138   3.777   1.820  0.3092  0.2612  0.2861
   45MOL   C10745075   1.247   3.777   1.736  0.7245 -0.0237  0.2569
   45MOL   C10845076   1.352   3.679   1.744 -0.0921  0.1593 -0.4884
   45MOL   N10945077   1.446   3.687   1.644  0.2404  0.2163 -0.0841
   45MOL   C11045078   1.531   3.588   1.590 -0.1406 -0.0159  0.5078
   45MOL   C11145079   1.649   3.627   1.528 -0.3294  0.3204  0.2820
   45MOL   C11245080   1.749   3.534   1.492  0.2714 -0.0355  0.2450
   45MOL   C11345081   1.724   3.401   1.496  0.1941  0.7925 -0.5658
   45MOL   N11445082   1.812   3.305   1.451  0.7845 -0.1628 -0.6638
   45MOL   C11545083   1.933   3.321   1.390  0.0070  0.2642  1.1186
   45MOL   C11645084   2.044   3.362   1.464  1.0474 -0.2580 -0.8272
   45MOL   C11745085   2.163   3.382   1.396 -0.1341 -0.4114 -0.1234
   45MOL   C11845086   2.172   3.367   1.256 -0.3151 -1.3411  0.5106
   45MOL   N11945087   2.302   3.388   1.203 -0.2226  0.7233  0.3041
   45MOL   C12045088   2.347   3.369   1.071 -0.2210  0.3854 -0.7424
   45MOL   C12145089   2.318   3.253   0.989  0.3308 -0.7043 -0.2228
   45MOL   C12245090   2.343   3.256   0.853  0.0446  0.8199 -0.3155
   45MOL   C12345091   2.416   3.360   0.798 -0.7052 -0.0018  0.5509
   45MOL   C12445092   2.455   3.358   0.649  0.2195  0.8121  0.2866
   45MOL   C12545093   2.470   3.461   0.885 -0.0731 -0.4543  0.1200
   45MOL   C12645094   2.429   3.470   1.018  0.4559  0.7189 -0.2361
   45MOL   C12745095   2.061   3.331   1.181 -0.3770  0.2119 -0.0878
   45MOL   C12845096   1.942   3.301   1.246  0.5628  0.4864 -0.4088
   45MOL   C12945097   1.596   3.362   1.536  0.4508 -0.1714  0.0639
   45MOL   C13045098   1.503   3.453   1.597  0.1219  0.9893  0.3529
   45MOL   C13145099   1.344   3.585   1.840 -0.4535 -0.0028 -0.0820
   45MOL   C13245100   1.234   3.584   1.929  0.1122 -0.1861 -0.2685
   45MOL   H13345101   1.055   3.638   2.104  0.4106 -0.9613 -1.1139
   45MOL   H13445102   1.075   3.862   1.800  0.2140  0.2451  0.5154
   45MOL   H13545103   1.239   3.851   1.657 -2.9092  0.4377  0.9489
   45MOL   H13645104   1.452   3.780   1.603  0.2524  2.3876  4.5610
   45MOL   H13745105   1.678   3.731   1.516  2.3003 -0.3864  0.2338
   45MOL   H13845106   1.848   3.560   1.458  0.8914 -1.0520  1.2342
   45MOL   H13945107   1.759   3.221   1.433  0.3450 -0.0519  0.0688
   45MOL   H14045108   2.034   3.391   1.568 -1.3360  0.5475 -1.2546
   45MOL   H14145109   2.253   3.406   1.452  0.0405 -0.7885 -0.2410
   45MOL   H14245110   2.373   3.395   1.274  0.4830  1.2223 -0.4448
   45MOL   H14345111   2.263   3.175   1.039 -2.6206  1.2196 -0.3492
   45MOL   H14445112   2.304   3.175   0.795 -0.1627  1.3567 -0.9326
   45MOL   H14545113   2.472   3.254   0.620  2.9228  1.6391 -1.1724
   45MOL   H14645114   2.552   3.408   0.648  0.1783  0.8676 -2.2922
   45MOL   H14745115   2.528   3.538   0.835 -1.4783  0.7934  0.4047
   45MOL   H14845116   2.453   3.555   1.081 -1.4388 -0.3068  1.9347
   45MOL   H14945117   2.064   3.327   1.073  1.1470  1.1204 -0.0850
   45MOL   H15045118   1.852   3.273   1.193  0.6374 -1.4810  0.4613
   45MOL   H15145119   1.565   3.259   1.541  0.5054 -0.0662  4.8701
   45MOL   H15245120   1.413   3.419   1.648 -0.4224  1.1245 -0.5108
   45MOL   H15345121   1.415   3.505   1.854  1.6141  1.8870  0.5201
   45MOL   H15445122   1.229   3.507   2.005 -1.8349 -1.4000 -1.5683
   45MOL   N15545123   2.363   3.417   0.562 -0.2157  0.1868 -0.4629
   45MOL   C15645124   2.240   3.351   0.544  0.0083  0.6828  0.0293
   45MOL   C15745125   2.219   3.211   0.510 -0.1502  0.0424  0.3473
   45MOL   C15845126   2.093   3.165   0.474  0.3923 -0.5794  1.2018
   45MOL   C15945127   1.978   3.248   0.483 -0.0633 -0.0876 -0.1197
   45MOL   N16045128   1.848   3.206   0.456 -0.1870  0.0808 -0.1235
   45MOL   C16145129   1.795   3.130   0.349  0.1636 -0.1726  0.1840
   45MOL   C16245130   1.883   3.088   0.246 -0.1282  0.5553 -0.2035
   45MOL   C16345131   1.823   3.005   0.144  0.6944 -0.6337  0.2227
   45MOL   C16445132   1.686   2.977   0.137  0.3328 -0.4679  0.2934
   45MOL   N16545133   1.637   2.896   0.036 -0.0151  0.1706 -0.2166
   45MOL   C16645134   1.650   2.926   7.880 -0.5661  0.4910  0.3526
   45MOL   C16745135   1.597   2.832   7.784  0.0219  0.2768  0.1459
   45MOL   C16845136   1.624   2.855   7.647  0.3548 -0.5001 -0.5279
   45MOL   C16945137   1.696   2.964   7.596  0.1813 -0.6098  0.2866
   45MOL   N17045138   1.724   2.977   7.462  0.1023  0.1872 -0.4496
   45MOL   C17145139   1.778   2.883   7.372  0.6981 -0.2322 -0.3429
   45MOL   C17245140   1.791   2.920   7.239 -0.6936 -0.3278  0.1347
   45MOL   C17345141   1.846   2.836   7.146  0.2760  0.6034 -0.2228
   45MOL   C17445142   1.897   2.707   7.180  0.3839 -0.8505  0.4629
   45MOL   C17545143   1.962   2.614   7.081  0.7996 -0.1673  0.3423
   45MOL   C17645144   1.889   2.664   7.313 -0.2934 -0.5641  0.7439
   45MOL   C17745145   1.835   2.752   7.412 -0.2169 -0.7663 -0.3550
   45MOL   C17845146   1.738   3.058   7.692  0.3562  0.4335 -0.5302
   45MOL   C17945147   1.715   3.041   7.827  0.0754  0.7062 -1.2666
   45MOL   C18045148   1.605   3.022   0.243  0.7866 -0.7063 -0.8902
   45MOL   C18145149   1.656   3.095   0.348  0.2179 -0.4924 -0.7276
   45MOL   C18245150   1.996   3.378   0.536  0.4331 -0.0909 -0.1356
   45MOL   C18345151   2.127   3.430   0.553  0.3525  0.2926 -0.0727
   45MOL   H18445152   2.353   3.518   0.571  1.7783  0.2675  1.1938
   45MOL   H18545153   2.299   3.139   0.501 -1.2396 -1.0189 -0.9798
   45MOL   H18645154   2.081   3.061   0.448 -1.7024 -0.1329  0.2498
   45MOL   H18745155   1.777   3.247   0.515 -0.4606  0.3112 -0.6075
   45MOL   H18845156   1.990   3.106   0.245 -0.0568  0.1362 -1.2322
   45MOL   H18945157   1.891   2.973   0.066 -0.7454 -0.6797 -1.0312
   45MOL   H19045158   1.561   2.833   0.060 -1.6631  2.5906  1.0508
   45MOL   H19145159   1.534   2.747   7.809 -0.6048  1.1986  1.8287
   45MOL   H19245160   1.580   2.789   7.574 -0.6696 -0.8324  0.3888
   45MOL   H19345161   1.745   3.072   7.432 -0.9344  0.6381  0.2251
   45MOL   H19445162   1.755   3.019   7.212  1.4087  0.2288 -0.6766
   45MOL   H19545163   1.841   2.868   7.043 -0.1500 -0.1731 -0.4467
   45MOL   H19645164   1.992   2.685   7.004 -2.4002  1.1228  0.2023
   45MOL   H19745165   1.888   2.547   7.038  1.0537 -0.2056 -0.0478
   45MOL   H19845166   1.926   2.566   7.342  1.9278  0.1732  0.5060
   45MOL   H19945167   1.834   2.728   7.517 -3.8341  1.9852  0.3587
   45MOL   H20045168   1.790   3.143   7.650  1.8341  0.3371  1.0650
   45MOL   H20145169   1.751   3.115   7.898 -0.1381 -2.9558  2.8307
   45MOL   H20245170   1.499   2.998   0.244  0.3866  1.0773 -0.1787
   45MOL   H20345171   1.591   3.119   0.431 -0.2353  4.5572 -2.4087
   45MOL   H20445172   1.918   3.453   0.541  0.1522 -0.2882 -1.3060
   45MOL   H20545173   2.141   3.533   0.579  0.4793  0.0390  0.8782
   45MOL   N20645174   2.080   2.546   7.133  0.6456 -0.5693  0.4462
   45MOL   C20745175   2.083   2.403   7.149  0.2696  0.4380  0.4629
   45MOL   C20845176   2.018   2.317   7.056 -0.2067 -0.2091  0.8146
   45MOL   C20945177   2.017   2.175   7.085  0.7790 -0.0831  0.6216
   45MOL   C21045178   2.089   2.116   7.189  0.0502 -0.5940  0.1825
   45MOL   N21145179   2.087   1.979   7.207 -0.1891  0.2826 -0.3819
   45MOL   C21245180   2.173   1.911   7.293  0.0120  0.2034 -0.1476
   45MOL   C21345181   2.150   1.900   7.430 -0.3648  0.2920  0.4155
   45MOL   C21445182   2.245   1.831   7.514  0.7844 -0.6148  0.0384
   45MOL   C21545183   2.362   1.780   7.459  0.2108 -0.1230 -0.6181
   45MOL   N21645184   2.451   1.712   7.540  0.9062  0.1961 -0.1378
   45MOL   C21745185   2.583   1.665   7.521  0.1229 -0.9308 -0.0563
   45MOL   C21845186   2.684   1.746   7.468  0.1196 -0.4181  0.0922
   45MOL   C21945187   2.809   1.698   7.440  0.2186  0.3579  0.0823
   45MOL   C22045188   2.845   1.569   7.477  0.1836 -0.1323 -0.4083
   45MOL   N22145189   2.981   1.534   7.462 -0.0090 -0.2515 -0.4416
   45MOL   C22245190   3.037   1.416   7.521  0.4912  0.4305 -0.2016
   45MOL   C22345191   3.097   1.416   7.646  0.2400 -0.2420 -0.4151
   45MOL   C22445192   3.153   1.298   7.704  0.5553 -0.5371  0.1642
   45MOL   C22545193   3.143   1.173   7.634 -0.1091 -0.6284  0.2561
   45MOL   C22645194   3.196   1.048   7.703 -0.0563 -0.0691  0.6814
   45MOL   C22745195   3.080   1.169   7.509  0.2482 -0.3116  0.1425
   45MOL   C22845196   3.027   1.290   7.453 -0.1836 -0.3652 -0.2851
   45MOL   C22945197   2.753   1.484   7.538 -0.0770  0.7333  0.0088
   45MOL   C23045198   2.628   1.535   7.557  0.3929  0.0910  0.6099
   45MOL   C23145199   2.388   1.784   7.325  0.0539  0.1043 -0.0135
   45MOL   C23245200   2.294   1.848   7.239  0.1483 -0.1601 -0.3013
   45MOL   C23345201   2.165   2.203   7.270 -0.9364 -0.4411 -0.3276
   45MOL   C23445202   2.149   2.344   7.259  0.1811 -0.2759 -0.3927
   45MOL   H23545203   2.137   2.598   7.199 -0.3770 -1.3332  1.9615
   45MOL   H23645204   1.977   2.367   6.969 -0.5399 -1.1447  0.4230
   45MOL   H23745205   1.971   2.107   7.015 -0.1049  0.7003  0.4235
   45MOL   H23845206   2.038   1.914   7.146 -0.2980 -0.2871  0.3015
   45MOL   H23945207   2.060   1.943   7.473 -0.4915 -0.0230  0.4689
   45MOL   H24045208   2.223   1.832   7.619  0.2261  3.8870 -0.0464
   45MOL   H24145209   2.417   1.680   7.629  2.1685  1.1837  0.7276
   45MOL   H24245210   2.660   1.849   7.444 -0.8241 -1.0081 -1.5598
   45MOL   H24345211   2.887   1.763   7.402  0.1867 -0.7454 -1.9862
   45MOL   H24445212   3.046   1.599   7.422 -0.9567  0.6910 -0.4733
   45MOL   H24545213   3.102   1.507   7.703 -0.6810 -1.1890  1.1873
   45MOL   H24645214   3.194   1.305   7.804  0.1883 -2.8920  0.5253
   45MOL   H24745215   3.302   1.053   7.676 -0.2351 -0.6647 -0.1621
   45MOL   H24845216   3.166   0.954   7.655 -1.0120  1.5708 -2.0477
   45MOL   H24945217   3.071   1.074   7.459  1.2160 -0.4896  0.3025
   45MOL   H25045218   2.969   1.286   7.362  1.4126  1.0222 -1.3884
   45MOL   H25145219   2.779   1.386   7.575  2.8495  0.9987 -1.2301
   45MOL   H25245220   2.559   1.464   7.600 -0.1250  1.6309  2.3824
   45MOL   H25345221   2.475   1.737   7.283 -0.8030 -1.1817 -0.4001
   45MOL   H25445222   2.329   1.862   7.138  0.6154 -1.8614 -0.3950
   45MOL   H25545223   2.239   2.163   7.339  0.0327  0.1385 -1.0174
   45MOL   H25645224   2.191   2.407   7.336 -0.4002 -0.0606 -0.2543
   45MOL   N25745225   3.173   1.053   7.848  0.9346 -0.4925  0.3860
   45MOL   C25845226   3.259   0.977   7.923 -0.6164  0.4856 -0.4658
   45MOL   C25945227   3.343   1.036   0.034  0.1918 -0.7365 -0.0747
   45MOL   C26045228   3.446   0.953   0.091 -0.0788 -0.0433 -0.0620
   45MOL   C26145229   3.478   0.827   0.041  0.2839  0.1553 -0.0080
   45MOL   N26245230   3.600   0.758   0.075  0.5372 -0.5236  0.2498
   45MOL   C26345231   3.692   0.787   0.177 -0.1427  0.4327 -0.0715
   45MOL   C26445232   3.670   0.864   0.298 -0.0812 -0.2467  1.1248
   45MOL   C26545233   3.785   0.893   0.378  0.0693 -0.1700  0.6691
   45MOL   C26645234   3.913   0.842   0.349 -0.4808  0.1440 -0.1628
   45MOL   N26745235   4.006   0.864   0.445  0.1797 -0.0201 -0.8244
   45MOL   C26845236   4.143   0.837   0.455  0.7602  0.6722  0.2422
   45MOL   C26945237   4.226   0.855   0.340  0.7722  0.1432 -0.3351
   45MOL   C27045238   4.359   0.817   0.339  0.2631 -0.0239  0.1506
   45MOL   C27145239   4.421   0.768   0.454  0.1610  0.3302 -0.7883
   45MOL   N27245240   4.561   0.738   0.454  0.1751 -0.1779 -0.3492
   45MOL   C27345241   4.643   0.634   0.509  0.4537 -0.2957  0.3826
   45MOL   C27445242   4.782   0.648   0.493 -0.3024  0.0610 -0.7033
   45MOL   C27545243   4.869   0.551   0.533  0.1461  1.0350 -0.8082
   45MOL   C27645244   4.818   0.439   0.593 -0.1487 -0.4434  0.0415
   45MOL   C27745245   4.920   0.343   0.651  0.9323 -0.6929  0.6440
   45MOL   C27845246   4.679   0.419   0.615 -0.3719  0.3703  0.3339
   45MOL   C27945247   4.589   0.518   0.568 -0.3560  0.2562  0.1406
   45MOL   C28045248   4.337   0.748   0.570  0.0272  0.1165 -0.3062
   45MOL   C28145249   4.198   0.771   0.565  0.1604 -0.1520  0.1207
   45MOL   C28245250   3.922   0.755   0.237  0.0528 -0.2217  0.4993
   45MOL   C28345251   3.815   0.730   0.153  0.1950 -0.6508 -0.4641
   45MOL   C28445252   3.389   0.766   7.929  0.0118 -0.5520  0.6636
   45MOL   C28545253   3.280   0.847   7.884 -0.0207 -0.0110  0.2101
   45MOL   H28645254   3.163   1.146   7.887  1.1923  0.1373 -1.0339
   45MOL   H28745255   3.330   1.140   0.063 -1.6535 -0.9628 -0.0575
   45MOL   H28845256   3.511   1.013   0.153  1.3710  0.0953 -1.6524
   45MOL   H28945257   3.639   0.699   0.003  3.2526  1.0686  0.3515
   45MOL   H29045258   3.578   0.906   0.335 -0.9335 -0.9148 -0.2054
   45MOL   H29145259   3.777   0.961   0.461 -0.7169  0.4703  0.0797
   45MOL   H29245260   3.967   0.892   0.534  0.8063  1.2199 -0.9196
   45MOL   H29345261   4.192   0.893   0.245 -1.2397  0.8334  0.6220
   45MOL   H29445262   4.410   0.833   0.245 -2.7823 -2.2750 -2.0026
   45MOL   H29545263   4.593   0.800   0.381 -0.8509  2.1453  1.1180
   45MOL   H29645264   4.826   0.735   0.447  1.7038  0.8621  2.5689
   45MOL   H29745265   4.975   0.572   0.526  0.1388  1.1638 -0.5250
   45MOL   H29845266   4.915   0.351   0.759 -3.9275  0.8029  0.4021
   45MOL   H29945267   5.019   0.378   0.622  0.7588  0.0080  0.8810
   45MOL   H30045268   4.647   0.330   0.666 -0.2505 -1.2964 -2.3838
   45MOL   H30145269   4.483   0.500   0.580 -0.2372  0.4990  1.5935
   45MOL   H30245270   4.379   0.710   0.662  0.5372 -3.4692 -1.9170
   45MOL   H30345271   4.146   0.749   0.657 -0.2626  0.8348  0.1204
   45MOL   H30445272   4.018   0.710   0.214 -0.0182  0.0808 -0.3798
   45MOL   H30545273   3.828   0.664   0.068 -3.7829 -0.3054 -1.4005
   45MOL   H30645274   3.406   0.669   7.885 -0.5824 -1.5188  2.5097
   45MOL   H30745275   3.233   0.798   7.800 -1.9005 -0.6746  1.6122
   45MOL   N30845276   4.885   0.205   0.626  0.1623 -0.7279 -0.6853
   45MOL   C30945277   4.905   0.169   0.492 -0.3209  0.2289 -0.7732
   45MOL   C31045278   4.808   0.092   0.425  0.1343  0.4223 -0.1882
   45MOL   C31145279   4.820   0.070   0.287  0.5043  0.3321 -0.0879
   45MOL   C31245280   4.929   0.115   0.211 -0.8493  0.1749 -0.1277
   45MOL   N31345281   4.930   0.092   0.075 -0.1881 -0.4161  0.2666
   45MOL   C31445282   4.992   0.174   7.964 -0.6187 -0.5781 -0.3300
   45MOL   C31545283   5.117   0.146   7.904  0.4668 -0.1052 -0.0693
   45MOL   C31645284   5.169   0.224   7.804 -0.0785  0.0721  0.3076
   45MOL   C31745285   5.092   0.328   7.752 -0.1158 -0.3403  0.4659
   45MOL   N31845286   5.122   0.385   7.628  0.0488 -0.1217 -1.0750
   45MOL   C31945287   5.109   0.317   7.504 -0.7396 -0.3455 -0.2284
   45MOL   C32045288   5.123   0.386   7.381 -0.2682  0.1227 -0.3650
   45MOL   C32145289   5.106   0.332   7.253 -0.0777 -0.4612 -0.5723
   45MOL   C32245290   5.066   0.197   7.247  0.4329 -0.1130  0.4566
   45MOL   N32345291   5.040   0.129   7.121 -0.1527 -0.4191 -0.2286
   45MOL   C32445292   5.089   0.164   6.993  0.6651 -0.0465  0.2513
   45MOL   C32545293   5.204   0.243   6.967 -0.2103  0.3361 -0.0957
   45MOL   C32645294   5.240   0.284   6.841  0.1701  0.4883 -0.2030
   45MOL   C32745295   5.160   0.239   6.731  0.2467  0.8599 -0.2795
   45MOL   C32845296   5.203   0.268   6.591 -0.0298  0.8050 -0.2728
   45MOL   C32945297   5.047   0.166   6.756  0.0855  0.3650  0.4103
   45MOL   C33045298   5.010   0.122   6.887  0.6523 -0.3651  0.2763
   45MOL   C33145299   5.052   0.121   7.369  0.0205 -0.3675  0.5701
   45MOL   C33245300   5.075   0.181   7.494  0.2315 -0.1537  0.6343
   45MOL   C33345301   4.986   0.376   7.832 -0.6493  0.2470  0.2150
   45MOL   C33445302   4.933   0.299   7.932 -0.7723 -0.4004 -0.1868
   45MOL   C33545303   5.029   0.191   0.280  0.4528 -0.2183 -0.7458
   45MOL   C33645304   5.019   0.214   0.416 -0.5825 -0.0360 -0.0514
   45MOL   H33745305   4.794   0.181   0.663  1.1045 -3.0012  0.2505
   45MOL   H33845306   4.724   0.040   0.469 -0.3019 -0.0693 -1.5675
   45MOL   H33945307   4.739   0.012   0.246  1.0925 -0.4585 -0.1381
   45MOL   H34045308   4.849   0.045   0.038  1.1961 -2.7669  0.0949
   45MOL   H34145309   5.165   0.050   7.916  1.4245  0.0493 -2.4175
   45MOL   H34245310   5.255   0.199   7.743 -1.3312 -2.3513 -0.5030
   45MOL   H34345311   5.119   0.485   7.613 -2.1822  0.0445  0.3176
   45MOL   H34445312   5.148   0.491   7.386 -0.5053  0.1850 -0.4709
   45MOL   H34545313   5.120   0.397   7.168 -3.9466 -0.9531 -1.6834
   45MOL   H34645314   4.973   0.054   7.127 -1.0782  0.3752 -0.4392
   45MOL   H34745315   5.262   0.260   7.056 -1.7055 -0.5222  1.0908
   45MOL   H34845316   5.333   0.336   6.824 -0.0526  0.3710 -1.8285
   45MOL   H34945317   5.197   0.377   6.584 -0.3443  0.6898 -1.8253
   45MOL   H35045318   5.122   0.233   6.528  1.6222  0.0815 -2.0328
   45MOL   H35145319   4.979   0.133   6.679 -1.6489  4.2251  0.1587
   45MOL   H35245320   4.928   0.054   6.902 -1.8989  2.3397 -1.0723
   45MOL   H35345321   5.029   0.016   7.370  0.2688 -0.4210  2.1309
   45MOL   H35445322   5.075   0.117   7.580 -1.9720  0.0040  0.7665
   45MOL   H35545323   4.936   0.463   7.790 -0.9957 -0.5668 -1.1079
   45MOL   H35645324   4.841   0.330   7.980 -0.9293 -0.2706 -0.5725
   45MOL   H35745325   5.117   0.232   0.233  0.2190 -0.5107 -1.4448
   45MOL   H35845326   5.100   0.276   0.453  0.9655 -2.5864  0.9785
   45MOL   N35945327   5.320   0.188   6.549 -0.0715 -0.2691 -0.0663
   45MOL   C36045328   5.317   0.116   6.422  0.7356  0.0105  0.6416
   45MOL   C36145329   5.259   0.171   6.312  0.4050  0.5754  0.1703
   45MOL   C36245330   5.265   0.109   6.188 -0.5038  0.4753  0.3050
   45MOL   C36345331   5.308   7.962   6.176 -0.5176  0.9529 -0.0965
   45MOL   N36445332   5.306   7.899   6.046 -0.2185 -0.1259  0.7941
   45MOL   C36545333   5.250   7.956   5.930  0.0842  1.1529 -0.1907
   45MOL   C36645334   5.111   7.972   5.915 -0.5783  0.0952 -0.3247
   45MOL   C36745335   5.057   0.042   5.798 -0.6612  0.8312 -0.0610
   45MOL   C36845336   5.144   0.077   5.694  0.6118 -0.2157  0.2562
   45MOL   N36945337   5.090   0.116   5.568 -0.2353 -0.5740 -0.2095
   45MOL   C37045338   4.979   0.195   5.543  0.0268 -0.9663 -0.1816
   45MOL   C37145339   4.923   0.198   5.410 -1.2291 -0.2742 -0.9248
   45MOL   C37245340   4.806   0.274   5.382 -0.3195 -0.3916  0.3757
   45MOL   C37345341   4.733   0.336   5.485 -0.0723  0.6915 -0.1965
   45MOL   N37445342   4.611   0.400   5.467  0.4955 -0.1165 -1.0718
   45MOL   C37545343   4.554   0.451   5.347 -0.0149 -0.4629  0.1071
   45MOL   C37645344   4.425   0.422   5.320  0.8282  0.2560  0.0441
   45MOL   C37745345   4.364   0.455   5.197  0.3060 -0.0003 -0.1863
   45MOL   C37845346   4.433   0.544   5.114  0.6943 -0.1929  0.2811
   45MOL   C37945347   4.367   0.621   4.996 -0.1740  1.0087 -0.0495
   45MOL   C38045348   4.566   0.568   5.136 -0.1043  0.1375 -0.3868
   45MOL   C38145349   4.633   0.508   5.247  0.6070 -0.9323 -0.7021
   45MOL   C38245350   4.796   0.339   5.612  0.0913 -0.2767 -0.5744
   45MOL   C38345351   4.915   0.270   5.640  0.0708  0.5722  0.6704
   45MOL   C38445352   5.284   0.063   5.704  0.3098 -0.0138 -0.7529
   45MOL   C38545353   5.331   7.978   5.822  0.1275 -0.1389  0.0570
   45MOL   C38645354   5.375   7.902   6.286 -0.0868  0.2412 -0.9739
   45MOL   C38745355   5.378   7.970   6.411 -0.0910  0.2138 -1.1634
   45MOL   H38845356   5.365   0.133   6.621  3.0904  0.9199 -1.0503
   45MOL   H38945357   5.217   0.270   6.311  0.2615  0.5054 -0.6791
   45MOL   H39045358   5.222   0.154   6.100  1.9425 -0.0303 -1.2017
   45MOL   H39145359   5.388   7.843   6.032 -0.7256 -0.7224  0.2070
   45MOL   H39245360   5.042   7.942   5.992 -2.1216  2.7450 -0.6109
   45MOL   H39345361   4.950   0.040   5.789 -0.7373  1.0734  0.7010
   45MOL   H39445362   5.136   0.075   5.487 -1.2501  2.8226 -2.5799
   45MOL   H39545363   4.977   0.144   5.333  1.6471  1.2806 -0.0881
   45MOL   H39645364   4.779   0.270   5.278  1.7003 -0.8581 -0.1581
   45MOL   H39745365   4.553   0.416   5.548  2.0240 -1.0211  0.2171
   45MOL   H39845366   4.361   0.377   5.395  2.6576 -0.1973  1.3510
   45MOL   H39945367   4.260   0.427   5.189  0.1239  0.0931  1.8073
   45MOL   H40045368   4.423   0.611   4.903  0.1592  1.6939  0.0694
   45MOL   H40145369   4.362   0.724   5.033  3.1927  1.1403  0.1874
   45MOL   H40245370   4.625   0.642   5.084  0.8126 -0.3522 -0.0428
   45MOL   H40345371   4.739   0.520   5.263  0.1648 -0.4932  2.2640
   45MOL   H40445372   4.759   0.408   5.687 -0.4532 -2.6239  1.3944
   45MOL   H40545373   4.950   0.278   5.742  1.9784 -0.6514  0.1557
   45MOL   H40645374   5.350   0.084   5.622  0.5286 -0.9330 -0.8242
   45MOL   H40745375   5.438   7.968   5.838  0.2579  0.7850 -0.2253
   45MOL   H40845376   5.411   7.802   6.271  1.0721  0.7261 -1.4655
   45MOL   H40945377   5.428   7.924   6.495 -2.8494  0.9134  0.9405
   45MOL   N41045378   4.234   0.572   4.967 -0.8674 -0.2591  0.0017
   45MOL   C41145379   4.216   0.450   4.894  0.5435 -1.1194 -0.4806
   45MOL   C41245380   4.082   0.418   4.863 -0.3855  0.2811 -0.8578
   45MOL   C41345381   4.061   0.290   4.803  0.2380 -0.2752  0.0219
   45MOL   C41445382   4.163   0.205   4.764  0.5819 -0.0204  0.5156
   45MOL   N41545383   4.125   0.092   4.691  0.2863  0.0369 -0.2720
   45MOL   C41645384   4.212   0.002   4.624  0.4424  0.0505  0.5950
   45MOL   C41745385   4.258   7.872   4.698  0.2138  0.2642 -0.3003
   45MOL   C41845386   4.359   7.794   4.641 -0.7909  0.0335  0.0895
   45MOL   C41945387   4.395   7.822   4.505  0.0614  0.6789  0.4682
   45MOL   N42045388   4.506   7.758   4.441 -0.3270 -0.4618  0.1439
   45MOL   C42145389   4.602   7.672   4.490  0.0018  0.2401 -0.0376
   45MOL   C42245390   4.641   7.562   4.412  0.0013 -0.2197 -0.1071
   45MOL   C42345391   4.743   7.467   4.456 -0.0589 -0.4824  1.0250
   45MOL   C42445392   4.793   7.480   4.584  0.1830  0.4448 -0.1021
   45MOL   N42545393   4.883   7.378   4.628 -0.4595 -0.3998  0.5356
   45MOL   C42645394   4.970   7.386   4.740 -0.8989 -0.1124  0.1487
   45MOL   C42745395   4.984   7.272   4.825 -0.3675  0.1652 -0.2471
   45MOL   C42845396   5.066   7.281   4.934 -0.2406 -0.5587  0.2068
   45MOL   C42945397   5.150   7.393   4.957  0.8927 -0.2942 -0.3123
   45MOL   C43045398   5.249   7.393   5.071  0.7797 -0.0111  0.0290
   45MOL   C43145399   5.136   7.509   4.878  0.0952  0.4903 -0.5791
   45MOL   C43245400   5.042   7.505   4.772  0.2601 -0.2366 -0.3694
   45MOL   C43345401   4.740   7.586   4.663 -0.1881 -0.0882  0.6550
   45MOL   C43445402   4.652   7.685   4.618  0.6479 -0.4099  0.5316
   45MOL   C43545403   4.335   7.917   4.430  0.3942 -0.7305  0.2646
   45MOL   C43645404   4.248   0.027   4.484  0.1285  0.3751  0.4227
   45MOL   C43745405   4.294   0.241   4.793 -0.0713  0.0385 -0.5833
   45MOL   C43845406   4.321   0.358   4.868 -0.2253  0.4096  0.8121
   45MOL   H43945407   4.155   0.618   5.010  0.2613 -0.5813  2.4684
   45MOL   H44045408   4.001   0.488   4.878  0.6712  1.3909 -0.2487
   45MOL   H44145409   3.961   0.265   4.769  1.4069 -0.5991 -3.4271
   45MOL   H44245410   4.051   0.038   4.733 -0.9414  1.2838 -0.8172
   45MOL   H44345411   4.215   7.848   4.795 -0.9663  1.8477 -0.4041
   45MOL   H44445412   4.410   7.714   4.695 -1.3224 -0.6947 -0.4777
   45MOL   H44545413   4.494   7.770   4.341 -0.0246  0.4810  0.2243
   45MOL   H44645414   4.594   7.551   4.315 -0.4132  0.0662  0.0570
   45MOL   H44745415   4.772   7.390   4.386 -1.8729 -0.6557  0.4253
   45MOL   H44845416   4.856   7.296   4.575  0.0818 -1.2548  1.5442
   45MOL   H44945417   4.928   7.181   4.814  0.1973 -0.1656 -0.4462
   45MOL   H45045418   5.070   7.197   5.001 -1.1891 -1.3014 -0.6666
   45MOL   H45145419   5.189   7.379   5.161 -0.4480 -0.0253 -0.7869
   45MOL   H45245420   5.300   7.489   5.073  1.4636 -0.3558 -0.3428
   45MOL   H45345421   5.192   7.600   4.888 -0.1646  0.6224 -0.3217
   45MOL   H45445422   5.033   7.593   4.710 -1.2292  0.1067  0.3114
   45MOL   H45545423   4.781   7.598   4.763 -0.7421 -0.4419  0.9272
   45MOL   H45645424   4.627   7.768   4.682 -2.4934 -3.2377  3.2322
   45MOL   H45745425   4.356   7.935   4.326  0.5716  0.7457  0.5452
   45MOL   H45845426   4.212   0.115   4.433 -0.2060  1.5783  2.6808
   45MOL   H45945427   4.382   0.182   4.775  0.8653  0.2774  2.8247
   45MOL   H46045428   4.419   0.386   4.903  0.3534  0.0424 -0.4841
   45MOL   N46145429   5.343   7.280   5.079 -0.2808  1.1273  0.0034
   45MOL   C46245430   5.427   7.268   5.191  0.4125  0.3120 -0.8081
   45MOL   C46345431   5.515   7.153   5.194  0.2603  0.1488 -0.1380
   45MOL   C46445432   5.607   7.136   5.297 -0.2219 -0.1616 -0.6945
   45MOL   C46545433   5.598   7.230   5.403 -0.0460  0.4030  0.3964
   45MOL   N46645434   5.687   7.221   5.509  0.1508  0.3229 -0.0898
   45MOL   C46745435   5.771   7.324   5.549  0.0605  0.1624  0.3031
   45MOL   C46845436   5.839   7.317   5.675 -0.4835  0.7911 -0.0516
   45MOL   C46945437   5.935   7.413   5.707  0.0042 -0.2574  0.1697
   45MOL   C47045438   5.952   7.521   5.620 -0.5371  0.2598 -0.2447
   45MOL   N47145439   6.044   7.624   5.644 -0.2179 -0.3504 -0.0499
   45MOL   C47245440   6.103   7.659   5.765  0.5854 -0.7744  0.3219
   45MOL   C47345441   6.016   7.706   5.867  0.5026  0.7727  0.0244
   45MOL   C47445442   6.070   7.764   5.985 -0.3210 -0.2026  0.2185
   45MOL   C47545443   6.207   7.757   6.018 -0.2629 -0.0904  1.3048
   45MOL   N47645444   6.254   7.799   6.141  0.3533  0.3940  0.1071
   45MOL   C47745445   6.220   7.911   6.214 -0.8230 -0.4972  0.4240
   45MOL   C47845446   6.137   0.037   6.168 -0.3303 -0.0343 -0.7585
   45MOL   C47945447   6.100   0.141   6.255 -0.1447 -0.7116  0.2092
   45MOL   C48045448   6.156   0.159   6.380 -1.0886 -0.2540 -0.1571
   45MOL   C48145449   6.130   0.281   6.469  0.1798 -0.0814 -0.6811
   45MOL   C48245450   6.235   0.049   6.427 -0.1128  0.7866  0.1763
   45MOL   C48345451   6.260   7.911   6.353 -0.3618 -0.1626  0.1611
   45MOL   C48445452   6.292   7.716   5.914  0.3273  0.6464  0.5156
   45MOL   C48545453   6.244   7.666   5.789 -0.1365  0.6369 -0.4294
   45MOL   C48645454   5.883   7.528   5.502  0.2318 -0.0782  0.0101
   45MOL   C48745455   5.792   7.432   5.462 -0.9177  0.2650 -0.1683
   45MOL   C48845456   5.502   7.332   5.408  0.0449  0.0300  0.8182
   45MOL   C48945457   5.422   7.358   5.297  0.2891 -0.0616  0.8052
   45MOL   H49045458   5.334   7.193   5.029  0.2931  0.3947  1.1594
   45MOL   H49145459   5.529   7.086   5.111 -2.0244 -0.2078 -0.2765
   45MOL   H49245460   5.684   7.060   5.303 -1.0102 -0.8716  1.0771
   45MOL   H49345461   5.692   7.149   5.579 -0.7897  0.4861  0.1535
   45MOL   H49445462   5.809   7.244   5.748 -2.1362  1.0385 -0.4540
   45MOL   H49545463   6.002   7.411   5.792 -0.2950  0.4288  0.4263
   45MOL   H49645464   6.070   7.682   5.565  2.3896 -1.3278  0.0170
   45MOL   H49745465   5.909   7.704   5.856  0.0199 -0.1505  3.9893
   45MOL   H49845466   6.001   7.802   6.059  0.3917  3.6301 -0.9755
   45MOL   H49945467   6.348   7.770   6.164  1.2185  2.7640 -0.3156
   45MOL   H50045468   6.108   0.030   6.064 -2.7987  2.1869 -0.2751
   45MOL   H50145469   6.034   0.216   6.215 -0.0976 -0.7647  0.0333
   45MOL   H50245470   6.212   0.290   6.540  1.7573 -0.6612 -2.3929
   45MOL   H50345471   6.039   0.254   6.522  0.9212 -1.0622  0.1228
   45MOL   H50445472   6.264   0.048   6.532  0.7193  0.5833 -0.0496
   45MOL   H50545473   6.305   7.821   6.392  0.3935 -1.0703 -2.6587
   45MOL   H50645474   6.392   7.704   5.953  0.3518  0.8667  0.5198
   45MOL   H50745475   6.318   7.634   5.717 -0.9043  0.3410 -1.0830
   45MOL   H50845476   5.889   7.621   5.447  5.6886 -0.0844  0.3213
   45MOL   H50945477   5.749   7.437   5.363  0.6101  1.9744 -0.7729
   45MOL   H51045478   5.492   7.405   5.488 -1.2475 -2.3698  2.8985
   45MOL   H51145479   5.363   7.448   5.307  1.3222  0.4528  2.6557
   45MOL   N51245480   6.101   0.406   6.403  0.2693  0.5485 -0.1317
   45MOL   C51345481   6.172   0.455   6.294 -0.9779  0.1081 -0.5848
   45MOL   C51445482   6.284   0.392   6.237  0.0209 -0.1237  0.5674
   45MOL   C51545483   6.340   0.441   6.120 -1.0494 -0.9799  0.4290
   45MOL   C51645484   6.285   0.557   6.059 -0.0036 -1.2232 -0.9310
   45MOL   N51745485   6.337   0.603   5.936 -0.7722 -0.0897  0.1902
   45MOL   C51845486   6.409   0.537   5.837 -0.0356  0.1313 -0.4897
   45MOL   C51945487   6.542   0.485   5.851 -0.2200 -1.0931  0.6963
   45MOL   C52045488   6.623   0.448   5.746 -0.9881  0.2147  1.4303
   45MOL   C52145489   6.579   0.474   5.608 -0.0784 -0.1066 -0.4756
   45MOL   N52245490   6.659   0.438   5.500  0.3612  0.2645 -0.5873
   45MOL   C52345491   6.624   0.423   5.367 -0.2377 -0.3851  1.0268
   45MOL   C52445492   6.517   0.344   5.319 -0.2657 -0.2824 -1.0704
   45MOL   C52545493   6.485   0.335   5.184 -0.1945 -0.4684 -0.1778
   45MOL   C52645494   6.567   0.402   5.087  0.2324 -0.4706  0.1114
   45MOL   N52745495   6.553   0.411   4.951  0.7251 -0.1167 -1.0043
   45MOL   C52845496   6.438   0.367   4.889  0.0323 -0.1559  1.4864
   45MOL   C52945497   6.438   0.250   4.808 -0.5112  0.0207 -0.2922
   45MOL   C53045498   6.321   0.195   4.754 -0.4829  0.2729 -0.1234
   45MOL   C53145499   6.197   0.256   4.773 -0.2996 -0.1884 -0.7029
   45MOL   C53245500   6.066   0.199   4.718 -0.1203 -0.1091  0.4434
   45MOL   C53345501   6.196   0.375   4.856 -0.4437 -0.8189  0.2366
   45MOL   C53445502   6.315   0.432   4.908 -0.4778 -0.4120 -0.6229
   45MOL   C53545503   6.681   0.470   5.134 -0.9182  0.0974  0.3316
   45MOL   C53645504   6.714   0.477   5.269  0.3842  0.1152 -0.0897
   45MOL   C53745505   6.445   0.522   5.599  0.2261  0.2029 -0.5851
   45MOL   C53845506   6.363   0.558   5.704 -0.3301  0.1599  0.2622
   45MOL   C53945507   6.186   0.636   6.125 -0.7075 -0.3642 -0.5239
   45MOL   C54045508   6.128   0.582   6.239  0.0080  0.4003 -0.0888
   45MOL   H54145509   6.037   0.472   6.444  0.8106  0.5292  0.7617
   45MOL   H54245510   6.323   0.299   6.277 -0.9292  0.0716  1.9745
   45MOL   H54345511   6.423   0.386   6.079  0.9348  1.9588  0.3855
   45MOL   H54445512   6.277   0.671   5.892  2.3018  2.9639  0.4686
   45MOL   H54545513   6.599   0.472   5.942  2.3782  3.4774 -0.0791
   45MOL   H54645514   6.720   0.406   5.765 -1.4296 -2.1720 -1.2260
   45MOL   H54745515   6.740   0.389   5.536  1.1027  0.8110 -1.5038
   45MOL   H54845516   6.465   0.291   5.398 -1.6934  0.7673 -1.2923
   45MOL   H54945517   6.391   0.286   5.161 -0.0688 -0.9316  0.2987
   45MOL   H55045518   6.632   0.416   4.889  0.3756 -0.0350 -1.4436
   45MOL   H55145519   6.530   0.194   4.809  0.1855  1.1472  1.2941
   45MOL   H55245520   6.316   0.094   4.716  1.2707 -0.3289  1.1817
   45MOL   H55345521   5.994   0.167   4.793  1.2108  0.4659  2.0096
   45MOL   H55445522   6.087   0.113   4.654 -0.2014 -1.2111  1.8679
   45MOL   H55545523   6.103   0.429   4.862 -0.1535 -0.2563 -0.2442
   45MOL   H55645524   6.309   0.514   4.979 -0.2836 -0.5744 -0.4183
   45MOL   H55745525   6.752   0.516   5.066  0.1503 -2.0017 -0.0373
   45MOL   H55845526   6.796   0.545   5.288  0.5282  0.2104 -1.0143
   45MOL   H55945527   6.403   0.544   5.502 -1.4972  1.1831  0.3641
   45MOL   H56045528   6.267   0.602   5.679 -0.8770 -0.5613  1.0772
   45MOL   H56145529   6.137   0.726   6.089 -2.5893 -0.8988  0.6212
   45MOL   H56245530   6.056   0.647   6.286  0.0292  0.1548  0.2838
   45MOL   N56345531   5.996   0.300   4.642 -0.3983  0.4621  0.3381
   45MOL   C56445532   5.859   0.280   4.614  0.0236  0.6776  0.5123
   45MOL   C56545533   5.800   0.152   4.613  0.3950  0.2993 -0.0920
   45MOL   C56645534   5.661   0.135   4.595  0.0145 -0.3219  0.6623
   45MOL   C56745535   5.584   0.256   4.574  0.0246  0.7722 -0.0895
   45MOL   N56845536   5.446   0.244   4.554  0.7630 -0.3878 -0.1642
   45MOL   C56945537   5.348   0.342   4.567 -0.3058 -0.1974  0.3542
   45MOL   C57045538   5.249   0.333   4.669 -0.3680 -0.0917  0.5210
   45MOL   C57145539   5.161   0.441   4.685  0.2020  1.3306  0.4939
   45MOL   C57245540   5.144   0.542   4.582 -0.3456  0.1628 -0.4714
   45MOL   N57345541   5.040   0.636   4.591  0.8128 -0.1532 -0.1578
   45MOL   C57445542   4.978   0.708   4.496 -0.1498  0.4930  0.4946
   45MOL   C57545543   4.977   0.672   4.365  1.1656 -0.3551 -0.2123
   45MOL   C57645544   4.898   0.753   4.274 -0.4067 -0.3202 -0.4270
   45MOL   C57745545   4.833   0.871   4.317 -0.2209  0.4897 -0.1293
   45MOL   N57845546   4.749   0.946   4.231  0.4187  0.3582  0.1902
   45MOL   C57945547   4.741   0.933   4.089  0.0301 -0.0299 -0.2102
   45MOL   C58045548   4.618   0.905   4.020  0.0515 -0.5016 -0.3191
   45MOL   C58145549   4.617   0.890   3.879  0.2305  0.1369 -0.1724
   45MOL   C58245550   4.739   0.898   3.804  0.0832  0.5804 -0.3192
   45MOL   C58345551   4.737   0.895   3.656 -0.2684 -0.1224  0.0574
   45MOL   C58445552   4.857   0.926   3.873 -0.2792  0.0217  0.1927
   45MOL   C58545553   4.860   0.936   4.016  0.1442  0.4361 -0.0908
   45MOL   C58645554   4.848   0.908   4.449 -0.1846 -0.0892 -0.0956
   45MOL   C58745555   4.912   0.824   4.538  0.0719  0.9262 -0.4519
   45MOL   C58845556   5.237   0.545   4.479  0.7378 -0.2008  0.4879
   45MOL   C58945557   5.340   0.445   4.469  0.2679  0.7526  0.0217
   45MOL   C59045558   5.648   0.384   4.574 -0.4562 -0.0832 -0.0298
   45MOL   C59145559   5.782   0.396   4.597 -0.4006  0.2572 -0.8429
   45MOL   H59245560   6.029   0.395   4.656  0.4269  0.0484  1.3127
   45MOL   H59345561   5.863   0.064   4.619 -0.9535 -0.6501  0.1985
   45MOL   H59445562   5.618   0.036   4.590  1.4424 -0.9061 -0.3756
   45MOL   H59545563   5.413   0.152   4.527 -1.5938  0.3723  0.0076
   45MOL   H59645564   5.258   0.259   4.747  2.6383  0.7328  1.0372
   45MOL   H59745565   5.087   0.432   4.763 -0.2148  0.7159  0.0361
   45MOL   H59845566   4.999   0.636   4.683  2.2487 -0.9094  0.5076
   45MOL   H59945567   5.034   0.586   4.335  0.3036 -0.6593 -1.0210
   45MOL   H60045568   4.879   0.721   4.172  0.2795 -2.3379  0.0414
   45MOL   H60145569   4.713   1.035   4.263  1.4346  0.9728 -0.3528
   45MOL   H60245570   4.520   0.913   4.065  0.4138  0.9946  0.2431
   45MOL   H60345571   4.539   0.860   3.810  0.2803  0.4235 -0.3536
   45MOL   H60445572   4.636   0.920   3.626 -0.5607 -0.6682  0.5707
   45MOL   H60545573   4.748   0.797   3.608 -2.5233  0.6472 -2.1271
   45MOL   H60645574   4.951   0.931   3.820 -0.6036  1.7113 -0.2437
   45MOL   H60745575   4.958   0.948   4.059  0.0802 -2.3222  0.8812
   45MOL   H60845576   4.803   0.994   4.496 -0.7231  0.4320 -1.5256
   45MOL   H60945577   4.919   0.855   4.641  0.7413  0.1261 -0.2498
   45MOL   H61045578   5.233   0.619   4.401 -0.2970 -0.5523  0.1995
   45MOL   H61145579   5.419   0.448   4.395 -0.6040 -0.0934 -0.9447
   45MOL   H61245580   5.589   0.472   4.554 -2.1386 -0.6033  2.4377
   45MOL   H61345581   5.829   0.492   4.586 -0.5386  0.6007  1.3444
   45MOL   N61445582   4.814   1.004   3.598 -0.3484 -0.6539 -0.4191
   45MOL   C61545583   4.874   0.995   3.472 -0.5273  0.0816 -0.1712
   45MOL   C61645584   4.868   0.876   3.398 -0.0675  0.4693  0.0506
   45MOL   C61745585   4.929   0.865   3.275  0.6103 -0.8284 -0.2814
   45MOL   C61845586   5.005   0.972   3.215 -0.0533  0.5000 -0.0278
   45MOL   N61945587   5.087   0.963   3.095 -0.3014 -0.7770 -0.4122
   45MOL   C62045588   5.124   0.851   3.022 -0.4960 -0.6869  0.1239
   45MOL   C62145589   5.138   0.724   3.078 -0.9508 -0.5690  0.0309
   45MOL   C62245590   5.168   0.615   2.990  0.4741  0.2827 -0.3110
   45MOL   C62345591   5.185   0.635   2.853 -0.0192  0.3361  0.0886
   45MOL   N62445592   5.198   0.525   2.766 -0.1363 -0.5198  0.0745
   45MOL   C62545593   5.204   0.392   2.807  0.3519  0.7782  0.2196
   45MOL   C62645594   5.103   0.296   2.785  0.1586 -0.2245  0.9705
   45MOL   C62745595   5.127   0.163   2.829 -0.2134 -0.0289  0.3412
   45MOL   C62845596   5.249   0.125   2.895  0.2304 -0.2686 -0.7460
   45MOL   N62945597   5.278   7.982   2.939 -0.3655 -0.0668  0.1032
   45MOL   C63045598   5.408   7.925   2.940  0.1177  0.1752 -0.7140
   45MOL   C63145599   5.470   7.889   3.061  0.4429 -0.3851  0.1992
   45MOL   C63245600   5.591   7.820   3.059  0.5460 -0.4160 -0.5064
   45MOL   C63345601   5.664   7.806   2.939  0.0170  0.6709  0.2308
   45MOL   C63445602   5.804   7.743   2.938  0.0961  0.3486 -0.1341
   45MOL   C63545603   5.605   7.854   2.822 -0.8954 -0.2529  0.6015
   45MOL   C63645604   5.477   7.912   2.823 -0.0320  0.3598  0.4050
   45MOL   C63745605   5.348   0.224   2.904  0.6279  0.0516 -0.0762
   45MOL   C63845606   5.329   0.352   2.855  0.3024  0.4364 -0.4705
   45MOL   C63945607   5.173   0.764   2.799  0.1636 -0.6406  0.2098
   45MOL   C64045608   5.145   0.878   2.883 -0.3832  0.4994 -0.3418
   45MOL   C64145609   5.009   1.088   3.294  0.8730 -0.6648 -0.5859
   45MOL   C64245610   4.941   1.109   3.414 -0.0135 -0.5874 -0.3993
   45MOL   H64345611   4.807   1.094   3.644 -1.7098 -0.6246 -0.6743
   45MOL   H64445612   4.813   0.791   3.434  0.7215  0.6821  1.8379
   45MOL   H64545613   4.916   0.774   3.218 -2.1963 -0.6508 -0.0042
   45MOL   H64645614   5.084   1.053   3.048  1.6263 -0.9301 -0.8611
   45MOL   H64745615   5.136   0.696   3.183  2.7147 -0.0970  0.2744
   45MOL   H64845616   5.160   0.512   3.022  0.7250 -0.3478 -2.1971
   45MOL   H64945617   5.154   0.540   2.676  0.7614 -0.3091 -0.3329
   45MOL   H65045618   5.012   0.324   2.735  0.7251 -0.3947 -0.1858
   45MOL   H65145619   5.052   0.087   2.812 -1.9123  1.4372  1.1320
   45MOL   H65245620   5.204   7.914   2.935 -0.9683  0.5995 -0.1333
   45MOL   H65345621   5.413   7.906   3.151  1.2221  0.7587  0.4978
   45MOL   H65445622   5.641   7.797   3.152  1.6824  1.0799 -0.7443
   45MOL   H65545623   5.792   7.644   2.894 -3.1824  0.9450 -0.6829
   45MOL   H65645624   5.839   7.724   3.040  0.1688  2.4367  0.2509
   45MOL   H65745625   5.665   7.835   2.734 -0.0239 -0.7104  1.2956
   45MOL   H65845626   5.418   7.932   2.735  0.4589 -2.1337 -0.5466
   45MOL   H65945627   5.442   0.199   2.950  0.3025 -2.3727 -0.6159
   45MOL   H66045628   5.405   0.428   2.857 -1.7349  2.5437 -0.5410
   45MOL   H66145629   5.194   0.781   2.694  0.9357  1.2090  0.6411
   45MOL   H66245630   5.127   0.976   2.842 -1.5832  0.3371 -0.2273
   45MOL   H66345631   5.072   1.169   3.259  1.1421 -1.8908 -3.0762
   45MOL   H66445632   4.931   1.207   3.456 -1.1558 -1.0910  0.5517
   45MOL   N66545633   5.904   7.826   2.882  0.5888 -0.2999  0.6161
   45MOL   C66645634   6.028   7.784   2.912 -0.4049 -0.2770  0.1673
   45MOL   C66745635   6.116   7.866   2.984 -0.4495  0.1287  1.1656
   45MOL   C66845636   6.236   7.811   3.041  0.6708 -0.9801 -0.0703
   45MOL   C66945637   6.271   7.681   3.017  0.1142 -0.2463 -0.0388
   45MOL   N67045638   6.372   7.617   3.089  0.2686 -0.0602  0.5418
   45MOL   C67145639   6.481   7.544   3.037 -0.2968 -0.0071 -0.4246
   45MOL   C67245640   6.552   7.462   3.130 -0.0123  0.3275 -0.1050
   45MOL   C67345641   6.667   7.389   3.097  0.6698 -0.3695 -0.0973
   45MOL   C67445642   6.713   7.393   2.964 -0.3424 -0.1607 -0.0449
   45MOL   N67545643   6.832   7.337   2.916 -0.1062 -0.3492 -0.8686
   45MOL   C67645644   6.848   7.266   2.796 -0.3000  0.2017  0.3799
   45MOL   C67745645   6.976   7.228   2.749  0.3394  0.1994 -0.7131
   45MOL   C67845646   6.988   7.178   2.618  0.3474  0.7917 -0.1900
   45MOL   C67945647   6.882   7.143   2.537  0.5163  1.1155 -0.3968
   45MOL   N68045648   6.896   7.087   2.407 -0.2517 -0.1860 -0.4378
   45MOL   C68145649   6.988   7.131   2.307  0.0208  0.1639  0.4829
   45MOL   C68245650   7.031   7.269   2.306 -0.1717  0.2700  1.0304
   45MOL   C68345651   7.132   7.309   2.216  0.3329 -0.1608 -0.2270
   45MOL   C68445652   7.177   7.217   2.120  0.0386  0.3203 -0.1957
   45MOL   C68545653   7.291   7.265   2.033 -0.2472  0.2695 -0.3234
   45MOL   C68645654   7.129   7.083   2.111 -0.4249  0.1883  0.2362
   45MOL   C68745655   7.029   7.046   2.205  0.1179 -0.3029  0.2320
   45MOL   C68845656   6.757   7.171   2.592 -0.4754 -0.0950  0.5037
   45MOL   C68945657   6.734   7.227   2.718 -0.2063 -0.1444  0.3888
   45MOL   C69045658   6.651   7.489   2.878  0.0448 -0.5626 -0.3849
   45MOL   C69145659   6.533   7.559   2.907 -0.4148 -0.0289 -0.0914
   45MOL   C69245660   6.192   7.607   2.931  0.1417 -0.1466 -0.3544
   45MOL   C69345661   6.069   7.654   2.881  0.2936  0.5733  0.3550
   45MOL   H69445662   5.877   7.923   2.870 -1.1046 -0.8226  0.1763
   45MOL   H69545663   6.089   7.963   3.022 -0.1994  0.5416  0.3048
   45MOL   H69645664   6.296   7.873   3.106  1.7809 -2.2665  0.1472
   45MOL   H69745665   6.386   7.653   3.183 -0.1801 -0.4956  0.7799
   45MOL   H69845666   6.523   7.456   3.234  1.4157 -0.2866  0.2708
   45MOL   H69945667   6.723   7.347   3.179 -1.9662 -0.3668  1.7742
   45MOL   H70045668   6.910   7.340   2.980 -1.0262 -0.5554  0.2868
   45MOL   H70145669   7.066   7.254   2.801  1.2409 -1.2068 -1.5318
   45MOL   H70245670   7.088   7.169   2.577  0.4371 -0.7000  0.3263
   45MOL   H70345671   6.834   7.010   2.387  0.8849 -1.3521  0.4314
   45MOL   H70445672   7.009   7.336   2.388 -0.5658 -1.2429  2.1983
   45MOL   H70545673   7.168   7.410   2.229  1.4765 -0.4050 -1.4186
   45MOL   H70645674   7.381   7.234   2.085 -0.8173 -3.1672 -1.2759
   45MOL   H70745675   7.290   7.374   2.039 -2.1309  0.2207  0.8027
   45MOL   H70845676   7.176   7.016   2.041  0.5006  1.2363 -0.1528
   45MOL   H70945677   7.003   6.941   2.213 -0.9259  0.0183  1.1300
   45MOL   H71045678   6.681   7.143   2.521 -1.2092  0.7199  0.9608
   45MOL   H71145679   6.637   7.263   2.748  0.2984  1.2918  0.3370
   45MOL   H71245680   6.678   7.505   2.775 -1.1496 -1.6262 -0.8739
   45MOL   H71345681   6.477   7.599   2.823 -1.5769 -0.3155  0.5232
   45MOL   H71445682   6.227   7.508   2.905 -2.2693 -0.9691 -0.6208
   45MOL   H71545683   6.003   7.584   2.831  0.7043 -1.0618  2.0445
   45MOL   N71645684   7.270   7.236   1.893  0.3315 -0.3716  0.0523
   45MOL   C71745685   7.362   7.244   1.787  0.5215  0.1993 -0.1398
   45MOL   C71845686   7.486   7.302   1.810 -0.4339 -0.3504  0.0201
   45MOL   C71945687   7.573   7.319   1.704  0.7521  0.5949  0.0410
   45MOL   C72045688   7.550   7.262   1.580  0.1382  0.3921  1.1724
   45MOL   N72145689   7.637   7.268   1.472  0.3859 -0.1547 -0.3126
   45MOL   C72245690   7.722   7.373   1.445  0.1759 -0.1940 -0.3737
   45MOL   C72345691   7.843   7.338   1.386  0.4996 -0.3985  0.4715
   45MOL   C72445692   7.939   7.430   1.357 -0.2520  0.5665  0.0480
   45MOL   C72545693   7.909   7.568   1.369  0.3873 -0.0499  0.0741
   45MOL   N72645694   0.018   7.666   1.329 -0.6594 -0.2855  0.2365
   45MOL   C72745695   0.019   7.805   1.368 -0.3945 -0.2160 -0.3394
   45MOL   C72845696   0.044   7.886   1.255 -0.1585 -0.1650  0.1239
   45MOL   C72945697   0.065   0.043   1.281  0.4187 -0.1334 -0.3507
   45MOL   C73045698   0.031   0.103   1.401 -0.3995 -0.5675 -0.1996
   45MOL   N73145699   0.057   0.236   1.427 -0.3074 -0.6920 -0.2553
   45MOL   C73245700   7.980   0.320   1.519 -0.0277 -0.3922 -0.4453
   45MOL   C73345701   7.854   0.300   1.555 -0.2823 -0.6016 -0.0425
   45MOL   C73445702   7.790   0.386   1.651 -0.6087 -0.0218  0.3807
   45MOL   C73545703   7.860   0.497   1.708  1.0704 -0.3852  0.2873
   45MOL   C73645704   7.791   0.592   1.797 -0.6286 -0.0476 -0.4315
   45MOL   C73745705   0.008   0.514   1.661 -0.1846  0.3072  0.1974
   45MOL   C73845706   0.067   0.426   1.571 -0.4148 -0.4873  0.0284
   45MOL   C73945707   0.011   0.013   1.513 -0.1604 -0.3115 -0.1555
   45MOL   C74045708   0.011   7.856   1.495  0.2401  0.5068  0.9348
   45MOL   C74145709   7.786   7.610   1.423  0.1488 -0.1721 -0.0846
   45MOL   C74245710   7.692   7.509   1.464  0.3405 -0.8760 -0.0066
   45MOL   C74345711   7.429   7.193   1.560 -0.1161 -0.3726  0.2477
   45MOL   C74445712   7.335   7.182   1.666  0.9595 -0.3095 -0.4499
   45MOL   H74545713   7.172   7.224   1.874 -0.0552 -0.3725  1.9400
   45MOL   H74645714   7.513   7.348   1.904 -0.1602 -0.6391  0.0804
   45MOL   H74745715   7.663   7.377   1.719  1.3662 -0.0027 -1.2048
   45MOL   H74845716   7.651   7.190   1.410  2.3740  1.0779 -1.4566
   45MOL   H74945717   7.870   7.235   1.365 -0.9324 -0.6005 -0.4426
   45MOL   H75045718   0.051   7.396   1.317  0.1902  0.5146  1.0992
   45MOL   H75145719   0.075   7.643   1.249  0.6428  0.4386  0.9396
   45MOL   H75245720   0.040   7.848   1.154 -2.8363 -1.6382  0.7550
   45MOL   H75345721   0.094   0.113   1.204 -0.2675 -0.0757 -0.5553
   45MOL   H75445722   0.151   0.265   1.402  0.0429  0.2983  2.0354
   45MOL   H75545723   7.801   0.213   1.518 -0.1184 -0.2792 -1.0511
   45MOL   H75645724   7.687   0.368   1.678 -0.3262 -1.2335  0.7095
   45MOL   H75745725   7.764   0.688   1.754  0.7694  1.3407  1.6696
   45MOL   H75845726   7.859   0.627   1.875  1.0327 -2.2417 -0.8457
   45MOL   H75945727   0.064   0.594   1.707  1.6096 -0.2762 -0.9335
   45MOL   H76045728   0.171   0.442   1.547 -0.7044  0.2613 -0.7169
   45MOL   H76145729   0.019   0.050   1.614  1.6771 -1.8140  0.2671
   45MOL   H76245730   0.002   7.800   1.588  0.1399 -0.0859  0.5698
   45MOL   H76345731   7.763   7.715   1.431 -0.4741 -0.4224  1.6684
   45MOL   H76445732   7.600   7.537   1.513  0.9742  3.0169 -0.8793
   45MOL   H76545733   7.410   7.147   1.464 -0.0713  2.8980 -1.4122
   45MOL   H76645734   7.246   7.122   1.656  0.5100  0.2739 -0.0205
   45MOL   N76745735   7.668   0.544   1.865 -0.6334  0.7218  0.4295
   45MOL   C76845736   7.544   0.597   1.833 -0.0782 -0.2800 -0.0407
   45MOL   C76945737   7.506   0.628   1.700  0.2471  0.8079  0.0416
   45MOL   C77045738   7.391   0.700   1.672 -0.2475 -0.1304  0.6620
   45MOL   C77145739   7.309   0.739   1.782 -0.3105  0.4693 -0.1523
   45MOL   N77245740   7.194   0.819   1.769  0.4503 -0.2101  0.0630
   45MOL   C77345741   7.078   0.830   1.846  0.2778  0.1013 -0.1078
   45MOL   C77445742   7.021   0.717   1.903  1.0059  0.1381  0.0232
   45MOL   C77545743   6.903   0.734   1.972  0.1719 -0.5618  0.4544
   45MOL   C77645744   6.841   0.861   1.991 -0.1114  0.2585  1.0867
   45MOL   N77745745   6.714   0.874   2.047 -0.2009 -0.2643 -0.6671
   45MOL   C77845746   6.639   0.782   2.119 -0.4518  0.0876  0.1586
   45MOL   C77945747   6.500   0.786   2.110 -0.3953 -0.8485 -0.3982
   45MOL   C78045748   6.420   0.692   2.182 -0.3829 -0.1076 -0.7374
   45MOL   C78145749   6.479   0.599   2.271 -0.1977 -0.0679  0.4460
   45MOL   N78245750   6.409   0.492   2.338  0.4403  0.3862  0.5696
   45MOL   C78345751   6.280   0.445   2.309  0.5643  0.1918  0.5337
   45MOL   C78445752   6.176   0.539   2.307 -0.1723  0.9519  0.2084
   45MOL   C78545753   6.046   0.496   2.281 -0.5514 -0.0102 -0.1229
   45MOL   C78645754   6.017   0.355   2.252  0.6722  0.1546  0.1923
   45MOL   C78745755   5.882   0.314   2.196  0.7385 -0.4651 -0.4077
   45MOL   C78845756   6.119   0.260   2.263  0.1615 -0.4517 -0.5892
   45MOL   C78945757   6.251   0.309   2.290 -0.5329 -0.0578 -0.0196
   45MOL   C79045758   6.614   0.610   2.301 -0.6899 -0.4015  0.2293
   45MOL   C79145759   6.693   0.696   2.218  0.3629  0.2461  0.9680
   45MOL   C79245760   6.901   0.975   1.939 -0.7025 -0.4855 -0.2430
   45MOL   C79345761   7.017   0.957   1.859 -0.0191 -0.5514  0.1886
   45MOL   C79445762   7.344   0.696   1.912 -0.3206 -0.0042 -1.1791
   45MOL   C79545763   7.466   0.638   1.941 -0.5269  0.0843  0.5686
   45MOL   H79645764   7.684   0.501   1.955 -2.6521  1.2360  1.0574
   45MOL   H79745765   7.560   0.598   1.611 -0.5523  2.0425 -0.8772
   45MOL   H79845766   7.368   0.726   1.570 -0.8367 -0.4027  0.7212
   45MOL   H79945767   7.171   0.845   1.674  2.2065  0.5258 -0.1870
   45MOL   H80045768   7.069   0.624   1.879  0.9849 -0.1215  0.9721
   45MOL   H80145769   6.852   0.651   2.020 -0.4275  0.1095  0.9773
   45MOL   H80245770   6.658   0.947   2.006  0.7710  0.1984 -1.1685
   45MOL   H80345771   6.450   0.857   2.046  1.4702  0.7727 -0.0900
   45MOL   H80445772   6.313   0.694   2.175 -0.3409  1.0086 -1.2339
   45MOL   H80545773   6.469   0.432   2.394 -1.7879 -2.4848 -0.0341
   45MOL   H80645774   6.189   0.646   2.315  0.1458  0.7086  3.7476
   45MOL   H80745775   5.971   0.573   2.284  0.7334  1.2716 -0.2256
   45MOL   H80845776   5.801   0.387   2.196  0.5734 -0.6382  0.8025
   45MOL   H80945777   5.841   0.240   2.264  0.1681 -1.4650 -1.8062
   45MOL   H81045778   6.102   0.156   2.239 -0.4298 -0.4153 -0.3340
   45MOL   H81145779   6.323   0.229   2.288 -0.7288 -0.2931  1.4774
   45MOL   H81245780   6.657   0.539   2.370 -0.1790  0.8263  1.1970
   45MOL   H81345781   6.801   0.692   2.223  0.3837 -1.3921 -0.4468
   45MOL   H81445782   6.854   1.072   1.941  0.9885  0.4180 -2.0602
   45MOL   H81545783   7.048   1.042   1.800 -0.3317 -0.3861  0.2610
   45MOL   H81645784   7.279   0.724   1.994  0.3243 -0.5123 -0.4826
   45MOL   H81745785   7.494   0.608   2.041 -0.3419 -1.5310  0.0498
   45MOL   N81845786   5.900   0.245   2.067  0.1035 -0.0970 -0.4323
   45MOL   C81945787   5.804   0.242   1.962 -0.2864 -0.4417  0.4841
   45MOL   C82045788   5.838   0.203   1.827 -0.4690 -0.0868  0.9561
   45MOL   C82145789   5.756   0.224   1.717 -0.1384  0.0604  0.1095
   45MOL   C82245790   5.629   0.271   1.738 -0.1807 -0.4431  0.6793
   45MOL   N82345791   5.542   0.288   1.628  0.0044 -0.6283  0.6795
   45MOL   C82445792   5.561   0.239   1.494 -0.3693 -0.2030 -0.6053
   45MOL   C82545793   5.574   0.327   1.387  0.4978  0.0306  0.4439
   45MOL   C82645794   5.620   0.278   1.259  0.5930 -0.1059 -0.3284
   45MOL   C82745795   5.635   0.140   1.242 -0.2262 -0.0266  0.2364
   45MOL   N82845796   5.677   0.091   1.112  0.0859  0.1253 -0.5741
   45MOL   C82945797   5.784   0.004   1.093 -0.6933 -0.5703 -0.3603
   45MOL   C83045798   5.794   7.919   0.976  0.5155 -0.4214  0.4095
   45MOL   C83145799   5.895   7.827   0.942  0.3516  1.7093  0.0965
   45MOL   C83245800   5.993   7.800   1.040 -0.0702 -0.4620 -0.5148
   45MOL   N83345801   6.095   7.713   1.004  0.3199 -0.3685  0.0719
   45MOL   C83445802   6.144   7.699   0.870 -0.2496  1.0855 -0.2590
   45MOL   C83545803   6.142   7.577   0.798  0.4827 -0.3629  0.3646
   45MOL   C83645804   6.201   7.567   0.669 -0.2679  0.5725 -0.1120
   45MOL   C83745805   6.276   7.676   0.616  0.2646  0.9601 -0.4091
   45MOL   C83845806   6.330   7.669   0.476 -0.6786  0.1159  0.3381
   45MOL   C83945807   6.284   7.788   0.694  0.3803  0.2758 -0.1418
   45MOL   C84045808   6.229   7.796   0.821  1.2439 -0.0060  0.3631
   45MOL   C84145809   5.988   7.866   1.164  0.0052  0.1355 -0.1624
   45MOL   C84245810   5.892   7.968   1.180 -0.7779  0.2398 -0.5455
   45MOL   C84345811   5.617   0.045   1.346 -0.2048  0.2509  0.5620
   45MOL   C84445812   5.592   0.099   1.477 -0.3678  0.1448  0.0241
   45MOL   C84545813   5.587   0.303   1.868 -0.6814  0.1586 -0.3627
   45MOL   C84645814   5.677   0.302   1.979 -0.5643 -1.0402 -0.2334
   45MOL   H84745815   5.996   0.230   2.037  0.4511  1.6653 -0.2865
   45MOL   H84845816   5.933   0.157   1.804 -0.8855 -0.9765  0.9947
   45MOL   H84945817   5.799   0.201   1.621 -1.8396 -1.7327 -0.2640
   45MOL   H85045818   5.495   0.378   1.627  2.3380  0.6562 -1.4723
   45MOL   H85145819   5.561   0.431   1.410  2.6983  0.3176  0.4232
   45MOL   H85245820   5.636   0.352   1.182  0.9255  0.5134  0.3211
   45MOL   H85345821   5.615   0.112   1.035  0.7803 -2.8945 -2.0466
   45MOL   H85445822   5.713   7.944   0.908  0.4964  1.2108  1.0177
   45MOL   H85545823   5.892   7.783   0.844  0.0812  0.0066  0.8474
   45MOL   H85645824   6.146   7.664   1.076 -2.5265 -1.3878  1.4634
   45MOL   H85745825   6.087   7.488   0.827  0.6585 -0.9991 -1.2026
   45MOL   H85845826   6.190   7.474   0.615  2.2684  1.2832 -1.9130
   45MOL   H85945827   6.365   7.569   0.453  1.1292  0.0687  3.1131
   45MOL   H86045828   6.407   7.744   0.458 -0.7556  0.3765  1.0628
   45MOL   H86145829   6.334   7.872   0.647 -0.5915  0.7968 -0.2659
   45MOL   H86245830   6.237   7.885   0.882  2.1384 -1.3693  2.2681
   45MOL   H86345831   6.063   7.852   1.239 -0.4674  1.1623  0.5105
   45MOL   H86445832   5.899   0.041   1.273 -1.8371  1.1596 -1.0015
   45MOL   H86545833   5.633   7.921   1.335  1.5050  0.6582 -1.3331
   45MOL   H86645834   5.587   0.033   1.562 -0.4788 -1.2512 -1.0560
   45MOL   H86745835   5.488   0.338   1.894 -1.6825 -1.9272 -1.2548
   45MOL   H86845836   5.644   0.333   2.077  0.8841 -3.0606  0.9290
   45MOL   N86945837   6.219   7.698   0.386 -0.7816  0.8487 -0.0152
   45MOL   C87045838   6.207   7.639   0.258 -0.1683  0.3260  0.3079
   45MOL   C87145839   6.085   7.653   0.195  0.4252  0.1902 -0.8655
   45MOL   C87245840   6.072   7.595   0.071  0.7195 -0.1329  0.3158
   45MOL   C87345841   6.165   7.515   0.003  0.0844 -0.6398 -0.4326
   45MOL   N87445842   6.138   7.452   7.864 -0.0661 -0.0337  0.1711
   45MOL   C87545843   6.025   7.374   7.832 -0.6594 -0.1640  0.3488
   45MOL   C87645844   5.931   7.327   7.929 -0.0304 -0.1851  0.6730
   45MOL   C87745845   5.827   7.242   7.881  0.2218  0.3925 -0.3615
   45MOL   C87845846   5.815   7.207   7.745  0.3391 -0.2644 -0.3468
   45MOL   N87945847   5.706   7.126   7.706 -0.6337 -0.4159 -0.4519
   45MOL   C88045848   5.664   7.082   7.577  0.2658  0.0727 -0.5400
   45MOL   C88145849   5.654   7.164   7.466 -0.0848  0.3926 -0.0048
   45MOL   C88245850   5.608   7.113   7.350 -0.6831 -0.0821  0.5763
   45MOL   C88345851   5.579   6.975   7.338  0.8367  0.1979  0.0353
   45MOL   N88445852   5.543   6.936   7.209  0.0628  0.4150 -0.8292
   45MOL   C88545853   5.431   6.861   7.179  0.4655  0.8558  0.2168
   45MOL   C88645854   5.439   6.791   7.057 -0.5107 -0.6079  0.3701
   45MOL   C88745855   5.330   6.714   7.008 -0.4712  0.2031  0.4315
   45MOL   C88845856   5.213   6.702   7.082 -0.0568 -0.1427  0.6425
   45MOL   C88945857   5.095   6.623   7.025  0.2330 -0.6345  0.0877
   45MOL   C89045858   5.202   6.778   7.205  0.0059  0.0414 -0.2371
   45MOL   C89145859   5.310   6.860   7.252  0.3869  0.0777 -0.2808
   45MOL   C89245860   5.604   6.889   7.447 -0.2816 -0.4570  0.5368
   45MOL   C89345861   5.647   6.941   7.568 -0.2236 -0.5916 -0.2467
   45MOL   C89445862   5.904   7.266   7.654  0.7296  0.0604  0.7265
   45MOL   C89545863   6.012   7.350   7.694  0.0779 -0.4383 -0.2770
   45MOL   C89645864   6.296   7.503   0.061 -0.6770 -0.3286  0.5503
   45MOL   C89745865   6.315   7.567   0.191  0.0015  0.4299  0.7946
   45MOL   H89845866   6.133   7.722   0.432 -1.3053  1.2441 -1.1933
   45MOL   H89945867   5.999   7.703   0.236 -0.6606 -1.0746 -1.5699
   45MOL   H90045868   5.978   7.596   0.019  0.4336  1.2709  0.8399
   45MOL   H90145869   6.224   7.440   7.813  0.1796  1.6563  0.1287
   45MOL   H90245870   5.924   7.352   0.052  0.4841  1.0417  0.4287
   45MOL   H90345871   5.753   7.204   7.950 -0.5582  1.8619 -0.3862
   45MOL   H90445872   5.667   7.072   7.782  0.8816 -0.6339  0.1877
   45MOL   H90545873   5.669   7.271   7.473 -0.3437  0.5091 -1.1858
   45MOL   H90645874   5.588   7.171   7.261 -0.2286 -0.0506  0.4910
   45MOL   H90745875   5.588   6.983   7.131 -0.5877  1.8120 -0.3681
   45MOL   H90845876   5.524   6.791   6.990  0.5583  2.3837  1.6271
   45MOL   H90945877   5.351   6.665   6.914  2.6403  2.2588 -0.0130
   45MOL   H91045878   5.072   6.645   6.920 -2.4428 -1.1597  0.5245
   45MOL   H91145879   4.997   6.640   7.068  0.3486  0.3790 -0.0476
   45MOL   H91245880   5.104   6.788   7.249  0.0371 -1.2563  0.1558
   45MOL   H91345881   5.286   6.924   7.336 -3.1976 -1.2246 -0.2058
   45MOL   H91445882   5.590   6.782   7.450 -1.3725 -0.3079  1.4245
   45MOL   H91545883   5.662   6.874   7.652  0.1431  0.4925  0.5643
   45MOL   H91645884   5.902   7.234   7.551 -1.0432 -0.3779  0.8730
   45MOL   H91745885   6.090   7.381   7.627 -0.2646  0.0870 -0.4383
   45MOL   H91845886   6.378   7.456   0.008  0.9689  0.9147  1.9183
   45MOL   H91945887   6.411   7.553   0.237 -0.4245 -0.4819  1.4148
   45MOL   N92045888   5.124   6.478   7.030 -0.0477  0.2116  0.1815
   45MOL   C92145889   5.152   6.401   6.915 -0.1254 -0.0488 -0.8026
   45MOL   C92245890   5.284   6.351   6.900  1.3485 -0.0376 -0.1902
   45MOL   C92345891   5.320   6.286   6.775 -0.2592 -0.3838 -1.1740
   45MOL   C92445892   5.229   6.269   6.673  0.0330 -0.5221 -0.1520
   45MOL   N92545893   5.253   6.204   6.558 -0.6826 -0.6008  0.1482
   45MOL   C92645894   5.377   6.215   6.484  0.6025  0.5955  0.5696
   45MOL   C92745895   5.398   6.118   6.383 -0.4152 -0.3836 -0.1582
   45MOL   C92845896   5.508   6.119   6.294  0.1449 -0.7516  0.1515
   45MOL   C92945897   5.597   6.225   6.310  0.5347 -0.3811  0.3093
   45MOL   N93045898   5.706   6.234   6.221 -0.7090  1.2279  0.0433
   45MOL   C93145899   5.797   6.134   6.186 -0.2474  0.2784 -0.0411
   45MOL   C93245900   5.822   6.026   6.274  0.0741  0.2722 -0.3681
   45MOL   C93345901   5.923   5.930   6.240 -0.2952 -0.5273 -0.6364
   45MOL   C93445902   5.992   5.941   6.119  0.3614  0.4641 -0.3826
   45MOL   N93545903   6.095   5.852   6.096  0.1309 -0.1072 -0.4920
   45MOL   C93645904   6.179   5.843   5.989  1.1640  0.8872  0.1212
   45MOL   C93745905   6.178   5.720   5.925  0.0824 -0.3432 -0.7100
   45MOL   C93845906   6.253   5.706   5.814 -0.6515 -0.0351  0.4032
   45MOL   C93945907   6.327   5.814   5.757 -0.7717 -0.4058 -0.3779
   45MOL   C94045908   6.393   5.800   5.623  0.2832  0.8801 -0.1733
   45MOL   C94145909   6.334   5.943   5.823 -0.7217  0.4848  0.3742
   45MOL   C94245910   6.256   5.948   5.942  0.0288  0.0334  0.5399
   45MOL   C94345911   5.957   6.044   6.028  0.3530  0.2884 -0.2404
   45MOL   C94445912   5.868   6.142   6.064 -0.2273 -0.2258 -0.8935
   45MOL   C94545913   5.570   6.331   6.397  0.1795  0.3484  0.4583
   45MOL   C94645914   5.462   6.328   6.481  0.1939 -0.1883 -0.0158
   45MOL   C94745915   5.097   6.313   6.693  0.3457 -0.3394  0.0356
   45MOL   C94845916   5.063   6.388   6.807  0.5153 -0.4312  0.0350
   45MOL   H94945917   5.194   6.464   7.101 -1.1409  0.1530  1.2751
   45MOL   H95045918   5.359   6.370   6.976  3.3199 -2.9908 -1.2820
   45MOL   H95145919   5.425   6.273   6.759 -0.3275  1.5750 -3.6223
   45MOL   H95245920   5.168   6.183   6.509 -0.1640 -0.4567 -0.8339
   45MOL   H95345921   5.333   6.032   6.378 -0.9715  0.0215 -0.0096
   45MOL   H95445922   5.524   6.038   6.224  1.4581 -1.2633  1.0148
   45MOL   H95545923   5.708   6.318   6.165 -1.2764  1.4174  0.3055
   45MOL   H95645924   5.775   6.006   6.369  2.8312 -1.6897  0.6540
   45MOL   H95745925   5.942   5.844   6.303 -2.0212  0.4384  1.2688
   45MOL   H95845926   6.091   5.767   6.152 -0.3629 -1.0837 -1.9981
   45MOL   H95945927   6.108   5.642   5.949  0.2749 -1.3705 -3.2992
   45MOL   H96045928   6.257   5.611   5.763  0.2887  0.2510 -0.0725
   45MOL   H96145929   6.461   5.884   5.612  0.4796  0.7787  0.2667
   45MOL   H96245930   6.319   5.805   5.543 -0.3871 -1.3668  0.2535
   45MOL   H96345931   6.383   6.030   5.780  0.2720 -0.4032 -0.3332
   45MOL   H96445932   6.269   6.041   5.996  2.8473 -0.7541  1.3313
   45MOL   H96545933   6.012   6.050   5.935 -1.6915  0.0624 -1.4788
   45MOL   H96645934   5.849   6.224   5.996  0.9049  1.9994  1.3819
   45MOL   H96745935   5.637   6.416   6.398 -2.5894  2.5764  2.5233
   45MOL   H96845936   5.442   6.415   6.541  3.0733  0.3334  0.2776
   45MOL   H96945937   5.033   6.304   6.606  0.0800 -0.8859  0.2849
   45MOL   H97045938   4.966   6.435   6.813  0.6169 -0.3728  1.4810
   45MOL   N97145939   6.482   5.695   5.629  0.3838 -0.4378  0.2085
   45MOL   C97245940   6.437   5.584   5.563  0.1214 -0.1579  0.3389
   45MOL   C97345941   6.390   5.581   5.428 -0.1977 -0.3282 -0.1145
   45MOL   C97445942   6.337   5.466   5.370  0.4131  0.3747 -0.3861
   45MOL   C97545943   6.326   5.348   5.441 -0.7430  0.3126  0.1893
   45MOL   N97645944   6.272   5.239   5.373 -0.2575  0.1932 -0.3004
   45MOL   C97745945   6.205   5.122   5.422  0.3482  0.4020 -0.1950
   45MOL   C97845946   6.163   5.121   5.559 -0.2519 -0.1405 -0.4228
   45MOL   C97945947   6.096   5.006   5.608  0.4061 -0.3774  0.0285
   45MOL   C98045948   6.059   4.898   5.520 -0.2329 -0.1685 -0.0095
   45MOL   N98145949   5.989   4.780   5.565  0.6730 -0.1751 -0.3533
   45MOL   C98245950   5.870   4.712   5.516 -0.2107 -1.0416  0.6690
   45MOL   C98345951   5.804   4.772   5.407  0.4739  0.2754 -0.4397
   45MOL   C98445952   5.692   4.719   5.353 -0.1423  0.3517  0.0257
   45MOL   C98545953   5.646   4.596   5.406 -0.0456  0.4338 -0.1064
   45MOL   N98645954   5.537   4.532   5.347 -0.2929  0.3048  0.0344
   45MOL   C98745955   5.431   4.462   5.401  0.3746  0.4140  0.2304
   45MOL   C98845956   5.348   4.397   5.310 -0.1608  0.0280 -0.3377
   45MOL   C98945957   5.231   4.334   5.352  0.2324 -0.3295  0.4213
   45MOL   C99045958   5.195   4.336   5.491 -0.2667  0.4804 -0.2391
   45MOL   C99145959   5.064   4.282   5.542  0.0256 -0.3591 -0.7372
   45MOL   C99245960   5.289   4.388   5.582 -0.6953  0.5639  0.6579
   45MOL   C99345961   5.401   4.459   5.535  0.7630 -0.4362  0.3481
   45MOL   C99445962   5.707   4.534   5.516  0.1879  0.3441  0.5242
   45MOL   C99545963   5.821   4.592   5.573 -0.3599 -0.1319 -0.1602
   45MOL   C99645964   6.094   4.910   5.383  0.6221  0.1725 -0.2538
   45MOL   C99745965   6.174   5.014   5.335  0.2676 -0.2595 -0.3558
   45MOL   C99845966   6.393   5.340   5.565 -0.7271  0.2609 -0.3139
   45MOL   C99945967   6.454   5.457   5.622 -0.2263  0.4037  0.5344
   45MOL     H145968   6.506   5.672   5.724  2.7157  1.0615  0.0186
   45MOL     H245969   6.384   5.673   5.371  3.9383 -1.0262 -1.8380
   45MOL     H345970   6.308   5.455   5.267  1.7344 -2.4044 -0.5007
   45MOL     H445971   6.229   5.260   5.284 -1.0205  3.2130  0.7139
   45MOL     H545972   6.182   5.196   5.633  0.8961 -1.9287  1.1521
   45MOL     H645973   6.039   4.999   5.699  0.2966  1.1834  0.0916
   45MOL     H745974   6.022   4.733   5.649  1.3900 -0.8189 -0.9771
   45MOL     H845975   5.822   4.875   5.379 -0.8340  0.4039 -0.8197
   45MOL     H945976   5.635   4.752   5.267 -1.5713 -1.6039  0.1908
   45MOL    H1045977   5.528   4.546   5.247 -0.3613  2.0248  0.2625
   45MOL    H1145978   5.366   4.403   5.204 -1.9882 -0.8369 -0.7083
   45MOL    H1245979   5.160   4.287   5.285  1.3152 -0.8182 -0.4035
   45MOL    H1345980   5.023   4.200   5.484  0.1726 -0.0771 -1.2421
   45MOL    H1445981   4.983   4.353   5.523 -1.7443 -1.5379  1.9770
   45MOL    H1545982   5.269   4.377   5.687 -0.0493  0.9144  0.8150
   45MOL    H1645983   5.456   4.514   5.610 -0.7080  0.9588  0.4267
   45MOL    H1745984   5.682   4.435   5.552 -1.4940  0.8553  0.8428
   45MOL    H1845985   5.879   4.534   5.643 -1.9450  0.0870  1.3690
   45MOL    H1945986   6.073   4.831   5.312 -0.1856 -1.3609  1.6348
   45MOL    H2045987   6.208   5.016   5.232  0.7030 -0.7649 -0.2240
   45MOL    H2145988   6.406   5.246   5.616 -3.0208  0.7026  1.1632
   45MOL    H2245989   6.514   5.444   5.712  2.3342  1.2194 -0.9784
   45MOL    H2345990   5.073   4.251   5.647 -1.8800  1.6765  0.0791
   46MOL     N145991   7.391   4.627   3.465  0.0230  0.0857 -0.4210
   46MOL     C245992   7.388   4.521   3.552 -0.0658  0.6266 -0.3752
   46MOL     C345993   7.362   4.386   3.512  0.1345 -0.3196 -0.4283
   46MOL     C445994   7.371   4.274   3.603 -0.2679 -0.1927 -0.6699
   46MOL     C545995   7.414   4.307   3.737  0.1606  0.2108  1.0227
   46MOL     N645996   7.445   4.201   3.820  0.3029 -0.7373  0.5150
   46MOL     C745997   7.409   4.065   3.807 -0.5422 -0.3748 -0.6507
   46MOL     C845998   7.274   4.041   3.776 -0.1185  0.1259 -0.2658
   46MOL     C945999   7.232   3.906   3.757 -0.3843 -0.0319  0.1582
   46MOL    C1046000   7.324   3.800   3.761 -0.1015  0.4927 -0.3281
   46MOL    N1146001   7.269   3.666   3.755 -0.3745 -0.5386  0.2037
   46MOL    C1246002   7.341   3.546   3.738 -0.4044 -0.5989 -0.0703
   46MOL    C1346003   7.452   3.541   3.660  0.4135  0.6545  0.0022
   46MOL    C1446004   7.528   3.423   3.646 -0.3567  0.4292  0.3091
   46MOL    C1546005   7.477   3.304   3.699 -0.5249 -0.2581  0.2106
   46MOL    N1646006   7.548   3.188   3.679  0.3137 -0.0143  0.0740
   46MOL    C1746007   7.499   3.062   3.662 -0.2448 -0.2945 -0.2222
   46MOL    C1846008   7.596   2.955   3.664  0.2749 -0.0113 -0.4445
   46MOL    C1946009   7.562   2.821   3.634  0.0960  0.2579 -0.2993
   46MOL    C2046010   7.429   2.791   3.603  0.0743  0.0778  0.3782
   46MOL    C2146011   7.393   2.651   3.562  0.7480  0.5362 -0.3382
   46MOL    C2246012   7.337   2.895   3.600  0.3977 -0.4247 -0.0016
   46MOL    C2346013   7.372   3.032   3.627 -0.3761  1.1493  0.5978
   46MOL    C2446014   7.358   3.305   3.773  0.0234 -0.0285 -0.1344
   46MOL    C2546015   7.297   3.430   3.801  0.2055 -0.2392 -0.0501
   46MOL    C2646016   7.458   3.827   3.799 -0.8084  0.0034  0.5807
   46MOL    C2746017   7.500   3.959   3.816  0.3377 -0.6112  0.5522
   46MOL    C2846018   7.434   4.440   3.779  1.0516  0.3283 -0.5056
   46MOL    C2946019   7.409   4.545   3.684 -0.2608 -0.4819 -0.5302
   46MOL    H3046020   7.461   4.698   3.483 -1.2351  1.7357 -1.8137
   46MOL    H3146021   7.335   4.357   3.411 -0.7074 -0.2087 -0.2415
   46MOL    H3246022   7.357   4.173   3.568 -1.5835 -0.7586  1.4369
   46MOL    H3346023   7.493   4.224   3.906  2.1899 -0.5803 -0.5327
   46MOL    H3446024   7.201   4.119   3.792 -1.2389 -0.9244 -0.1280
   46MOL    H3546025   7.129   3.885   3.737 -0.3083  1.1699 -1.6600
   46MOL    H3646026   7.169   3.662   3.748 -0.3974  0.3713 -0.0889
   46MOL    H3746027   7.508   3.628   3.629  1.4637 -0.1243 -0.3294
   46MOL    H3846028   7.626   3.423   3.602  0.7457  2.3812  2.6128
   46MOL    H3946029   7.648   3.198   3.688  0.3305 -1.6733  2.1015
   46MOL    H4046030   7.696   2.982   3.693 -0.7676  3.0167  0.5508
   46MOL    H4146031   7.638   2.744   3.634  0.7748  0.9012  1.8628
   46MOL    H4246032   7.462   2.625   3.481  1.9844  1.2214  0.4832
   46MOL    H4346033   7.288   2.659   3.534  0.6224  2.1116  0.5241
   46MOL    H4446034   7.234   2.869   3.582  0.2870  1.5217 -2.3718
   46MOL    H4546035   7.292   3.104   3.613 -0.2588  1.1778  0.0372
   46MOL    H4646036   7.308   3.217   3.812  1.0396 -0.3611  0.4288
   46MOL    H4746037   7.210   3.431   3.865  0.2563  0.5632  0.0108
   46MOL    H4846038   7.522   3.742   3.816  2.1403  2.0871  0.3434
   46MOL    H4946039   7.605   3.976   3.837 -0.2541  1.7746  1.6827
   46MOL    H5046040   7.458   4.461   3.883 -0.6217  0.5928 -0.1514
   46MOL    H5146041   7.439   4.645   3.715 -0.6689 -0.4599 -0.2123
   46MOL    H5246042   7.377   4.603   3.368 -1.1818  0.0436 -0.2526
   46MOL    N5346043   7.413   2.564   3.680 -0.2022 -0.7743  0.0759
   46MOL    C5446044   7.368   2.431   3.679  0.1100  0.0385 -0.2690
   46MOL    C5546045   7.326   2.378   3.800  0.4411  0.4457 -0.3937
   46MOL    C5646046   7.291   2.240   3.807  0.3931 -0.4904 -0.8860
   46MOL    C5746047   7.301   2.156   3.695 -0.3889  0.0233 -0.0994
   46MOL    N5846048   7.282   2.018   3.697  0.6090 -0.5376  0.1009
   46MOL    C5946049   7.229   1.934   3.791  0.3367 -0.1774 -0.5997
   46MOL    C6046050   7.266   1.803   3.788  0.2802  0.1575  0.1246
   46MOL    C6146051   7.244   1.730   3.899  0.5480  0.1298 -0.2294
   46MOL    C6246052   7.150   1.762   3.992  0.8127  0.0260  0.0542
   46MOL    N6346053   7.108   1.669   4.094 -0.0792 -0.6686 -1.0869
   46MOL    C6446054   7.119   1.533   4.105  0.6906 -0.8323  0.3439
   46MOL    C6546055   7.139   1.475   4.234  0.2690 -0.7621  0.1230
   46MOL    C6646056   7.144   1.334   4.249 -0.2990  0.3654 -0.1130
   46MOL    C6746057   7.144   1.247   4.139  0.6961 -0.0396 -0.3084
   46MOL    N6846058   7.154   1.107   4.155 -0.3092 -0.1503  0.3953
   46MOL    C6946059   7.241   1.036   4.237  0.2836  0.2937 -0.3781
   46MOL    C7046060   7.338   1.095   4.315  0.0143 -0.1547 -0.1492
   46MOL    C7146061   7.427   1.015   4.394 -0.0233 -0.2005  0.6141
   46MOL    C7246062   7.410   0.879   4.397  0.1697  0.0063  0.7076
   46MOL    C7346063   7.509   0.793   4.488  0.5032  0.2742 -0.4001
   46MOL    C7446064   7.307   0.813   4.326  0.0600 -0.0109 -0.2708
   46MOL    C7546065   7.226   0.896   4.245  0.0746 -0.7690 -0.4018
   46MOL    C7646066   7.111   1.307   4.011 -0.9091  0.0651 -0.2754
   46MOL    C7746067   7.109   1.449   3.994  0.1505 -0.5357 -0.6558
   46MOL    C7846068   7.103   1.892   3.995 -0.4242 -0.1772 -0.0581
   46MOL    C7946069   7.134   1.978   3.889  0.1512  0.1803  1.1063
   46MOL    C8046070   7.333   2.214   3.571  0.4715 -0.7732 -0.7819
   46MOL    C8146071   7.362   2.354   3.562  0.1055 -0.5946 -0.1500
   46MOL    H8246072   7.414   2.608   3.771 -2.4342  1.3517 -0.8581
   46MOL    H8346073   7.331   2.437   3.890  1.5848 -0.7759  0.3565
   46MOL    H8446074   7.283   2.194   3.904 -1.4116 -0.5203 -1.0308
   46MOL    H8546075   7.320   1.967   3.618  3.8059  0.7459  0.7515
   46MOL    H8646076   7.330   1.760   3.712 -1.3349 -3.9857  0.9500
   46MOL    H8746077   7.298   1.636   3.905  1.3044  0.5273 -0.7470
   46MOL    H8846078   7.078   1.716   4.179  2.4260 -0.7220 -0.1163
   46MOL    H8946079   7.156   1.543   4.316 -3.8492 -2.6890  2.7483
   46MOL    H9046080   7.154   1.285   4.344  1.3237  0.5289 -0.1912
   46MOL    H9146081   7.114   1.064   4.073  0.5567  1.3819 -0.8718
   46MOL    H9246082   7.359   1.201   4.313  0.3702 -0.2221  0.0029
   46MOL    H9346083   7.498   1.066   4.458 -0.2107  1.8459 -0.7629
   46MOL    H9446084   7.458   0.703   4.522 -1.0246  0.6803 -1.5893
   46MOL    H9546085   7.517   0.857   4.576 -1.0359 -0.2415  0.1276
   46MOL    H9646086   7.291   0.706   4.323 -1.8542  0.3186 -3.6506
   46MOL    H9746087   7.140   0.862   4.188  0.8128  0.2087 -2.1243
   46MOL    H9846088   7.117   1.241   3.926  1.8202 -1.3952  0.9722
   46MOL    H9946089   7.090   1.492   3.896 -2.0907 -0.2001 -0.0861
   46MOL   H10046090   7.046   1.927   4.079 -1.1917  0.9080 -1.0231
   46MOL   H10146091   7.096   2.078   3.900  1.4784  0.9096 -0.8735
   46MOL   H10246092   7.335   2.157   3.479 -1.5510 -1.3249 -0.4951
   46MOL   H10346093   7.397   2.397   3.470 -2.5023  0.3367 -0.7392
   46MOL   N10446094   7.637   0.757   4.417  0.2916 -0.0944 -0.5326
   46MOL   C10546095   7.723   0.657   4.460 -0.7891 -0.3487  0.2526
   46MOL   C10646096   7.730   0.616   4.597 -0.1171 -0.0045 -0.0199
   46MOL   C10746097   7.821   0.509   4.637  0.0649 -0.0051  0.0450
   46MOL   C10846098   7.901   0.444   4.544  0.4667 -0.5835 -0.6367
   46MOL   N10946099   7.971   0.333   4.588  0.7885 -0.1623  0.4562
   46MOL   C11046100   0.123   0.299   4.570  0.6636 -0.3113 -0.2278
   46MOL   C11146101   0.194   0.358   4.467 -0.5681 -0.0317  0.1190
   46MOL   C11246102   0.325   0.332   4.443  0.0003 -0.1999  0.2329
   46MOL   C11346103   0.380   0.225   4.512  0.3941  0.3113  0.5822
   46MOL   N11446104   0.510   0.180   4.487 -0.7489  0.3499 -0.1448
   46MOL   C11546105   0.628   0.247   4.499 -0.5804  0.1744  0.0265
   46MOL   C11646106   0.747   0.171   4.532  0.5094 -0.7023  0.1390
   46MOL   C11746107   0.869   0.235   4.539 -0.5318 -0.2376 -0.7543
   46MOL   C11846108   0.878   0.373   4.523 -0.4443 -0.0523 -0.0954
   46MOL   N11946109   1.011   0.434   4.525  0.1765  0.6371 -0.6965
   46MOL   C12046110   1.041   0.554   4.595 -0.6004 -0.0845  0.6250
   46MOL   C12146111   1.133   0.639   4.532  0.6428 -1.6683 -0.0992
   46MOL   C12246112   1.159   0.771   4.584 -0.6336 -1.0944 -0.5148
   46MOL   C12346113   1.113   0.799   4.717  0.7782  0.4764 -0.6544
   46MOL   C12446114   1.145   0.928   4.787 -0.3494 -0.2406  0.4226
   46MOL   C12546115   1.027   0.706   4.783  0.3083 -0.7237  0.1420
   46MOL   C12646116   0.991   0.584   4.724  0.1603  0.3992 -0.6155
   46MOL   C12746117   0.763   0.451   4.508 -0.2721  0.2630 -0.1717
   46MOL   C12846118   0.639   0.388   4.498  0.1319 -0.1401  0.2222
   46MOL   C12946119   0.312   0.153   4.612 -0.2512  0.2446  0.2211
   46MOL   C13046120   0.178   0.190   4.635  0.0061 -0.9208  0.0323
   46MOL   C13146121   7.894   0.491   4.411 -0.1485 -0.2962  0.5922
   46MOL   C13246122   7.811   0.597   4.373  0.6281 -0.0574  0.0751
   46MOL   H13346123   7.620   0.752   4.318  0.0675  0.8741 -0.5495
   46MOL   H13446124   7.664   0.662   4.668 -0.6348  0.3593 -0.7268
   46MOL   H13546125   7.819   0.484   4.742 -1.4816  0.4963  0.1541
   46MOL   H13646126   7.945   0.311   4.683 -0.5748  0.1578  0.1737
   46MOL   H13746127   0.150   0.443   4.416 -0.0440 -0.4316 -1.0159
   46MOL   H13846128   0.383   0.386   4.369  0.7450 -0.7993  0.3697
   46MOL   H13946129   0.528   0.082   4.505  1.0926  0.9460  1.4552
   46MOL   H14046130   0.749   0.066   4.556 -1.0796 -1.0422 -1.1536
   46MOL   H14146131   0.957   0.176   4.564 -0.3319  1.3431  2.4727
   46MOL   H14246132   1.074   0.397   4.456  2.8438  3.0971  0.3175
   46MOL   H14346133   1.173   0.614   4.435  0.2245 -2.2817 -0.1144
   46MOL   H14446134   1.226   0.836   4.532  0.2068 -0.8092  0.8919
   46MOL   H14546135   1.054   0.966   4.834 -2.7023 -2.8766 -1.8531
   46MOL   H14646136   1.172   0.994   4.704  0.1095  0.7060  1.3158
   46MOL   H14746137   0.999   0.743   4.880  1.6291 -0.2744  0.3668
   46MOL   H14846138   0.912   0.523   4.765  0.5205 -0.4370 -1.1331
   46MOL   H14946139   0.775   0.558   4.506 -2.2695  0.4918 -1.9861
   46MOL   H15046140   0.556   0.454   4.477  0.3691  0.1779  0.2772
   46MOL   H15146141   0.354   0.066   4.661  0.4420  0.9662  0.9253
   46MOL   H15246142   0.121   0.138   4.710  0.6297 -1.4479  0.1390
   46MOL   H15346143   7.943   0.434   4.333 -0.9885  0.5270 -0.5489
   46MOL   H15446144   7.812   0.625   4.269 -0.1542 -0.0891  0.0552
   46MOL   N15546145   1.257   0.926   4.881 -0.9252 -0.3970 -0.2642
   46MOL   C15646146   1.320   1.047   4.899 -0.4754  0.0493  0.0706
   46MOL   C15746147   1.263   1.169   4.862  0.4666 -0.1500  0.4989
   46MOL   C15846148   1.320   1.292   4.868 -0.5798  0.8189 -0.1055
   46MOL   C15946149   1.451   1.304   4.914  0.0658 -0.1736 -0.0189
   46MOL   N16046150   1.495   1.430   4.925 -0.2137 -0.0269 -0.4769
   46MOL   C16146151   1.629   1.476   4.930  0.4357 -0.1102 -0.0980
   46MOL   C16246152   1.734   1.400   4.872  0.5816 -0.0129  0.3952
   46MOL   C16346153   1.870   1.436   4.878 -1.2014  0.0039  0.2681
   46MOL   C16446154   1.904   1.556   4.941  0.4639  0.0239 -0.0453
   46MOL   N16546155   2.037   1.592   4.967 -0.2031 -0.1604  0.3590
   46MOL   C16646156   2.144   1.513   5.003  0.2534  0.4118  0.0974
   46MOL   C16746157   2.232   1.567   5.101  0.7438  0.3108  0.2057
   46MOL   C16846158   2.336   1.491   5.153  1.2222  0.1318  0.1714
   46MOL   C16946159   2.371   1.364   5.094  0.0771  0.2785 -0.0852
   46MOL   N17046160   2.491   1.303   5.131  0.1398 -0.0408 -0.0606
   46MOL   C17146161   2.519   1.165   5.124 -0.1208  0.2486 -0.6643
   46MOL   C17246162   2.423   1.059   5.107  0.4102 -0.0806 -0.3672
   46MOL   C17346163   2.460   0.924   5.116 -0.5734  0.3488  0.0772
   46MOL   C17446164   2.592   0.891   5.138 -0.1081  0.1953  0.1516
   46MOL   C17546165   2.633   0.744   5.133  0.2026 -0.3200 -0.3873
   46MOL   C17646166   2.690   0.991   5.150 -0.4947  0.1279 -0.1388
   46MOL   C17746167   2.650   1.125   5.145  0.3044 -0.1733 -0.7508
   46MOL   C17846168   2.290   1.324   4.985  0.1331  0.4539 -0.6809
   46MOL   C17946169   2.180   1.398   4.933  0.4913  0.1217 -0.7973
   46MOL   C18046170   1.799   1.637   4.987  0.3897  0.2113 -0.0604
   46MOL   C18146171   1.661   1.601   4.988 -0.2644 -0.5006  0.5321
   46MOL   C18246172   1.510   1.184   4.968  0.5062 -0.3625 -0.2937
   46MOL   C18346173   1.450   1.063   4.951  0.2894  0.0909  0.0409
   46MOL   H18446174   1.317   0.846   4.869  0.7521  0.7189  0.4993
   46MOL   H18546175   1.164   1.177   4.819 -0.5162  0.8837  2.8591
   46MOL   H18646176   1.271   1.383   4.835 -1.9450  0.0822 -0.1390
   46MOL   H18746177   1.429   1.497   4.961  1.2898  0.0674  2.2707
   46MOL   H18846178   1.705   1.303   4.834 -1.7201  1.1052 -0.7582
   46MOL   H18946179   1.944   1.373   4.830  0.0553  1.7492 -0.1384
   46MOL   H19046180   2.038   1.690   4.993  1.8553  0.0611 -0.4130
   46MOL   H19146181   2.203   1.662   5.143  0.3273  0.0175  0.5836
   46MOL   H19246182   2.391   1.522   5.240  1.4094 -2.2198  0.9501
   46MOL   H19346183   2.552   1.350   5.197  2.2438 -1.6688 -0.7999
   46MOL   H19446184   2.320   1.085   5.087  0.3031 -0.8228 -0.7886
   46MOL   H19546185   2.395   0.840   5.096 -0.4080  0.2668 -0.1231
   46MOL   H19646186   2.580   0.706   5.221  1.4016  0.0351  0.5049
   46MOL   H19746187   2.741   0.735   5.148  0.0426  0.3290  1.2453
   46MOL   H19846188   2.794   0.965   5.146 -0.1207  1.5980 -0.1658
   46MOL   H19946189   2.726   1.201   5.157 -1.2580  0.9947  1.9487
   46MOL   H20046190   2.317   1.239   4.925  0.7084  0.8255 -0.9550
   46MOL   H20146191   2.132   1.360   4.845  0.4979  0.4649 -0.9501
   46MOL   H20246192   1.818   1.733   5.033  0.6094  1.3039 -2.3368
   46MOL   H20346193   1.581   1.656   5.035 -0.8097  1.3299 -2.4052
   46MOL   H20446194   1.605   1.193   5.020  0.3313 -0.6951  0.0813
   46MOL   H20546195   1.492   0.975   4.998  0.0695  1.2435  2.5139
   46MOL   N20646196   2.599   0.670   5.009  0.1675 -0.3817 -0.5428
   46MOL   C20746197   2.650   0.538   4.993  0.1975  0.2799 -0.3351
   46MOL   C20846198   2.614   0.477   4.874 -0.4985  0.5104  0.0121
   46MOL   C20946199   2.667   0.348   4.835 -0.3517  0.1326 -0.1346
   46MOL   C21046200   2.737   0.277   4.934 -0.5205  0.6893 -0.3760
   46MOL   N21146201   2.771   0.147   4.907 -0.7084  0.5583  0.6716
   46MOL   C21246202   2.811   0.090   4.792 -0.7116  0.2087  0.5118
   46MOL   C21346203   2.941   0.120   4.738  0.8583 -0.2286  0.4485
   46MOL   C21446204   2.986   0.045   4.623 -0.5315 -0.1956 -0.6796
   46MOL   C21546205   2.901   7.933   4.555  0.7630  0.2860 -0.2146
   46MOL   N21646206   2.948   7.879   4.430 -0.2941 -0.4412  0.2663
   46MOL   C21746207   3.083   7.885   4.394 -0.6487  0.1007  0.6405
   46MOL   C21846208   3.179   7.804   4.460  0.4300  0.0267  0.3808
   46MOL   C21946209   3.318   7.815   4.439 -0.4007  0.0494  0.5878
   46MOL   C22046210   3.364   7.889   4.334  0.2903  0.3514 -0.1133
   46MOL   N22146211   3.502   7.901   4.301 -0.2045  0.7137  0.8038
   46MOL   C22246212   3.621   7.835   4.344 -0.3572  0.0600 -0.8937
   46MOL   C22346213   3.625   7.702   4.397  0.2199 -0.0946  0.2367
   46MOL   C22446214   3.745   7.645   4.446 -0.0484  0.1680 -0.3491
   46MOL   C22546215   3.861   7.723   4.453  0.0142 -0.1603  0.5230
   46MOL   C22646216   3.995   7.667   4.498  0.6342 -0.2118  0.6750
   46MOL   C22746217   3.856   7.852   4.396  0.2145 -0.0718  0.1562
   46MOL   C22846218   3.746   7.906   4.337  0.8352  0.3862  0.7699
   46MOL   C22946219   3.267   7.966   4.257 -0.3529  0.5550  0.4260
   46MOL   C23046220   3.132   7.976   4.298 -0.3681  0.8241 -0.1302
   46MOL   C23146221   2.771   7.918   4.601 -0.5004 -0.2270  0.0346
   46MOL   C23246222   2.725   0.006   4.716 -0.7967  1.5650  0.3058
   46MOL   C23346223   2.769   0.337   5.057  0.4469 -0.3705  0.3267
   46MOL   C23446224   2.731   0.469   5.088 -0.5965 -0.0623 -0.0990
   46MOL   H23546225   2.524   0.702   4.949 -0.7896 -0.2962  0.6977
   46MOL   H23646226   2.556   0.534   4.802  1.0469  1.0163 -0.8626
   46MOL   H23746227   2.649   0.311   4.735  1.8575  2.7361 -1.5782
   46MOL   H23846228   2.759   0.076   4.979 -0.6398  0.4577  0.5847
   46MOL   H23946229   3.017   0.172   4.794  0.1842 -0.4094  1.5277
   46MOL   H24046230   3.091   0.054   4.601 -0.1195 -1.3984  0.7163
   46MOL   H24146231   2.902   7.920   4.350 -2.0009 -1.4848  0.6859
   46MOL   H24246232   3.142   7.759   4.551 -2.1483  0.6813 -0.2814
   46MOL   H24346233   3.388   7.758   4.497 -0.3823  0.2360  0.7512
   46MOL   H24446234   3.533   7.976   4.241 -0.9826 -0.0033 -0.5172
   46MOL   H24546235   3.530   7.652   4.389 -0.2489  0.6584  1.0213
   46MOL   H24646236   3.749   7.545   4.488  0.5229  0.3869  0.1378
   46MOL   H24746237   4.052   7.759   4.510  0.0429  0.1907  0.4117
   46MOL   H24846238   4.032   7.611   4.412  1.3840  0.3474  0.6301
   46MOL   H24946239   3.944   7.913   4.410 -0.2075  0.4165  0.7462
   46MOL   H25046240   3.753   0.029   4.312 -1.1985  0.3412 -0.0981
   46MOL   H25146241   3.296   0.048   4.175 -0.4554  1.3620  1.0082
   46MOL   H25246242   3.068   0.060   4.241  1.5048  1.6668 -1.3358
   46MOL   H25346243   2.702   7.854   4.547 -1.5246 -0.0591  1.1122
   46MOL   H25446244   2.623   7.976   4.749 -0.6393  0.3042  0.3577
   46MOL   H25546245   2.824   0.290   5.137 -0.9280  0.9651  2.1076
   46MOL   H25646246   2.762   0.517   5.179 -1.6405 -1.8215  1.2225
   46MOL   N25746247   3.985   7.598   4.622  0.4983  0.0075 -0.4208
   46MOL   C25846248   4.100   7.532   4.672 -0.5973  0.0433  0.1879
   46MOL   C25946249   4.120   7.513   4.813 -0.0902  0.1738  0.3248
   46MOL   C26046250   4.254   7.468   4.857 -0.3444  0.2792 -0.0850
   46MOL   C26146251   4.355   7.437   4.765  0.2074  0.6358 -0.6694
   46MOL   N26246252   4.488   7.397   4.787 -0.1549 -0.4649  0.5446
   46MOL   C26346253   4.564   7.390   4.903 -0.3723 -0.1163  0.5194
   46MOL   C26446254   4.636   7.274   4.944 -0.3504  1.0008 -0.2327
   46MOL   C26546255   4.689   7.276   5.074  0.1676 -0.6335  0.4604
   46MOL   C26646256   4.687   7.396   5.151 -0.5978 -0.1120 -0.0644
   46MOL   N26746257   4.751   7.390   5.276  0.1461 -0.3926  1.0903
   46MOL   C26846258   4.692   7.345   5.396  0.2148  0.4272  0.7375
   46MOL   C26946259   4.587   7.251   5.391 -0.5067  0.1079 -0.1757
   46MOL   C27046260   4.541   7.192   5.512  0.5892  0.2001 -0.5123
   46MOL   C27146261   4.608   7.223   5.631 -0.3389  0.1177 -0.7358
   46MOL   N27246262   4.565   7.155   5.739  1.4088 -0.1657  0.1336
   46MOL   C27346263   4.523   7.018   5.741 -0.4500 -0.9317  0.1306
   46MOL   C27446264   4.601   6.926   5.667 -0.3229 -0.0343  0.5907
   46MOL   C27546265   4.577   6.794   5.689 -0.2737  0.2076 -0.5940
   46MOL   C27646266   4.479   6.748   5.783  0.1797  0.0281  0.1368
   46MOL   C27746267   4.446   6.606   5.800 -0.0192  0.9227 -0.4793
   46MOL   C27846268   4.398   6.839   5.851  1.0115  0.0316 -0.5066
   46MOL   C27946269   4.422   6.982   5.833  0.1126 -0.0141  0.2705
   46MOL   C28046270   4.711   7.325   5.635  0.9238 -0.0446 -0.0653
   46MOL   C28146271   4.755   7.382   5.515  0.3483 -0.5912  0.2541
   46MOL   C28246272   4.623   7.512   5.107  0.6085 -0.3363  0.4307
   46MOL   C28346273   4.560   7.509   4.985  0.2085  0.4271  0.1669
   46MOL   C28446274   4.321   7.437   4.630 -0.0812 -0.7601 -0.0445
   46MOL   C28546275   4.202   7.490   4.582  0.1319  0.4365 -0.2545
   46MOL   H28646276   3.916   7.622   4.692  1.3760 -0.4790  0.6248
   46MOL   H28746277   4.044   7.539   4.886 -0.1708 -0.4724  0.4751
   46MOL   H28846278   4.267   7.462   4.964  0.7827 -4.0087 -0.3489
   46MOL   H28946279   4.525   7.338   4.713 -0.9146  0.9771 -1.0155
   46MOL   H29046280   4.652   7.188   4.881  2.7579  0.7367  0.8732
   46MOL   H29146281   4.749   7.192   5.106 -2.5591 -2.3592  1.1548
   46MOL   H29246282   4.800   7.476   5.299 -1.8952  1.4472 -1.1009
   46MOL   H29346283   4.541   7.237   5.294 -0.7016 -0.1988 -0.0394
   46MOL   H29446284   4.468   7.113   5.512  0.9370 -0.1243 -1.3301
   46MOL   H29546285   4.543   7.210   5.821 -3.0014 -2.2335  0.5160
   46MOL   H29646286   4.685   6.954   5.606 -1.5086  0.0299 -1.0550
   46MOL   H29746287   4.629   6.720   5.629 -0.4896 -1.8873  1.7084
   46MOL   H29846288   4.518   6.548   5.741  0.3098 -0.0243  0.8381
   46MOL   H29946289   4.344   6.607   5.762 -0.1079 -1.0153 -0.3487
   46MOL   H30046290   4.326   6.800   5.921 -1.4525  0.9607 -2.4723
   46MOL   H30146291   4.371   7.054   5.895 -0.5694  1.4696 -1.9252
   46MOL   H30246292   4.767   7.347   5.726  1.2372  2.6087 -0.8496
   46MOL   H30346293   4.833   7.456   5.511 -2.9081  2.9183 -0.9484
   46MOL   H30446294   4.616   7.603   5.166  0.1881  0.0744 -0.2492
   46MOL   H30546295   4.507   7.598   4.957 -0.4047 -0.4777 -1.6490
   46MOL   H30646296   4.398   7.417   4.558  1.1627  0.9323  0.8054
   46MOL   H30746297   4.193   7.492   4.475 -2.1925  0.2772 -0.0874
   46MOL   N30846298   4.445   6.575   5.941 -0.9533  0.4533  0.4146
   46MOL   C30946299   4.384   6.456   5.983 -0.0901 -0.3198  0.1086
   46MOL   C31046300   4.335   6.354   5.894 -0.2411 -0.3536  0.0023
   46MOL   C31146301   4.273   6.237   5.945 -0.6296 -0.2962 -0.5267
   46MOL   C31246302   4.249   6.223   6.088  0.5204  0.0768  0.5435
   46MOL   N31346303   4.162   6.123   6.129  0.4556 -0.1102 -0.0850
   46MOL   C31446304   4.124   6.009   6.058  0.2457 -0.4453  0.2094
   46MOL   C31546305   3.992   5.971   6.046  0.0281  0.0578 -0.1986
   46MOL   C31646306   3.952   5.854   5.974 -0.5805  0.9351  0.4702
   46MOL   C31746307   4.054   5.777   5.910 -0.1230 -0.4024  1.3128
   46MOL   N31846308   4.033   5.663   5.831 -0.6357 -0.5967 -0.4436
   46MOL   C31946309   3.914   5.583   5.824  0.2788  1.2112 -0.0727
   46MOL   C32046310   3.872   5.530   5.704 -0.1601 -0.5547  0.3709
   46MOL   C32146311   3.757   5.452   5.696  0.0307 -0.2116 -0.5036
   46MOL   C32246312   3.673   5.422   5.811  0.7632  0.3125 -0.2087
   46MOL   N32346313   3.553   5.347   5.796 -0.1086  0.4563  0.3956
   46MOL   C32446314   3.437   5.349   5.870 -0.1924 -0.5112  0.4970
   46MOL   C32546315   3.373   5.472   5.898 -0.7293  0.0804  0.0716
   46MOL   C32646316   3.250   5.475   5.963 -0.6859 -0.1382  0.4308
   46MOL   C32746317   3.192   5.352   6.004 -0.1550  0.0936  0.0457
   46MOL   C32846318   3.061   5.358   6.080  0.3936  0.1557 -0.0530
   46MOL   C32946319   3.260   5.232   5.973 -0.1922 -0.3766 -0.6726
   46MOL   C33046320   3.381   5.226   5.900 -0.2677  0.0432  0.9582
   46MOL   C33146321   3.716   5.485   5.930  0.4847 -0.0414 -0.5011
   46MOL   C33246322   3.839   5.551   5.937 -0.1338 -0.4786  0.1223
   46MOL   C33346323   4.187   5.817   5.925  0.6886  0.6466 -0.1469
   46MOL   C33446324   4.221   5.930   6.003  0.6520  0.3662  0.0620
   46MOL   C33546325   4.294   6.329   6.172 -0.3276  0.4168  0.1199
   46MOL   C33646326   4.367   6.436   6.123  0.6528 -0.3401 -0.1685
   46MOL   H33746327   4.509   6.624   6.001 -1.1900  1.7380 -0.3582
   46MOL   H33846328   4.354   6.358   5.788  1.2441 -1.5300  0.2108
   46MOL   H33946329   4.234   6.169   5.870  1.0020  0.8775 -2.5077
   46MOL   H34046330   4.131   6.114   6.224  2.2816 -0.0503  0.5375
   46MOL   H34146331   3.911   6.020   6.098 -0.1853 -0.8375  0.3255
   46MOL   H34246332   3.849   5.823   5.967  0.1661 -1.2775 -1.1251
   46MOL   H34346333   4.092   5.662   5.748  1.8180 -1.4423  1.2555
   46MOL   H34446334   3.922   5.554   5.611  0.1550  0.3182  0.7648
   46MOL   H34546335   3.732   5.420   5.596  2.5866  3.4652 -2.4312
   46MOL   H34646336   3.534   5.312   5.704 -0.8634  1.1573  0.2770
   46MOL   H34746337   3.408   5.569   5.866 -0.7739  0.2850  0.6362
   46MOL   H34846338   3.209   5.574   5.977 -0.2488 -0.1420  1.7580
   46MOL   H34946339   3.001   5.427   6.021  2.3476  2.0771  0.1652
   46MOL   H35046340   3.089   5.419   6.166  0.0237  1.2022 -0.6700
   46MOL   H35146341   3.212   5.139   6.000 -1.9312  0.1680 -1.8015
   46MOL   H35246342   3.427   5.136   5.863 -0.3549  0.4771 -0.1975
   46MOL   H35346343   3.660   5.470   6.021  0.7654 -1.7341 -0.5880
   46MOL   H35446344   3.874   5.592   6.031  0.0603 -1.0166  0.2871
   46MOL   H35546345   4.265   5.751   5.888  0.2862  0.7949 -1.2921
   46MOL   H35646346   4.323   5.966   6.011 -0.3110  2.8583  1.7846
   46MOL   H35746347   4.268   6.328   6.277  3.2862  2.5638  1.1514
   46MOL   H35846348   4.397   6.521   6.183  0.8805 -0.0370 -0.7064
   46MOL   N35946349   2.985   5.236   6.107  0.6748 -0.8097  0.1413
   46MOL   C36046350   2.878   5.239   6.192  0.9327 -0.7230 -0.1185
   46MOL   C36146351   2.887   5.300   6.321 -0.8231  0.2835 -0.2326
   46MOL   C36246352   2.786   5.287   6.421  0.2962 -0.5728 -0.5672
   46MOL   C36346353   2.663   5.219   6.390  0.4287 -0.3464  0.2101
   46MOL   N36446354   2.559   5.219   6.481  0.5203 -0.3522 -0.2828
   46MOL   C36546355   2.575   5.224   6.622 -0.1120 -0.4835  0.4617
   46MOL   C36646356   2.651   5.132   6.696  0.1331  0.5293  1.0762
   46MOL   C36746357   2.661   5.142   6.832  0.1147  0.1633  0.4914
   46MOL   C36846358   2.592   5.243   6.897 -0.3139 -0.5771 -0.9806
   46MOL   N36946359   2.609   5.268   7.030 -0.3423  0.1728 -0.0421
   46MOL   C37046360   2.678   5.203   7.128 -0.0023  0.3975  0.5322
   46MOL   C37146361   2.618   5.187   7.254  0.2034  0.5938  0.0177
   46MOL   C37246362   2.697   5.133   7.360 -0.2228 -0.5913 -0.3238
   46MOL   C37346363   2.831   5.104   7.345  0.2765  0.1296 -0.4730
   46MOL   N37446364   2.905   5.048   7.449 -0.1708  0.1389 -0.4646
   46MOL   C37546365   3.031   5.088   7.498  0.4555  0.5278  0.4800
   46MOL   C37646366   3.083   5.216   7.469  0.0290  0.2984  0.5266
   46MOL   C37746367   3.208   5.257   7.530 -0.1811 -0.3941 -0.1789
   46MOL   C37846368   3.269   5.175   7.628  0.9481  0.0194 -0.5692
   46MOL   C37946369   3.390   5.218   7.706  0.4150  0.0520  0.1408
   46MOL   C38046370   3.215   5.047   7.652 -0.7367  0.7000 -0.3551
   46MOL   C38146371   3.096   5.005   7.589  0.5755 -0.1138 -0.3564
   46MOL   C38246372   2.890   5.116   7.217  0.3190  0.8931  0.9831
   46MOL   C38346373   2.815   5.163   7.109 -0.7470  0.8956  0.1055
   46MOL   C38446374   2.518   5.341   6.829  0.1144  0.4435 -0.0646
   46MOL   C38546375   2.507   5.331   6.690  0.1793 -0.0040 -0.1859
   46MOL   C38646376   2.651   5.170   6.256 -0.3015 -0.1478  0.0587
   46MOL   C38746377   2.754   5.174   6.164  0.0678  0.6269  0.3657
   46MOL   H38846378   2.981   5.167   6.033  1.8506 -0.6822 -0.0584
   46MOL   H38946379   2.980   5.344   6.354 -0.9990  0.5846 -0.1411
   46MOL   H39046380   2.794   5.338   6.516  0.3249  0.0317 -0.8949
   46MOL   H39146381   2.463   5.205   6.450 -0.0363 -0.4931  1.4800
   46MOL   H39246382   2.714   5.061   6.645 -2.0756 -1.5871  1.1592
   46MOL   H39346383   2.731   5.071   6.874  0.9646 -0.0859 -1.2681
   46MOL   H39446384   2.563   5.353   7.061  0.7481  0.7583 -0.0105
   46MOL   H39546385   2.520   5.229   7.273  0.3073  0.8505 -0.0190
   46MOL   H39646386   2.654   5.114   7.457  0.6971 -1.6524 -0.1085
   46MOL   H39746387   2.857   4.975   7.500  0.8158 -1.1006 -1.2928
   46MOL   H39846388   3.038   5.290   7.405 -0.9412 -0.0514  0.8001
   46MOL   H39946389   3.240   5.358   7.508 -0.1972  0.0893  1.8955
   46MOL   H40046390   3.484   5.198   7.655  0.0212  0.2471 -0.6560
   46MOL   H40146391   3.391   5.172   7.805 -1.5426 -0.0013  0.1519
   46MOL   H40246392   3.255   4.983   7.729  0.2124 -1.0132 -2.2347
   46MOL   H40346393   3.050   4.910   7.614 -0.4605  0.6847  0.8578
   46MOL   H40446394   2.994   5.092   7.204 -0.2443 -0.6335 -0.9691
   46MOL   H40546395   2.857   5.185   7.012  0.9478 -2.0275  0.1075
   46MOL   H40646396   2.461   5.420   6.876 -1.9827 -1.4961  0.7826
   46MOL   H40746397   2.443   5.399   6.637 -1.2712 -1.0925  0.1172
   46MOL   H40846398   2.561   5.122   6.221  0.0269 -1.2295  0.6832
   46MOL   H40946399   2.743   5.115   6.075 -1.4055  1.1704  0.1850
   46MOL   N41046400   3.389   5.361   7.741  0.4186  0.8263 -0.1581
   46MOL   C41146401   3.493   5.429   7.804  0.1961  0.4931  0.1310
   46MOL   C41246402   3.466   5.562   7.841 -0.1086  0.2970  0.7334
   46MOL   C41346403   3.560   5.636   7.916 -0.2347 -0.5254  0.2672
   46MOL   C41446404   3.667   5.567   0.001 -0.6514  0.2797  0.4426
   46MOL   N41546405   3.745   5.636   0.099  0.2548  0.7924  0.4184
   46MOL   C41646406   3.764   5.770   0.126 -0.8408  0.1787  1.1178
   46MOL   C41746407   3.802   5.813   0.255  0.0149 -0.1763 -0.7053
   46MOL   C41846408   3.828   5.947   0.286  0.0045  0.5742  0.5774
   46MOL   C41946409   3.802   6.046   0.187 -0.0696 -0.0715 -0.7838
   46MOL   N42046410   3.825   6.181   0.213 -0.4326 -0.0081 -0.5778
   46MOL   C42146411   3.775   6.296   0.149 -0.5906 -0.3894  0.5243
   46MOL   C42246412   3.863   6.403   0.141 -0.4735 -0.1790 -0.3029
   46MOL   C42346413   3.815   6.510   0.071  0.7135  0.5094 -0.2697
   46MOL   C42446414   3.694   6.516   0.001 -0.4887 -0.4010  0.2182
   46MOL   N42546415   3.669   6.624   7.896  0.1006  0.4204  0.5450
   46MOL   C42646416   3.553   6.658   7.823  0.1449  0.6476  0.3567
   46MOL   C42746417   3.431   6.652   7.884  0.4070 -0.1138 -0.0107
   46MOL   C42846418   3.313   6.701   7.818 -0.3004 -0.4854  0.3746
   46MOL   C42946419   3.324   6.746   7.687  0.2472  0.2649 -0.4121
   46MOL   C43046420   3.199   6.781   7.611 -0.0036 -0.5986 -0.5054
   46MOL   C43146421   3.450   6.754   7.621  0.2796 -0.1309  0.4075
   46MOL   C43246422   3.564   6.707   7.688  0.2304  0.2452 -0.6803
   46MOL   C43346423   3.608   6.404   0.018  0.7655 -0.9456 -0.0434
   46MOL   C43446424   3.644   6.291   0.087 -0.5686  0.1481 -0.2637
   46MOL   C43546425   3.780   6.008   0.059 -0.6176 -0.0449 -0.2821
   46MOL   C43646426   3.758   5.874   0.027 -0.0768  0.2083  0.0092
   46MOL   C43746427   3.695   5.431   7.946  0.0460 -0.4253  0.0487
   46MOL   C43846428   3.613   5.372   7.854  0.0501  0.5505 -0.8809
   46MOL   H43946429   3.295   5.397   7.744 -0.2038 -0.7266 -0.2837
   46MOL   H44046430   3.385   5.625   7.808  1.1816  1.4781 -0.2693
   46MOL   H44146431   3.535   5.735   7.951  0.2334 -0.2728 -0.1127
   46MOL   H44246432   3.768   5.574   0.176  0.4849  1.2984  0.7604
   46MOL   H44346433   3.814   5.743   0.336 -1.0198 -0.7941 -1.0759
   46MOL   H44446434   3.855   5.964   0.389 -0.4928 -1.8821  1.1468
   46MOL   H44546435   3.864   6.197   0.305 -2.2566 -2.8496  0.7775
   46MOL   H44646436   3.959   6.412   0.191 -0.3777  1.2767 -0.7497
   46MOL   H44746437   3.876   6.599   0.066 -0.5365  1.3431 -0.9801
   46MOL   H44846438   3.741   6.691   7.876  3.0185 -2.3233  1.4598
   46MOL   H44946439   3.425   6.622   0.005  3.3524 -1.0005 -0.0605
   46MOL   H45046440   3.219   6.703   7.871  0.0600  0.7879  0.9819
   46MOL   H45146441   3.203   6.755   7.505  0.5614 -2.2603 -0.0793
   46MOL   H45246442   3.191   6.890   7.610 -0.6662 -0.5933  2.1023
   46MOL   H45346443   3.451   6.794   7.521  1.3567 -1.6988 -0.2260
   46MOL   H45446444   3.656   6.714   7.631 -0.0969  1.2428 -1.1085
   46MOL   H45546445   3.513   6.386   7.954  1.7987 -1.5370 -1.9675
   46MOL   H45646446   3.573   6.211   0.100  0.0274 -0.5112 -0.9701
   46MOL   H45746447   3.760   6.076   7.959  0.7088 -1.4768 -1.8408
   46MOL   H45846448   3.743   5.847   7.905 -0.0056 -0.5131  0.1843
   46MOL   H45946449   3.786   5.383   7.981  1.9330  1.9559 -1.4244
   46MOL   H46046450   3.634   5.272   7.822 -0.0513  0.7260 -1.5091
   46MOL   N46146451   3.071   6.742   7.668  0.7727  0.1956 -0.0722
   46MOL   C46246452   3.015   6.624   7.626  0.4949 -0.6992 -0.0099
   46MOL   C46346453   2.881   6.620   7.583 -0.7337  0.0561 -0.1171
   46MOL   C46446454   2.828   6.499   7.537  0.6527  0.2803  0.7057
   46MOL   C46546455   2.903   6.381   7.538 -0.2471 -0.1990 -0.3069
   46MOL   N46646456   2.836   6.270   7.487  1.0321 -0.5313 -0.7787
   46MOL   C46746457   2.883   6.186   7.388  0.1007 -0.1866 -0.0843
   46MOL   C46846458   2.821   6.194   7.262 -0.4515 -0.1598 -0.1963
   46MOL   C46946459   2.863   6.111   7.159  0.0963 -0.3516 -0.1404
   46MOL   C47046460   2.972   6.020   7.177  0.3202 -0.6338 -0.0557
   46MOL   N47146461   3.018   5.941   7.074  0.5065 -0.3915  0.8188
   46MOL   C47246462   2.975   5.951   6.943  0.0252 -0.5278 -0.5662
   46MOL   C47346463   2.918   5.846   6.880  0.1550  0.5427  0.5885
   46MOL   C47446464   2.866   5.850   6.752  0.6322  0.1044  0.0478
   46MOL   C47546465   2.859   5.973   6.689  0.3661  0.0664  0.2400
   46MOL   N47646466   2.806   5.983   6.559  0.1081 -0.2640  0.0283
   46MOL   C47746467   2.895   5.967   6.451  0.5854  0.0582 -0.6067
   46MOL   C47846468   2.945   6.081   6.386  0.5459  0.7885  0.4787
   46MOL   C47946469   3.024   6.069   6.271  0.0587 -0.0818 -0.1169
   46MOL   C48046470   3.050   5.938   6.226 -0.7932 -0.1940 -0.0067
   46MOL   C48146471   3.130   5.920   6.098  0.3084  0.5106  0.0956
   46MOL   C48246472   3.013   5.823   6.298  0.3586 -0.4032 -0.4457
   46MOL   C48346473   2.926   5.834   6.410 -0.3225  0.4173 -0.2849
   46MOL   C48446474   2.919   6.087   6.745 -0.2889 -0.2122  0.0037
   46MOL   C48546475   2.982   6.077   6.873  0.0511 -0.2877 -0.5963
   46MOL   C48646476   3.028   6.008   7.306 -0.7329  1.0144 -0.2596
   46MOL   C48746477   2.984   6.087   7.413  0.3081  0.3154 -0.7613
   46MOL   C48846478   3.036   6.382   7.590  0.1511 -0.3213 -0.0542
   46MOL   C48946479   3.091   6.503   7.635  0.2436  0.4596 -0.0683
   46MOL   H49046480   3.005   6.817   7.651 -0.1123 -0.7443 -0.8361
   46MOL   H49146481   2.811   6.702   7.570 -0.6402 -0.1180 -1.7868
   46MOL   H49246482   2.730   6.500   7.492  0.8155 -2.6011  0.1316
   46MOL   H49346483   2.746   6.308   7.463  1.2651  2.6626  2.9638
   46MOL   H49446484   2.734   6.250   7.233 -0.3279 -0.4176 -1.1003
   46MOL   H49546485   2.804   6.099   7.069  0.0216  1.4353 -0.3437
   46MOL   H49646486   3.063   5.854   7.099  1.2541 -1.2034 -3.1064
   46MOL   H49746487   2.899   5.755   6.934  0.4913 -0.6752 -1.2994
   46MOL   H49846488   2.813   5.762   6.719 -2.3989  1.7873  0.2375
   46MOL   H49946489   2.733   6.052   6.544  0.1680 -0.1232  0.3564
   46MOL   H50046490   2.912   6.182   6.405 -1.1334 -0.1455  2.7508
   46MOL   H50146491   3.052   6.163   6.226  1.9975 -1.8133 -2.7549
   46MOL   H50246492   3.055   5.925   6.018  1.7200  0.0308 -1.2884
   46MOL   H50346493   3.158   5.815   6.092  0.7076  0.5462  1.3798
   46MOL   H50446494   3.040   5.727   6.257  0.6798  0.0721 -1.3583
   46MOL   H50546495   2.877   5.747   6.452  1.1172 -0.0220  0.5426
   46MOL   H50646496   2.911   6.182   6.694  0.2965 -1.0966 -1.8197
   46MOL   H50746497   3.024   6.164   6.922 -0.1967  0.3802 -1.5643
   46MOL   H50846498   3.109   5.939   7.328 -0.9265  1.0694  0.6462
   46MOL   H50946499   3.037   6.073   7.506 -2.3095 -2.4414  0.3838
   46MOL   H51046500   3.090   6.288   7.589  1.3493  0.3355 -2.2863
   46MOL   H51146501   3.196   6.504   7.662  0.8400 -0.6063 -2.2618
   46MOL   N51246502   3.243   6.009   6.084  0.7716  0.4300 -0.4879
   46MOL   C51346503   3.283   6.041   5.953 -0.5071 -0.3793  0.4141
   46MOL   C51446504   3.318   6.170   5.921  0.0508 -0.7921 -0.2358
   46MOL   C51546505   3.369   6.210   5.795  0.4399 -0.0122  0.0535
   46MOL   C51646506   3.390   6.107   5.690  0.2049  0.2869  0.8885
   46MOL   N51746507   3.443   6.135   5.563  0.0005  0.7497 -0.5149
   46MOL   C51846508   3.433   6.246   5.483 -0.4642  0.7065 -0.3309
   46MOL   C51946509   3.535   6.244   5.382  0.2688 -0.6960  0.7010
   46MOL   C52046510   3.533   6.346   5.284 -0.2516 -0.2517 -0.0252
   46MOL   C52146511   3.423   6.434   5.274  0.0356 -0.3642  0.5748
   46MOL   N52246512   3.404   6.520   5.162 -0.0396  0.1610  0.0064
   46MOL   C52346513   3.428   6.503   5.024 -0.0283 -0.1955  0.6985
   46MOL   C52446514   3.445   6.378   4.966 -0.2319 -0.4111  0.3275
   46MOL   C52546515   3.486   6.357   4.834  0.0586  0.1639  0.2492
   46MOL   C52646516   3.515   6.464   4.748  0.1989  0.0512  0.6519
   46MOL   N52746517   3.550   6.439   4.621 -0.7552  0.9294  0.0593
   46MOL   C52846518   3.612   6.324   4.570  0.6538 -0.2271 -0.4361
   46MOL   C52946519   3.703   6.250   4.648 -0.0987  0.3461 -0.5020
   46MOL   C53046520   3.778   6.149   4.590 -0.0241  0.1206 -0.1065
   46MOL   C53146521   3.750   6.102   4.460  0.4655 -0.2642 -0.8040
   46MOL   C53246522   3.812   5.971   4.408 -0.1443 -0.1555  0.1436
   46MOL   C53346523   3.656   6.181   4.381 -0.1056  0.3333 -0.4596
   46MOL   C53446524   3.587   6.291   4.437  0.0232 -0.0546 -0.1195
   46MOL   C53546525   3.489   6.590   4.799  0.4135 -0.1119 -0.1664
   46MOL   C53646526   3.454   6.610   4.934 -0.3711 -0.5924  0.3265
   46MOL   C53746527   3.326   6.431   5.375 -0.1685  0.1571 -0.1155
   46MOL   C53846528   3.324   6.333   5.478  0.0013 -0.5144  0.2208
   46MOL   C53946529   3.366   5.974   5.724 -0.3691  0.2542  0.6648
   46MOL   C54046530   3.303   5.945   5.852  0.2137 -0.3624 -0.0780
   46MOL   H54146531   3.283   6.072   6.153 -0.3355  0.6528 -0.0468
   46MOL   H54246532   3.294   6.250   5.990 -0.6276 -0.3629 -0.9526
   46MOL   H54346533   3.398   6.311   5.771 -1.6340  0.5718 -0.1338
   46MOL   H54446534   3.488   6.059   5.515 -0.2696 -0.1896  0.7021
   46MOL   H54546535   3.605   6.167   5.352 -0.9100 -0.6077 -2.4677
   46MOL   H54646536   3.605   6.348   5.204 -1.0367 -2.3359 -0.8227
   46MOL   H54746537   3.384   6.613   5.195 -0.8481 -0.0313  0.0650
   46MOL   H54846538   3.426   6.289   5.025 -1.8623 -1.4969 -1.7738
   46MOL   H54946539   3.489   6.253   4.805 -1.9109  0.0374  0.4288
   46MOL   H55046540   3.493   6.484   4.550 -0.9077  0.8183  0.1109
   46MOL   H55146541   3.724   6.274   4.751 -1.1535  1.1514 -0.4595
   46MOL   H55246542   3.842   6.098   4.660  1.4809 -0.8474 -2.1262
   46MOL   H55346543   3.772   5.898   4.478  0.0240 -0.6313 -0.2566
   46MOL   H55446544   3.918   5.966   4.432 -0.7027  0.6630  3.0708
   46MOL   H55546545   3.641   6.157   4.277  1.3776  0.0314 -0.6220
   46MOL   H55646546   3.515   6.343   4.376 -1.4174 -0.4443  1.2168
   46MOL   H55746547   3.514   6.669   4.730  1.7328 -0.5314 -0.1747
   46MOL   H55846548   3.458   6.714   4.962 -1.4073 -0.4028 -0.2141
   46MOL   H55946549   3.244   6.501   5.366 -1.0737 -0.9357 -0.4815
   46MOL   H56046550   3.247   6.332   5.553 -0.6944  0.3749 -0.4715
   46MOL   H56146551   3.378   5.887   5.661 -0.0040 -0.3214  1.5128
   46MOL   H56246552   3.297   5.840   5.878  1.4918 -0.4938 -0.2824
   46MOL   N56346553   3.778   5.940   4.267  0.3567  0.2738 -0.6806
   46MOL   C56446554   3.782   5.802   4.219  0.4762  0.2975  0.8286
   46MOL   C56546555   3.818   5.694   4.304  0.7346 -0.0596  0.1401
   46MOL   C56646556   3.790   5.564   4.258  0.2654 -0.3778  0.1260
   46MOL   C56746557   3.748   5.538   4.125  0.2294 -0.9801  0.4724
   46MOL   N56846558   3.712   5.407   4.090 -0.2291  0.2163  0.3400
   46MOL   C56946559   3.768   5.284   4.123  0.3231 -0.7471  0.0652
   46MOL   C57046560   3.685   5.176   4.130  0.6734 -0.2081 -0.1753
   46MOL   C57146561   3.746   5.047   4.160 -0.4248  0.1073  0.4548
   46MOL   C57246562   3.882   5.032   4.177  0.3109  0.5765  0.3390
   46MOL   N57346563   3.926   4.901   4.189  0.1014  0.2445 -0.2835
   46MOL   C57446564   4.025   4.844   4.274  0.2183  0.0991  0.9355
   46MOL   C57546565   4.135   4.915   4.326 -0.3369  0.1646 -1.1969
   46MOL   C57646566   4.227   4.853   4.408 -0.1184  0.2839  0.8655
   46MOL   C57746567   4.217   4.715   4.438 -0.2055 -0.4578 -0.3313
   46MOL   N57846568   4.325   4.654   4.509  0.1702 -0.0622  0.0421
   46MOL   C57946569   4.348   4.643   4.649  0.2834  0.1493  0.5519
   46MOL   C58046570   4.264   4.713   4.736 -0.6306 -0.7350 -0.2404
   46MOL   C58146571   4.297   4.710   4.871  0.1903  0.1245 -0.0926
   46MOL   C58246572   4.414   4.650   4.923 -0.1139  0.5637  0.0357
   46MOL   C58346573   4.461   4.653   5.069  0.3403 -0.3137  0.2442
   46MOL   C58446574   4.500   4.590   4.831 -0.2217 -0.3347 -0.2178
   46MOL   C58546575   4.463   4.581   4.697  0.4747 -0.2691  0.6637
   46MOL   C58646576   4.105   4.644   4.389 -0.3873  0.8070  0.1510
   46MOL   C58746577   4.011   4.703   4.311  0.0492 -0.5029 -0.3768
   46MOL   C58846578   3.965   5.148   4.151  0.1033  0.0305 -0.3417
   46MOL   C58946579   3.905   5.275   4.142  0.1145  0.3979 -0.1700
   46MOL   C59046580   3.725   5.648   4.041  0.3070 -0.1648 -0.6038
   46MOL   C59146581   3.741   5.780   4.087  0.8957  0.3644 -0.6280
   46MOL   H59246582   3.754   6.017   4.206  0.4702 -1.8664 -3.5377
   46MOL   H59346583   3.846   5.708   4.407 -0.3501  0.1696  0.4059
   46MOL   H59446584   3.808   5.479   4.322 -2.6714  0.8542  2.7769
   46MOL   H59546585   3.623   5.403   4.042 -0.5415 -0.7077  0.9787
   46MOL   H59646586   3.577   5.177   4.126  0.7597  0.8752 -3.0945
   46MOL   H59746587   3.682   4.960   4.159 -0.5008  0.1475  1.4117
   46MOL   H59846588   3.879   4.830   4.134 -0.9799  0.8036 -0.0923
   46MOL   H59946589   4.139   5.022   4.310 -1.8026 -0.0138 -3.0097
   46MOL   H60046590   4.306   4.920   4.439  0.3031 -1.5013  3.8377
   46MOL   H60146591   4.368   4.584   4.451 -0.3692 -0.0376 -0.3859
   46MOL   H60246592   4.171   4.761   4.708  0.3145  0.8378 -0.7178
   46MOL   H60346593   4.228   4.747   4.946 -0.4186  0.7395 -0.9521
   46MOL   H60446594   4.556   4.605   5.094  0.7381  0.8887  1.0630
   46MOL   H60546595   4.410   4.579   5.130  0.4089 -0.1954  0.4451
   46MOL   H60646596   4.589   4.538   4.864 -0.5395  0.5315  2.0886
   46MOL   H60746597   4.528   4.536   4.623 -0.1263 -0.9172  0.5272
   46MOL   H60846598   4.095   4.537   4.401 -1.7383  1.1559  2.3347
   46MOL   H60946599   3.928   4.643   4.278 -1.0408 -0.3705  2.0122
   46MOL   H61046600   4.072   5.135   4.145  0.2824  1.1778  0.2361
   46MOL   H61146601   3.965   5.364   4.129 -1.0743  1.1621 -0.4809
   46MOL   H61246602   3.704   5.635   3.936  0.6272 -0.9576 -0.5690
   46MOL   H61346603   3.734   5.866   4.023  1.0560  1.8382  1.2869
   46MOL   N61446604   4.439   4.785   5.132  0.2513  0.1194  0.0380
   46MOL   C61546605   4.546   4.876   5.137 -0.2067  0.4888 -0.6126
   46MOL   C61646606   4.534   4.980   5.227  0.7207 -1.0752  0.5119
   46MOL   C61746607   4.639   5.076   5.237 -0.2985 -0.8372  0.4010
   46MOL   C61846608   4.755   5.064   5.157  0.5510  0.9219 -0.4181
   46MOL   N61946609   4.861   5.158   5.165 -0.1767  0.4304  0.2548
   46MOL   C62046610   4.927   5.208   5.279  0.9933 -0.2413 -0.4521
   46MOL   C62146611   4.891   5.164   5.410  0.1397 -0.0709  0.0337
   46MOL   C62246612   4.975   5.211   5.520  0.2434  0.2223  1.2741
   46MOL   C62346613   5.081   5.302   5.491  0.4681 -0.0221  0.0607
   46MOL   N62446614   5.170   5.339   5.598 -0.3182  0.2563 -0.5773
   46MOL   C62546615   5.260   5.449   5.600 -0.0832  0.5779 -0.2340
   46MOL   C62646616   5.383   5.419   5.672  0.3843 -0.9718  0.6499
   46MOL   C62746617   5.491   5.508   5.665 -0.2117  0.4532  0.4252
   46MOL   C62846618   5.477   5.630   5.608  0.0320  0.1804  0.3879
   46MOL   N62946619   5.588   5.718   5.620  0.3231  0.0303 -0.0233
   46MOL   C63046620   5.608   5.849   5.579  0.1781  0.0107 -0.4281
   46MOL   C63146621   5.652   5.952   5.670  0.4321 -0.4584 -0.2891
   46MOL   C63246622   5.674   6.080   5.620 -0.4531 -0.0921  0.0583
   46MOL   C63346623   5.648   6.113   5.485 -0.2376  0.0857 -0.0926
   46MOL   C63446624   5.664   6.257   5.444 -0.4221 -0.4987 -0.8093
   46MOL   C63546625   5.606   6.010   5.396  0.1063  0.3326  0.1954
   46MOL   C63646626   5.589   5.877   5.443 -0.6278  0.1329 -0.6887
   46MOL   C63746627   5.355   5.659   5.533 -0.5763 -0.1632  0.7748
   46MOL   C63846628   5.251   5.569   5.530  0.0671  0.4276  0.2544
   46MOL   C63946629   5.115   5.335   5.360 -0.4422  0.6240 -0.0261
   46MOL   C64046630   5.040   5.287   5.253  0.6858  0.8228 -0.3436
   46MOL   C64146631   4.769   4.956   5.068  0.6687  0.0629 -0.2019
   46MOL   C64246632   4.661   4.868   5.053  0.0652  0.0229  0.4956
   46MOL   H64346633   4.379   4.786   5.214  1.0855 -0.7420  0.6673
   46MOL   H64446634   4.454   4.975   5.298  0.8393 -1.2966  0.6293
   46MOL   H64546635   4.636   5.155   5.310 -0.4376 -0.1222 -0.3627
   46MOL   H64646636   4.910   5.172   5.078  1.2078 -0.7424  0.8294
   46MOL   H64746637   4.803   5.110   5.443  1.0170 -0.5942  1.5862
   46MOL   H64846638   4.952   5.188   5.623  1.3464  0.0099  1.4812
   46MOL   H64946639   5.179   5.272   5.672  0.0974  0.7665 -0.1628
   46MOL   H65046640   5.386   5.330   5.733 -0.8996  0.9058  3.5580
   46MOL   H65146641   5.574   5.489   5.732  0.4192  0.8886 -0.2235
   46MOL   H65246642   5.649   5.691   5.695 -0.1348 -0.7078  0.0874
   46MOL   H65346643   5.656   5.935   5.776 -1.8346  0.0760 -0.0910
   46MOL   H65446644   5.706   6.155   5.691  2.0372 -1.5321  0.5033
   46MOL   H65546645   5.596   6.316   5.506  2.7070  1.2751  1.1031
   46MOL   H65646646   5.649   6.271   5.337  0.4227  3.1977 -0.5039
   46MOL   H65746647   5.579   6.041   5.297  0.7610  2.1552  0.5786
   46MOL   H65846648   5.565   5.801   5.369  1.6803 -2.3727  1.0138
   46MOL   H65946649   5.343   5.753   5.482  0.9129  0.7679  2.0848
   46MOL   H66046650   5.160   5.592   5.475  0.0819  2.2450  0.9738
   46MOL   H66146651   5.204   5.391   5.338  0.0245  0.1205  0.5488
   46MOL   H66246652   5.068   5.298   5.149  0.4280 -0.4027 -0.5450
   46MOL   H66346653   4.851   4.946   4.999 -1.6922 -0.7040 -3.0244
   46MOL   H66446654   4.676   4.790   4.980 -1.3323  0.9211 -0.7730
   46MOL   N66546655   5.805   6.297   5.468 -0.2005 -0.1675 -0.2526
   46MOL   C66646656   5.836   6.341   5.599  0.3627 -0.6900  0.2022
   46MOL   C66746657   5.742   6.411   5.686  0.4674  0.4266  0.3585
   46MOL   C66846658   5.784   6.473   5.803 -0.5427  0.0323  0.7802
   46MOL   C66946659   5.917   6.449   5.850 -0.1830 -0.0185 -0.5886
   46MOL   N67046660   5.964   6.481   5.973  0.5914 -0.4826 -0.2834
   46MOL   C67146661   5.909   6.558   6.075  0.3975  0.1217 -0.1995
   46MOL   C67246662   5.922   6.505   6.204 -0.0530 -0.5862 -0.5637
   46MOL   C67346663   5.861   6.575   6.315 -0.0814  0.1882 -0.2809
   46MOL   C67446664   5.795   6.698   6.294  0.0192  0.7225 -0.7059
   46MOL   N67546665   5.737   6.765   6.406 -0.5375  0.3088 -0.3743
   46MOL   C67646666   5.693   6.898   6.400 -0.5908  0.7656  0.4563
   46MOL   C67746667   5.559   6.933   6.384  0.0935 -0.5156  0.2901
   46MOL   C67846668   5.520   7.068   6.392 -0.1821  0.1562  0.0798
   46MOL   C67946669   5.612   7.172   6.390 -0.7119 -0.6091 -0.2758
   46MOL   N68046670   5.570   7.306   6.394  0.2334 -0.2368 -0.2231
   46MOL   C68146671   5.452   7.362   6.348  0.0650  0.3879  0.2874
   46MOL   C68246672   5.380   7.317   6.236 -0.3165 -0.0654  0.1516
   46MOL   C68346673   5.262   7.385   6.198  0.9475 -0.0585 -0.4354
   46MOL   C68446674   5.227   7.504   6.259  0.6565  0.4069  0.3079
   46MOL   C68546675   5.108   7.586   6.206 -0.3878 -0.1300 -0.1942
   46MOL   C68646676   5.301   7.556   6.367 -1.1113  0.7345  0.7778
   46MOL   C68746677   5.410   7.481   6.408  0.5514 -0.1448 -0.3539
   46MOL   C68846678   5.747   7.138   6.394 -0.5001  0.0832 -0.3386
   46MOL   C68946679   5.789   7.005   6.399 -0.3507 -0.1819  0.1250
   46MOL   C69046680   5.785   6.746   6.163 -0.1384 -0.9725  0.6196
   46MOL   C69146681   5.843   6.681   6.056  0.1293  0.1075 -1.1302
   46MOL   C69246682   6.007   6.374   5.765 -0.6280 -0.7917 -0.3567
   46MOL   C69346683   5.970   6.330   5.638 -0.1958  0.0305 -0.4115
   46MOL   H69446684   5.869   6.232   5.424  0.6106 -1.0037  2.1135
   46MOL   H69546685   5.640   6.425   5.654  0.6516  0.3165 -0.2816
   46MOL   H69646686   5.720   6.523   5.875  0.1593  0.0662  1.3919
   46MOL   H69746687   6.051   6.439   6.003  1.3188  1.8582  0.9682
   46MOL   H69846688   5.968   6.411   6.232  2.2757  0.5559 -0.4129
   46MOL   H69946689   5.881   6.533   6.412 -0.3131 -1.9284 -1.1092
   46MOL   H70046690   5.689   6.707   6.473  0.3336 -0.3711 -0.3312
   46MOL   H70146691   5.483   6.857   6.368  2.1105 -2.9549  1.8308
   46MOL   H70246692   5.415   7.096   6.392  0.4604  2.7013 -0.9745
   46MOL   H70346693   5.629   7.362   6.456  2.5605 -2.9957  0.1554
   46MOL   H70446694   5.422   7.230   6.189  2.5587  0.3771  1.8278
   46MOL   H70546695   5.197   7.349   6.119 -0.4344 -0.8177  1.0171
   46MOL   H70646696   5.127   7.692   6.227  2.6369 -0.6177 -0.2476
   46MOL   H70746697   5.014   7.565   6.257 -0.3835  0.6543  0.1523
   46MOL   H70846698   5.277   7.644   6.424  0.4390 -0.8158  3.9707
   46MOL   H70946699   5.461   7.523   6.494  1.2940 -2.9447  0.6159
   46MOL   H71046700   5.810   7.225   6.386  0.5510 -0.4820  1.5386
   46MOL   H71146701   5.896   6.986   6.394 -0.1964  0.9591 -1.0337
   46MOL   H71246702   5.729   6.836   6.145  0.0698 -1.0559 -0.4594
   46MOL   H71346703   5.850   6.732   5.961  0.9595  0.2272 -1.0054
   46MOL   H71446704   6.105   6.352   5.805 -0.2242 -0.0595 -0.9181
   46MOL   H71546705   6.039   6.270   5.580  0.3673 -0.7502  1.0055
   46MOL   N71646706   5.077   7.554   6.066  0.1367 -0.1214  0.3848
   46MOL   C71746707   4.987   7.627   5.995  0.1553  0.2324 -0.1959
   46MOL   C71846708   4.891   7.712   6.062  0.6055 -0.0891  0.1181
   46MOL   C71946709   4.803   7.796   5.987  0.5755 -0.1896  0.3628
   46MOL   C72046710   4.797   7.778   5.846  0.0062 -0.1898  0.0914
   46MOL   N72146711   4.721   7.865   5.767  1.1233  0.2048 -0.4384
   46MOL   C72246712   4.625   7.826   5.675  0.4775  0.6973 -0.3903
   46MOL   C72346713   4.563   7.928   5.607 -0.4950 -0.1386 -0.0643
   46MOL   C72446714   4.447   7.902   5.529  0.2736 -0.4619  0.5501
   46MOL   C72546715   4.407   7.771   5.504 -0.3468 -0.5435 -0.3209
   46MOL   N72646716   4.297   7.759   5.414  0.0832 -0.3328  0.5478
   46MOL   C72746717   4.238   7.648   5.360  0.2930  0.1889  0.5037
   46MOL   C72846718   4.099   7.638   5.355  0.1739 -1.0926  0.3773
   46MOL   C72946719   4.046   7.525   5.293 -0.0246 -0.0851  0.1248
   46MOL   C73046720   4.124   7.419   5.253 -0.4106 -0.0454 -0.6351
   46MOL   N73146721   4.058   7.306   5.199 -0.0045 -0.0062 -0.0788
   46MOL   C73246722   4.096   7.170   5.205  0.0197 -0.2793 -0.0598
   46MOL   C73346723   4.190   7.116   5.304 -0.5524 -0.0678  0.3994
   46MOL   C73446724   4.218   6.978   5.307  0.1510 -0.3243  0.2278
   46MOL   C73546725   4.157   6.890   5.217  1.3745  0.8202 -0.3656
   46MOL   C73646726   4.178   6.742   5.237 -0.3962  0.1708  0.0122
   46MOL   C73746727   4.076   6.941   5.116 -0.2395  0.0524 -0.6165
   46MOL   C73846728   4.045   7.079   5.112  0.9107 -0.1990 -0.1108
   46MOL   C73946729   4.264   7.428   5.259  0.2857  0.3330  0.1991
   46MOL   C74046730   4.318   7.537   5.316 -0.1163 -1.1170  0.0689
   46MOL   C74146731   4.479   7.667   5.560  0.2681  0.2310 -0.7094
   46MOL   C74246732   4.587   7.692   5.647  0.4870 -0.0849 -1.1333
   46MOL   C74346733   4.878   7.683   5.784 -0.0069 -0.0557 -0.2741
   46MOL   C74446734   4.967   7.601   5.855  0.4112  0.6309 -0.1960
   46MOL   H74546735   5.155   7.537   6.004  0.0588 -0.1165  0.2854
   46MOL   H74646736   4.900   7.737   6.166  3.2292 -2.1659  0.4488
   46MOL   H74746737   4.746   7.872   6.037  0.7384  0.6777 -0.7426
   46MOL   H74846738   4.738   7.962   5.787  3.5269  0.2807 -2.5855
   46MOL   H74946739   4.592   0.048   5.628 -0.5482  0.0662 -0.9744
   46MOL   H75046740   4.391   0.006   5.497  1.1801  0.9832  2.6594
   46MOL   H75146741   4.258   7.844   5.377  0.5931 -0.6775 -0.8040
   46MOL   H75246742   4.031   7.713   5.392  1.4033 -0.1843  0.8079
   46MOL   H75346743   3.938   7.531   5.287  0.2192  2.8402 -3.3805
   46MOL   H75446744   3.962   7.323   5.175 -0.5480 -0.8305  1.4192
   46MOL   H75546745   4.231   7.181   5.380  0.9056 -1.4834  0.8612
   46MOL   H75646746   4.276   6.948   5.394 -1.6767 -0.0352  1.5809
   46MOL   H75746747   4.275   6.716   5.194  0.4879  0.5000  1.7933
   46MOL   H75846748   4.101   6.691   5.179  0.0821 -1.7267  1.0024
   46MOL   H75946749   4.035   6.877   5.039  4.2735 -1.3878 -1.9580
   46MOL   H76046750   3.974   7.099   5.033  0.9393  1.1345  0.1852
   46MOL   H76146751   4.332   7.349   5.232  0.2222  0.3557 -0.0318
   46MOL   H76246752   4.426   7.539   5.328 -0.1727  0.7863  0.5436
   46MOL   H76346753   4.448   7.564   5.559 -1.9970  0.8882 -0.2123
   46MOL   H76446754   4.635   7.613   5.702 -1.3718  0.4133  1.3091
   46MOL   H76546755   4.896   7.688   5.678  1.3711 -0.8256 -0.0865
   46MOL   H76646756   5.028   7.531   5.800 -2.2486 -0.5730 -1.7321
   46MOL   N76746757   4.165   6.700   5.376  0.0278 -0.1273  0.3431
   46MOL   C76846758   4.246   6.593   5.402  0.3076  0.7391  0.2273
   46MOL   C76946759   4.202   6.461   5.397 -0.4937  0.0162  0.0519
   46MOL   C77046760   4.299   6.357   5.394  0.5967  0.8843  0.3077
   46MOL   C77146761   4.429   6.389   5.398  0.1779  0.5752  0.1169
   46MOL   N77246762   4.520   6.283   5.385 -0.7833 -1.1540  0.0422
   46MOL   C77346763   4.630   6.264   5.299  0.6693  0.7412  0.1754
   46MOL   C77446764   4.736   6.182   5.338 -0.0546 -0.5913  0.2554
   46MOL   C77546765   4.856   6.195   5.265  0.5351 -0.0315 -1.1449
   46MOL   C77646766   4.866   6.262   5.143  0.1724 -0.5717  0.1638
   46MOL   N77746767   4.986   6.257   5.076 -0.2283  0.2712 -0.2967
   46MOL   C77846768   5.029   6.317   4.956  0.0402 -0.8404 -0.6698
   46MOL   C77946769   5.099   6.236   4.869 -0.3489  0.1059 -0.3400
   46MOL   C78046770   5.157   6.294   4.760  0.6734  0.2954  0.8458
   46MOL   C78146771   5.137   6.429   4.728  0.2033 -0.0959  0.3026
   46MOL   N78246772   5.179   6.486   4.607 -0.0305  0.5402 -0.3239
   46MOL   C78346773   5.188   6.420   4.480  0.7112  0.4053 -0.1432
   46MOL   C78446774   5.282   6.466   4.377  0.0691 -1.5386 -0.0401
   46MOL   C78546775   5.287   6.401   4.253 -0.0904  0.0015  0.4717
   46MOL   C78646776   5.214   6.287   4.236  0.2145 -0.0678  0.3950
   46MOL   C78746777   5.241   6.212   4.104  0.1158 -0.2981 -0.1592
   46MOL   C78846778   5.138   6.231   4.333 -0.9112 -0.2394  0.2537
   46MOL   C78946779   5.121   6.296   4.456  0.2240  0.2808  0.0054
   46MOL   C79046780   5.072   6.517   4.819 -0.2254  0.4362 -0.3117
   46MOL   C79146781   5.016   6.457   4.933 -0.2753  0.2741  0.1164
   46MOL   C79246782   4.752   6.339   5.102  0.2662 -0.2747  0.3075
   46MOL   C79346783   4.634   6.340   5.178 -0.1622  0.5722 -0.4097
   46MOL   C79446784   4.478   6.518   5.408 -0.8998  0.0687  0.0141
   46MOL   C79546785   4.384   6.614   5.424  0.5191 -0.7476 -0.0156
   46MOL   H79646786   4.066   6.681   5.382 -0.4890  2.2788  0.1560
   46MOL   H79746787   4.099   6.441   5.372  0.0651  0.7370 -3.1082
   46MOL   H79846788   4.273   6.253   5.383  1.1460  0.9183 -1.3860
   46MOL   H79946789   4.503   6.195   5.432 -0.9520 -0.5456  1.1511
   46MOL   H80046790   4.724   6.107   5.414 -1.2656  1.5690  2.2426
   46MOL   H80146791   4.939   6.135   5.300 -0.3306 -0.3357  0.4891
   46MOL   H80246792   5.045   6.195   5.130 -1.7031 -1.0604 -0.1869
   46MOL   H80346793   5.117   6.130   4.878 -0.9611 -0.0277 -0.7102
   46MOL   H80446794   5.215   6.238   4.688 -1.5478  0.0692 -0.8148
   46MOL   H80546795   5.167   6.585   4.597  1.9537  0.7339 -1.1302
   46MOL   H80646796   5.340   6.553   4.400 -1.2751 -0.4780 -0.5906
   46MOL   H80746797   5.352   6.445   4.178  1.9626  0.2452  2.3483
   46MOL   H80846798   5.221   6.107   4.124  1.3928 -0.4241  0.5182
   46MOL   H80946799   5.347   6.228   4.084 -0.3014  0.2422 -2.0408
   46MOL   H81046800   5.098   6.131   4.319  0.5408 -1.1184  2.1914
   46MOL   H81146801   5.048   6.250   4.520  1.9986 -0.2366  1.6851
   46MOL   H81246802   5.074   6.623   4.800  2.2033  0.1482 -1.7992
   46MOL   H81346803   4.985   6.521   5.015  0.6344 -0.3509  0.9704
   46MOL   H81446804   4.766   6.390   5.008 -3.2819 -3.1990 -1.9272
   46MOL   H81546805   4.552   6.400   5.141 -0.5427 -0.0326 -0.5401
   46MOL   H81646806   4.585   6.529   5.423 -1.1300 -1.6326  3.4936
   46MOL   H81746807   4.427   6.713   5.438  0.0125 -0.4330 -0.6713
   46MOL   N81846808   5.158   6.264   3.991 -0.2874 -0.0982  0.2960
   46MOL   C81946809   5.187   6.215   3.865  0.4431 -0.6259  0.2105
   46MOL   C82046810   5.324   6.197   3.819 -0.1740  0.2537 -0.0612
   46MOL   C82146811   5.348   6.141   3.695 -0.8927 -0.4543 -0.5220
   46MOL   C82246812   5.243   6.095   3.611  0.1261 -0.0570  0.4385
   46MOL   N82346813   5.263   6.026   3.487 -0.3932 -0.0439  0.1131
   46MOL   C82446814   5.360   5.929   3.474 -0.6171  0.1021  0.6853
   46MOL   C82546815   5.428   5.865   3.581  0.2922 -0.2724 -0.2577
   46MOL   C82646816   5.509   5.749   3.564  0.2566 -0.2559 -0.8102
   46MOL   C82746817   5.511   5.690   3.436  0.2075  0.1456  0.5084
   46MOL   N82846818   5.566   5.563   3.414  0.7570  0.0878 -1.0109
   46MOL   C82946819   5.502   5.448   3.363 -0.4307 -0.3349 -0.1147
   46MOL   C83046820   5.383   5.453   3.293  0.2613 -0.0557 -0.0586
   46MOL   C83146821   5.335   5.333   3.226  0.9687  0.2069 -0.0046
   46MOL   C83246822   5.405   5.211   3.233 -0.9629 -0.1064  0.2321
   46MOL   N83346823   5.383   5.114   3.138  0.5107 -0.2529 -0.3233
   46MOL   C83446824   5.273   5.104   3.048 -0.0840 -0.4232 -0.4721
   46MOL   C83546825   5.143   5.100   3.101  0.5785 -0.4526 -0.2268
   46MOL   C83646826   5.031   5.113   3.011 -0.8777  0.3354  0.0315
   46MOL   C83746827   5.058   5.139   2.876  0.5775 -0.0493  0.2140
   46MOL   C83846828   4.939   5.174   2.783 -0.5543 -0.4421  0.2870
   46MOL   C83946829   5.188   5.136   2.826  0.3493 -0.2034  0.0894
   46MOL   C84046830   5.296   5.118   2.909 -0.0739  0.7881 -0.2184
   46MOL   C84146831   5.524   5.204   3.305  0.2915 -0.4585  0.2827
   46MOL   C84246832   5.575   5.323   3.367 -0.3503 -0.6228  0.9319
   46MOL   C84346833   5.455   5.761   3.326  0.3760  0.3853  0.1893
   46MOL   C84446834   5.376   5.877   3.345 -0.6146  0.0749  0.0863
   46MOL   C84546835   5.109   6.114   3.654 -0.0890  0.1545 -0.2971
   46MOL   C84646836   5.083   6.176   3.780 -0.1256  0.4669  0.2121
   46MOL   H84746837   5.071   6.313   4.005  0.0248  0.7626 -0.6910
   46MOL   H84846838   5.408   6.232   3.877  0.9622 -0.8524 -1.0180
   46MOL   H84946839   5.450   6.130   3.661 -0.1724  1.4433  0.9256
   46MOL   H85046840   5.187   6.013   3.422  1.2709 -2.9760 -1.3814
   46MOL   H85146841   5.416   5.892   3.685 -1.0852  1.9842 -0.9719
   46MOL   H85246842   5.543   5.706   3.657  0.9796  3.2049  0.6195
   46MOL   H85346843   5.642   5.541   3.477  1.1725  0.2114 -1.4633
   46MOL   H85446844   5.317   5.538   3.281 -0.3709 -0.5080  0.1773
   46MOL   H85546845   5.242   5.346   3.173  0.1629 -2.3370  0.7145
   46MOL   H85646846   5.467   5.070   3.104 -1.0000 -4.1426  0.6452
   46MOL   H85746847   5.129   5.079   3.206  0.4509 -0.1625 -0.1842
   46MOL   H85846848   4.927   5.119   3.040 -1.2688  3.5767 -1.7781
   46MOL   H85946849   4.974   5.157   2.681 -0.7963 -0.7194  0.2490
   46MOL   H86046850   4.907   5.278   2.795  0.5676 -0.0451 -0.0750
   46MOL   H86146851   5.212   5.152   2.721  1.7259  1.8951  0.6854
   46MOL   H86246852   5.396   5.120   2.869  0.5817 -1.3185  1.2382
   46MOL   H86346853   5.568   5.106   3.310 -0.2835 -0.8458 -1.6034
   46MOL   H86446854   5.672   5.326   3.412  1.4209 -0.5662 -2.6979
   46MOL   H86546855   5.476   5.727   3.226  0.1084  3.5392 -1.0135
   46MOL   H86646856   5.324   5.930   3.267 -1.4346 -0.8206  0.0140
   46MOL   H86746857   5.028   6.083   3.590 -1.0790 -1.2613  1.6182
   46MOL   H86846858   4.987   6.195   3.825  0.4094 -1.1569  2.1369
   46MOL   N86946859   4.825   5.084   2.804  0.0634  0.7029  0.3606
   46MOL   C87046860   4.710   5.096   2.719 -0.0393  0.6148  0.8611
   46MOL   C87146861   4.602   5.009   2.749 -0.3813  0.1492  0.1328
   46MOL   C87246862   4.473   5.032   2.695 -0.4165  0.0610  0.4765
   46MOL   C87346863   4.453   5.140   2.607  0.1133  0.3538  0.3723
   46MOL   N87446864   4.326   5.160   2.560  0.5030 -0.4330  0.1759
   46MOL   C87546865   4.279   5.273   2.488 -0.1789 -0.2709 -0.5258
   46MOL   C87646866   4.188   5.247   2.382 -0.4965 -0.0031 -0.2259
   46MOL   C87746867   4.140   5.357   2.305 -0.0112  0.8889  0.2364
   46MOL   C87846868   4.166   5.485   2.344 -0.3727 -0.4600 -0.2077
   46MOL   N87946869   4.114   5.592   2.266 -0.2798  0.1466  0.3038
   46MOL   C88046870   4.178   5.710   2.230  0.0456  0.3541 -0.4548
   46MOL   C88146871   4.088   5.819   2.213 -0.2227 -0.4671 -0.1058
   46MOL   C88246872   4.147   5.944   2.190 -0.1757  0.0424  0.7354
   46MOL   C88346873   4.284   5.965   2.180  1.0454 -0.4323  0.2157
   46MOL   N88446874   4.337   6.091   2.157  0.1397 -0.3194 -0.0425
   46MOL   C88546875   4.453   6.137   2.211  0.1188  0.0552 -0.4558
   46MOL   C88646876   4.491   6.106   2.344 -0.7001  0.2095 -0.9419
   46MOL   C88746877   4.624   6.120   2.388 -0.4378 -0.3681  0.4876
   46MOL   C88846878   4.717   6.177   2.292 -0.2710  0.5601 -0.1850
   46MOL   C88946879   4.865   6.190   2.332  0.3338 -0.7564  0.7580
   46MOL   C89046880   4.675   6.211   2.158 -0.0252 -0.5621  0.6908
   46MOL   C89146881   4.541   6.199   2.120  0.5767  0.3262  0.4313
   46MOL   C89246882   4.369   5.853   2.207 -0.0263 -0.4018 -0.0170
   46MOL   C89346883   4.316   5.727   2.227  0.0243  0.3805  0.2538
   46MOL   C89446884   4.248   5.515   2.456  0.2400  0.1769 -0.0198
   46MOL   C89546885   4.309   5.405   2.520 -0.6310 -1.0262 -0.2995
   46MOL   C89646886   4.563   5.226   2.569 -0.1732 -0.0400  0.1053
   46MOL   C89746887   4.691   5.202   2.622  0.4395 -0.8245 -0.1472
   46MOL   H89846888   4.816   5.040   2.895 -0.7759  2.2042  1.0176
   46MOL   H89946889   4.622   4.939   2.829 -2.1983 -1.4181 -0.7288
   46MOL   H90046890   4.393   4.967   2.727 -2.5238  2.2659 -0.1655
   46MOL   H90146891   4.266   5.079   2.564 -0.3661  0.0906 -1.6952
   46MOL   H90246892   4.159   5.150   2.346 -1.9126 -0.4158  1.9087
   46MOL   H90346893   4.076   5.335   2.220  2.2446 -1.1212 -1.0115
   46MOL   H90446894   4.021   5.569   2.233  0.5561 -0.9309 -1.3536
   46MOL   H90546895   3.981   5.805   2.206 -0.4084  1.0138 -0.4507
   46MOL   H90646896   4.070   6.018   2.170  1.4468  1.5339 -0.1571
   46MOL   H90746897   4.285   6.154   2.097 -0.3584 -2.0919 -1.5249
   46MOL   H90846898   4.420   6.061   2.411 -3.0654  0.2519 -3.3602
   46MOL   H90946899   4.655   6.076   2.482  2.1799  0.3910  0.0261
   46MOL   H91046900   4.879   6.270   2.404  0.6336  1.5245 -1.7505
   46MOL   H91146901   4.922   6.208   2.241 -1.7962  2.5239 -0.0111
   46MOL   H91246902   4.748   6.266   2.101 -1.3674  1.3012  0.7094
   46MOL   H91346903   4.506   6.236   2.025  1.0541 -1.9010 -0.6392
   46MOL   H91446904   4.475   5.872   2.214 -0.4785  1.5427  2.2261
   46MOL   H91546905   4.379   5.643   2.253 -0.3216 -0.4750 -1.6323
   46MOL   H91646906   4.270   5.618   2.477 -1.2227  0.7832 -1.3260
   46MOL   H91746907   4.377   5.437   2.598 -1.8166  0.5308  0.1242
   46MOL   H91846908   4.555   5.306   2.496  2.8087 -0.1667 -0.4312
   46MOL   H91946909   4.769   5.270   2.590  0.5204  0.1947  2.1440
   46MOL   N92046910   4.924   6.068   2.395  0.1110 -0.5155  0.1004
   46MOL   C92146911   5.062   6.051   2.425 -0.7000  0.0921  0.5792
   46MOL   C92246912   5.147   6.160   2.427  0.0528  0.0968  0.0784
   46MOL   C92346913   5.282   6.135   2.463  0.1614  1.0496 -0.9566
   46MOL   C92446914   5.336   6.008   2.494  0.1672  0.5742  0.0296
   46MOL   N92546915   5.470   5.992   2.547  0.7347  0.1234  0.1821
   46MOL   C92646916   5.560   5.880   2.547  0.8020 -0.1909 -0.0096
   46MOL   C92746917   5.669   5.904   2.635  0.2423 -0.0237  0.1113
   46MOL   C92846918   5.778   5.819   2.637 -0.7307  1.1806 -0.7929
   46MOL   C92946919   5.782   5.702   2.554  0.3202 -1.1393 -0.2953
   46MOL   N93046920   5.893   5.616   2.557  0.5782  0.1670 -0.3721
   46MOL   C93146921   6.026   5.648   2.595 -0.0320  0.3636  0.7289
   46MOL   C93246922   6.095   5.552   2.677 -0.2033  0.2802 -0.9595
   46MOL   C93346923   6.227   5.582   2.716 -0.4674 -0.6496  0.2079
   46MOL   C93446924   6.285   5.708   2.696  0.7904 -0.7245 -0.2955
   46MOL   N93546925   6.409   5.730   2.752 -0.2381 -0.2653  0.6323
   46MOL   C93646926   6.480   5.849   2.768  0.9205 -0.7909 -0.1763
   46MOL   C93746927   6.492   5.940   2.663 -0.6054  0.7236  0.0460
   46MOL   C93846928   6.554   6.065   2.667 -1.0251 -0.4387 -0.5162
   46MOL   C93946929   6.610   6.105   2.790  0.4873  0.1415  0.0209
   46MOL   C94046930   6.665   6.249   2.806  0.4867  0.5203  0.1215
   46MOL   C94146931   6.601   6.013   2.904  0.2031 -0.7643  0.1927
   46MOL   C94246932   6.532   5.891   2.894 -0.3678 -0.0615 -1.1313
   46MOL   C94346933   6.217   5.798   2.604  0.0747 -0.3483 -0.5162
   46MOL   C94446934   6.090   5.771   2.558  0.2640 -0.3111 -0.7032
   46MOL   C94546935   5.679   5.679   2.464  0.6741 -0.1100 -0.6055
   46MOL   C94646936   5.565   5.765   2.463 -0.2013  0.1707  0.0531
   46MOL   C94746937   5.248   5.897   2.489  0.5049  0.3277 -0.0750
   46MOL   C94846938   5.117   5.922   2.452  0.3651 -0.3042  0.8768
   46MOL   H94946939   4.864   5.990   2.416 -0.6209 -0.2799 -1.0500
   46MOL   H95046940   5.116   6.261   2.404  0.8073  0.1712 -0.6226
   46MOL   H95146941   5.339   6.225   2.480 -0.0703  0.7248  1.7879
   46MOL   H95246942   5.490   6.056   2.623  0.5599 -1.4866  1.6229
   46MOL   H95346943   5.690   6.001   2.678 -0.0876 -0.5171  1.4100
   46MOL   H95446944   5.860   5.849   2.701 -0.1165 -0.2458 -0.8929
   46MOL   H95546945   5.884   5.533   2.500 -2.8125  0.3352 -0.1663
   46MOL   H95646946   6.055   5.454   2.696  2.0992 -0.6773 -0.8716
   46MOL   H95746947   6.285   5.508   2.769 -0.9376 -0.8921  0.3877
   46MOL   H95846948   6.427   5.668   2.830 -0.9847  0.6671  1.5493
   46MOL   H95946949   6.458   5.907   2.566  2.1084 -0.0682 -0.6987
   46MOL   H96046950   6.545   6.128   2.579  1.9515 -1.4932 -1.6350
   46MOL   H96146951   6.686   6.301   2.713  1.2970  0.3189  0.1924
   46MOL   H96246952   6.756   6.244   2.865  0.1171  1.6935  0.8080
   46MOL   H96346953   6.628   6.038   3.006 -0.8532 -1.8321  0.7443
   46MOL   H96446954   6.512   5.832   2.983 -0.1448 -1.4357 -1.9758
   46MOL   H96546955   6.265   5.889   2.573  0.3669 -1.0371 -2.1313
   46MOL   H96646956   6.030   5.836   2.495  0.3042  0.5295  0.1132
   46MOL   H96746957   5.695   5.590   2.404 -1.7178 -2.3762  1.9756
   46MOL   H96846958   5.474   5.738   2.410 -0.3160  0.3726  0.1484
   46MOL   H96946959   5.286   5.800   2.515 -0.3056 -0.3595 -1.3820
   46MOL   H97046960   5.053   5.836   2.467  0.8151 -0.5207  1.5903
   46MOL   N97146961   6.588   6.325   2.897 -0.5829  0.6627 -0.1838
   46MOL   C97246962   6.478   6.403   2.858  0.4709 -0.2112  0.1865
   46MOL   C97346963   6.408   6.473   2.959  0.6788 -0.4998 -0.3690
   46MOL   C97446964   6.307   6.565   2.918  0.1272  0.6601  0.6007
   46MOL   C97546965   6.266   6.572   2.786  0.9294  0.4222  0.2327
   46MOL   N97646966   6.169   6.670   2.761  0.8083  0.0081  0.5404
   46MOL   C97746967   6.056   6.648   2.683 -0.4368  0.0505  0.2451
   46MOL   C97846968   6.014   6.518   2.638 -0.4533 -0.1128 -0.4486
   46MOL   C97946969   5.884   6.503   2.581 -0.2594  0.4436  0.0161
   46MOL   C98046970   5.805   6.618   2.550 -0.3927 -0.6520  0.1072
   46MOL   N98146971   5.687   6.611   2.472 -0.3134 -0.3825 -0.7439
   46MOL   C98246972   5.647   6.506   2.390 -0.2902  0.1294  0.5515
   46MOL   C98346973   5.623   6.374   2.445  0.6479 -0.2528 -0.0413
   46MOL   C98446974   5.581   6.273   2.350 -0.4811 -0.4290 -0.3902
   46MOL   C98546975   5.575   6.303   2.215 -0.5567 -0.2493 -0.7769
   46MOL   N98646976   5.553   6.193   2.130 -0.5946  0.0919 -0.2414
   46MOL   C98746977   5.584   6.195   1.990  0.5825  0.5764 -0.2710
   46MOL   C98846978   5.695   6.256   1.940 -0.4943 -0.7250 -0.1177
   46MOL   C98946979   5.716   6.275   1.802 -0.3590  0.1361 -0.0789
   46MOL   C99046980   5.621   6.222   1.714  0.4806  0.3356  0.0276
   46MOL   C99146981   5.638   6.245   1.563 -0.1555 -0.1381  0.6833
   46MOL   C99246982   5.509   6.154   1.763  0.2325  0.1823 -0.3439
   46MOL   C99346983   5.487   6.133   1.902 -0.2802 -0.2108  0.1032
   46MOL   C99446984   5.583   6.434   2.166  0.4021 -0.2829 -0.0599
   46MOL   C99546985   5.620   6.536   2.253 -0.8279  0.1752  0.0827
   46MOL   C99646986   5.856   6.744   2.583 -0.2165 -0.2755 -0.2273
   46MOL   C99746987   5.979   6.757   2.646 -0.0386 -0.0656  0.7874
   46MOL   C99846988   6.336   6.498   2.686  0.1639  0.4124 -1.1094
   46MOL   C99946989   6.439   6.411   2.721  0.1641  0.4421 -0.0462
   46MOL     H146990   6.620   6.336   2.992 -1.8440  2.4715  0.0617
   46MOL     H246991   6.434   6.463   3.063  0.8713 -0.3866 -0.4043
   46MOL     H346992   6.262   6.633   2.989  0.2146 -0.3639  1.6590
   46MOL     H446993   6.147   6.735   2.835 -1.1891 -1.2562  1.1187
   46MOL     H546994   6.082   6.435   2.651  1.0586  1.2619  0.6607
   46MOL     H646995   5.853   6.404   2.551  0.4150  0.8386 -2.0838
   46MOL     H746996   5.654   6.699   2.434  2.1141  1.3596  1.0120
   46MOL     H846997   5.643   6.355   2.549  0.6496 -0.2232 -0.0363
   46MOL     H946998   5.572   6.171   2.386 -2.1650  0.1949  1.0411
   46MOL    H1046999   5.496   6.115   2.156  1.4353 -0.8951  1.3355
   46MOL    H1147000   5.770   6.302   2.002 -1.2274 -0.8868  0.8994
   46MOL    H1247001   5.801   6.329   1.764 -1.7594  1.1105 -1.8444
   46MOL    H1347002   5.594   6.341   1.539 -0.8596 -0.9232 -1.2358
   46MOL    H1447003   5.578   6.175   1.505 -0.8027 -0.9984  2.3542
   46MOL    H1547004   5.444   6.106   1.692  2.5604 -1.5142 -1.4084
   46MOL    H1647005   5.403   6.078   1.940 -0.7398  0.7051  0.4162
   46MOL    H1747006   5.559   6.461   2.064 -0.5299 -0.2786  0.1664
   46MOL    H1847007   5.631   6.637   2.217 -0.2445  0.3135  0.6359
   46MOL    H1947008   5.796   6.830   2.557 -0.3493 -0.9608 -2.2128
   46MOL    H2047009   6.003   6.855   2.684 -0.0777 -0.0060  0.6578
   46MOL    H2147010   6.318   6.508   2.580 -0.3186 -1.3914 -1.2157
   46MOL    H2247011   6.481   6.370   2.631 -1.1503 -1.6479  0.2658
   46MOL    H2347012   5.740   6.250   1.524  0.6360 -0.9984  2.5317
   47MOL     N147013   1.896   5.873   5.559 -0.3634  0.2903 -0.4047
   47MOL     C247014   1.764   5.848   5.513  0.4727  0.3987 -1.1741
   47MOL     C347015   1.714   5.713   5.523  0.0166 -0.0373  0.0079
   47MOL     C447016   1.583   5.679   5.468 -1.5484  0.9978  0.2589
   47MOL     C547017   1.501   5.779   5.411  0.7389  0.7942  0.5901
   47MOL     N647018   1.372   5.748   5.363 -0.3869 -0.0929  0.0014
   47MOL     C747019   1.272   5.834   5.326  0.3120  0.5578  0.8216
   47MOL     C847020   1.188   5.811   5.214  0.4145 -0.8278  0.2028
   47MOL     C947021   1.076   5.894   5.200  0.3493 -0.7669  0.0595
   47MOL    C1047022   1.043   6.005   5.287 -0.9311  0.0618  0.5037
   47MOL    N1147023   0.941   6.096   5.256 -0.1757  0.0920  1.0697
   47MOL    C1247024   0.906   6.206   5.333  0.3360  0.1546  0.5248
   47MOL    C1347025   0.873   6.188   5.471 -0.4837 -0.1984  0.1815
   47MOL    C1447026   0.831   6.299   5.551  0.1516 -0.2408  0.3980
   47MOL    C1547027   0.815   6.424   5.490  0.0318  0.1620 -0.0999
   47MOL    N1647028   0.766   6.534   5.564  0.6574  0.2506 -0.2581
   47MOL    C1747029   0.810   6.580   5.690  0.0744 -0.1143  0.1480
   47MOL    C1847030   0.722   6.669   5.760  0.0384  0.1100  0.1375
   47MOL    C1947031   0.776   6.748   5.867  0.5193 -0.1518 -0.0571
   47MOL    C2047032   0.898   6.717   5.927 -0.5090 -0.3702  0.0715
   47MOL    C2147033   0.948   6.787   6.051 -0.2266  0.4505  0.3167
   47MOL    C2247034   0.972   6.610   5.874 -0.9270 -0.3322 -0.4548
   47MOL    C2347035   0.940   6.551   5.746  0.2579 -0.0778 -0.4514
   47MOL    C2447036   0.843   6.443   5.354  0.2318  0.2415  0.5531
   47MOL    C2547037   0.881   6.335   5.272  0.0216 -0.1377 -0.4579
   47MOL    C2647038   1.127   6.024   5.393  0.3678  0.8166 -0.3802
   47MOL    C2747039   1.239   5.940   5.411 -0.1243 -0.3757  0.8419
   47MOL    C2847040   1.553   5.911   5.402 -0.7459  0.4084 -0.5268
   47MOL    C2947041   1.686   5.945   5.443  0.5918 -0.5770  0.6317
   47MOL    H3047042   1.953   5.790   5.563  2.6681  2.3085 -0.3960
   47MOL    H3147043   1.772   5.643   5.580  0.7746  1.3676  0.9821
   47MOL    H3247044   1.543   5.580   5.480 -0.0959  0.4327  0.5402
   47MOL    H3347045   1.370   5.654   5.328 -0.2558 -0.9908  2.3471
   47MOL    H3447046   1.205   5.729   5.146  1.1239  0.1344 -0.7877
   47MOL    H3547047   1.015   5.865   5.116  1.6207 -3.3049 -0.0291
   47MOL    H3647048   0.920   6.115   5.159  2.0173  0.7438  0.6791
   47MOL    H3747049   0.874   6.093   5.522  1.5018  0.3310  1.1766
   47MOL    H3847050   0.797   6.283   5.652 -0.0481 -0.2420  0.3317
   47MOL    H3947051   0.714   6.598   5.506  0.3992  1.6100  1.4355
   47MOL    H4047052   0.625   6.680   5.716 -0.7748 -1.7634  1.3996
   47MOL    H4147053   0.716   6.826   5.911 -0.7129 -0.9661 -0.2836
   47MOL    H4247054   0.954   6.895   6.036  0.3782  0.3320 -0.3341
   47MOL    H4347055   1.049   6.752   6.074  0.8239  2.1462 -1.5440
   47MOL    H4447056   1.069   6.582   5.913 -0.6703 -0.1616 -0.9780
   47MOL    H4547057   1.007   6.483   5.697 -0.7405  0.0311 -2.0162
   47MOL    H4647058   0.844   6.535   5.299  2.3569 -0.8115 -1.2344
   47MOL    H4747059   0.900   6.353   5.167 -0.8087 -0.1726 -0.6137
   47MOL    H4847060   1.118   6.096   5.472 -3.4940  0.2081 -0.1521
   47MOL    H4947061   1.310   5.958   5.491 -0.5949 -1.3683  1.4943
   47MOL    H5047062   1.492   5.984   5.350  0.1289  1.1129 -0.5810
   47MOL    H5147063   1.737   6.039   5.429  2.0365 -1.4322 -0.0795
   47MOL    H5247064   1.914   5.934   5.637 -0.2153  1.0712 -1.0403
   47MOL    N5347065   0.867   6.749   6.168  0.5604  0.6192 -0.2156
   47MOL    C5447066   0.890   6.810   6.297  0.4438 -0.1888  0.3462
   47MOL    C5547067   0.802   6.782   6.405  0.0401  0.1577 -0.6107
   47MOL    C5647068   0.823   6.833   6.533 -1.3613  0.7093 -0.5560
   47MOL    C5747069   0.931   6.908   6.565 -0.1471  0.3767  0.1452
   47MOL    N5847070   0.942   6.960   6.696 -0.1929 -0.4018  0.2303
   47MOL    C5947071   1.050   6.943   6.784  0.3257  0.7517  0.3746
   47MOL    C6047072   1.156   6.855   6.752  0.4809 -0.3477 -0.3899
   47MOL    C6147073   1.258   6.831   6.851 -0.2012 -0.2473  0.2202
   47MOL    C6247074   1.259   6.897   6.973  0.2060 -0.2643 -0.6719
   47MOL    N6347075   1.357   6.855   7.060  0.6864  0.9346 -0.0597
   47MOL    C6447076   1.453   6.943   7.115 -0.3045 -0.0774  0.0897
   47MOL    C6547077   1.530   6.901   7.221  0.0776  0.5214 -0.1610
   47MOL    C6647078   1.614   6.995   7.282  0.1046 -0.2674  0.0756
   47MOL    C6747079   1.640   7.120   7.222 -0.0882  0.0265 -0.1198
   47MOL    N6847080   1.729   7.210   7.287  0.2723  1.4530  0.6124
   47MOL    C6947081   1.801   7.322   7.236  0.3571 -0.4688 -0.2219
   47MOL    C7047082   1.833   7.426   7.328 -0.0673 -0.1038 -0.3257
   47MOL    C7147083   1.903   7.537   7.277 -0.5891 -0.5087 -0.3661
   47MOL    C7247084   1.940   7.555   7.140  0.2235 -0.2417  0.0435
   47MOL    C7347085   2.003   7.687   7.085  0.1003 -0.0446 -0.8520
   47MOL    C7447086   1.912   7.445   7.057 -0.6036  0.3009 -0.4020
   47MOL    C7547087   1.844   7.330   7.109 -0.4453  0.5111  0.3898
   47MOL    C7647088   1.571   7.157   7.110 -0.1217 -0.6150  0.4888
   47MOL    C7747089   1.474   7.072   7.058 -0.4709 -0.3801  0.8282
   47MOL    C7847090   1.158   6.992   7.000 -0.3965  0.8414  0.4249
   47MOL    C7947091   1.056   7.017   6.907 -0.5018  0.0261  0.2946
   47MOL    C8047092   1.026   6.937   6.460  0.1528 -0.1958 -0.6068
   47MOL    C8147093   1.005   6.886   6.332  0.1539 -0.0200  0.0719
   47MOL    H8247094   0.781   6.697   6.154  0.3090  1.2251 -0.9301
   47MOL    H8347095   0.713   6.725   6.385 -0.5581  0.1529  1.9125
   47MOL    H8447096   0.759   6.817   6.618 -0.9984  0.6901 -0.2820
   47MOL    H8547097   0.857   6.986   6.745  0.2630 -0.2721  0.9551
   47MOL    H8647098   1.160   6.802   6.658  0.1544 -2.5311  0.7690
   47MOL    H8747099   1.340   6.764   6.825  3.0401  3.8310 -0.5634
   47MOL    H8847100   1.385   6.758   7.059  0.7586  0.8929  2.3748
   47MOL    H8947101   1.522   6.803   7.265  0.5291  0.5169 -0.0807
   47MOL    H9047102   1.669   6.970   7.372  0.4583  2.8899  0.7990
   47MOL    H9147103   1.714   7.205   7.386  1.6298  0.9109  0.8074
   47MOL    H9247104   1.799   7.426   7.430  2.8789 -1.5632  0.7197
   47MOL    H9347105   1.936   7.608   7.352 -1.4694  3.0197 -3.2155
   47MOL    H9447106   1.988   7.686   6.977  0.8033  1.0267 -0.9614
   47MOL    H9547107   2.110   7.673   7.100  0.6949  3.6285 -1.2968
   47MOL    H9647108   1.933   7.444   6.951  0.0479 -1.5289 -0.2658
   47MOL    H9747109   1.820   7.255   7.035 -2.1660  1.6178 -0.1998
   47MOL    H9847110   1.593   7.249   7.058  2.5998 -1.5460 -0.1057
   47MOL    H9947111   1.417   7.114   6.976  1.2475 -0.9945 -0.7373
   47MOL   H10047112   1.148   7.041   7.096 -1.3721 -0.3818  0.9642
   47MOL   H10147113   0.964   7.069   6.931 -1.4284 -0.8966 -1.1770
   47MOL   H10247114   1.120   6.986   6.485  0.2123  0.8654 -2.8162
   47MOL   H10347115   1.082   6.893   6.257 -1.7154  0.5862 -1.8226
   47MOL   N10447116   1.967   7.804   7.159  0.1014  0.0145 -0.6095
   47MOL   C10547117   1.969   7.933   7.102  0.1183  0.7408 -0.4993
   47MOL   C10647118   1.917   0.061   7.176  0.2627 -0.0778 -0.4927
   47MOL   C10747119   1.896   0.184   7.113 -0.5999  0.7445 -0.5714
   47MOL   C10847120   1.946   0.209   6.984  0.2152  0.1544  0.7157
   47MOL   N10947121   1.914   0.330   6.917 -0.5767  0.2790  0.4959
   47MOL   C11047122   1.913   0.352   6.776  0.3986  0.4551 -0.2239
   47MOL   C11147123   2.024   0.353   6.695  0.2548 -0.0530  0.8046
   47MOL   C11247124   2.008   0.380   6.556  0.6036 -1.2294  0.0961
   47MOL   C11347125   1.888   0.413   6.498 -0.2176 -0.2661 -0.3901
   47MOL   N11447126   1.872   0.450   6.367 -0.3850  0.1842 -0.1361
   47MOL   C11547127   1.757   0.511   6.317  0.2348 -0.2948  0.2923
   47MOL   C11647128   1.746   0.649   6.312 -0.6352 -1.0823  0.8637
   47MOL   C11747129   1.621   0.704   6.263  0.3402 -0.4282  0.4514
   47MOL   C11847130   1.521   0.619   6.219  0.2161 -0.2403 -0.0717
   47MOL   N11947131   1.403   0.672   6.167  0.3905 -0.5273 -0.7461
   47MOL   C12047132   1.393   0.743   6.049  0.0898 -0.3204 -0.2474
   47MOL   C12147133   1.485   0.725   5.946  0.6986 -0.4621  0.1741
   47MOL   C12247134   1.480   0.805   5.830 -0.5013 -0.5829 -1.1274
   47MOL   C12347135   1.384   0.903   5.817 -0.1524 -0.6792 -0.0874
   47MOL   C12447136   1.389   0.995   5.693 -1.2554  0.0327  0.3946
   47MOL   C12547137   1.288   0.930   5.922 -0.1827  0.1105  0.0968
   47MOL   C12647138   1.292   0.848   6.038  0.0687  0.5620 -0.1985
   47MOL   C12747139   1.535   0.481   6.223  0.5096 -0.5774  0.0296
   47MOL   C12847140   1.658   0.426   6.260 -0.1773 -0.1738  0.7945
   47MOL   C12947141   1.772   0.407   6.586 -0.2802  0.0420  0.3686
   47MOL   C13047142   1.785   0.381   6.725  0.0660 -0.7849  0.2123
   47MOL   C13147143   2.015   0.106   6.915 -0.2455  0.2233 -0.1463
   47MOL   C13247144   2.019   7.960   6.973 -0.3655  0.7315 -0.0249
   47MOL   H13347145   1.910   7.791   7.241 -0.8424 -0.1406 -1.2795
   47MOL   H13447146   1.862   0.048   7.269  3.2200  0.9558  1.4567
   47MOL   H13547147   1.840   0.261   7.163  0.5859  1.3632 -0.1729
   47MOL   H13647148   1.847   0.392   6.961  0.2410  1.8735 -0.4669
   47MOL   H13747149   2.123   0.346   6.737  1.3091  0.4211 -1.5550
   47MOL   H13847150   2.094   0.388   6.491  0.5533 -1.7825 -0.0352
   47MOL   H13947151   1.955   0.492   6.328 -0.0849 -0.6605 -0.4120
   47MOL   H14047152   1.830   0.709   6.347  0.1966 -0.8902 -1.3522
   47MOL   H14147153   1.607   0.811   6.258  0.2743 -0.4524  0.1068
   47MOL   H14247154   1.329   0.694   6.231  1.1962 -0.9278  0.3378
   47MOL   H14347155   1.565   0.652   5.943  0.3234 -0.8313 -1.3255
   47MOL   H14447156   1.555   0.791   5.753 -0.1007  0.0557 -0.8613
   47MOL   H14547157   1.349   1.094   5.717 -1.5558 -0.3118  1.3125
   47MOL   H14647158   1.304   0.967   5.632 -0.3901 -3.5700  0.7574
   47MOL   H14747159   1.215   1.009   5.930 -1.2659 -1.0340  2.0358
   47MOL   H14847160   1.220   0.857   6.118  0.0069 -0.1195 -0.1756
   47MOL   H14947161   1.455   0.416   6.191  0.3953  0.6561 -2.2330
   47MOL   H15047162   1.667   0.318   6.266 -0.9549 -0.5251 -3.1929
   47MOL   H15147163   1.671   0.433   6.560 -0.0145 -1.0318 -1.7785
   47MOL   H15247164   1.698   0.387   6.789  0.2083 -0.2893  0.3676
   47MOL   H15347165   2.063   0.122   6.820 -0.5286  0.3482 -0.2721
   47MOL   H15447166   2.053   7.881   6.907 -0.8737 -0.1053  0.6935
   47MOL   N15547167   1.512   0.985   5.604  0.0105  0.5847 -0.2809
   47MOL   C15647168   1.516   0.905   5.484  0.2686  0.1198 -0.1980
   47MOL   C15747169   1.631   0.827   5.449  0.0386  0.5294  0.1740
   47MOL   C15847170   1.650   0.754   5.327 -0.1989  0.4259 -0.1941
   47MOL   C15947171   1.542   0.756   5.240 -0.4860  1.0446  0.0550
   47MOL   N16047172   1.542   0.690   5.118 -0.1246  0.6186  0.2687
   47MOL   C16147173   1.635   0.698   5.019  0.4545 -0.7534 -0.2396
   47MOL   C16247174   1.637   0.600   4.915  0.2810 -0.5340  0.3584
   47MOL   C16347175   1.739   0.597   4.822 -0.1387  0.0717 -0.0560
   47MOL   C16447176   1.836   0.698   4.814 -0.3671  0.5779  0.6017
   47MOL   N16547177   1.932   0.694   4.713 -0.5627 -0.1913  0.1952
   47MOL   C16647178   2.064   0.730   4.728  0.0271 -0.3217 -0.2003
   47MOL   C16747179   2.142   0.690   4.839  0.1592  0.1987  0.1651
   47MOL   C16847180   2.266   0.742   4.864  0.0090 -0.1743  0.0864
   47MOL   C16947181   2.330   0.816   4.762  0.1364 -0.5002 -0.5568
   47MOL   N17047182   2.458   0.861   4.787  0.0120 -0.4871  0.3258
   47MOL   C17147183   2.518   0.984   4.758 -0.4406  0.1079  0.0077
   47MOL   C17247184   2.453   1.108   4.719 -0.2463  0.0736 -0.1179
   47MOL   C17347185   2.529   1.221   4.695 -0.2771 -1.1487  0.6194
   47MOL   C17447186   2.671   1.214   4.690 -0.5667 -0.2062  0.5256
   47MOL   C17547187   2.746   1.341   4.648  0.6574  0.1078  0.0909
   47MOL   C17647188   2.734   1.089   4.719  0.2663 -0.1293  0.0470
   47MOL   C17747189   2.654   0.975   4.751 -0.1309 -0.2089 -0.2217
   47MOL   C17847190   2.256   0.859   4.651  0.2816  0.1563  0.5712
   47MOL   C17947191   2.126   0.811   4.635 -0.0272 -0.2953  0.0685
   47MOL   C18047192   1.835   0.803   4.915 -0.3151  0.4554 -0.4675
   47MOL   C18147193   1.723   0.808   5.008 -0.2952  0.2746 -0.9605
   47MOL   C18247194   1.423   0.830   5.270 -0.0375  0.2039  0.2433
   47MOL   C18347195   1.413   0.910   5.385 -0.6071  0.7109 -0.1206
   47MOL   H18447196   1.599   1.014   5.647  1.4022 -1.5982 -1.5470
   47MOL   H18547197   1.708   0.827   5.525 -0.5645 -0.2614  0.7960
   47MOL   H18647198   1.741   0.697   5.318 -1.1643 -1.5400  1.9107
   47MOL   H18747199   1.473   0.618   5.107  2.1323 -1.8924  1.9508
   47MOL   H18847200   1.571   0.515   4.913 -1.2008  0.5683  0.7272
   47MOL   H18947201   1.737   0.518   4.749 -0.5500 -0.2921  0.3417
   47MOL   H19047202   1.909   0.686   4.615 -1.0931  1.9054  0.1091
   47MOL   H19147203   2.103   0.622   4.913  0.3394 -0.2966 -0.1912
   47MOL   H19247204   2.321   0.716   4.953  0.9124  1.7547  0.1141
   47MOL   H19347205   2.524   0.797   4.830  0.8314  0.6987  0.8616
   47MOL   H19447206   2.346   1.118   4.727 -0.6513 -1.9885 -2.2383
   47MOL   H19547207   2.486   1.317   4.669 -1.0406 -1.2294  1.5343
   47MOL   H19647208   2.677   1.423   4.630  1.1811  0.6934  0.6898
   47MOL   H19747209   2.784   1.315   4.549  0.9753  0.1027  0.2135
   47MOL   H19847210   2.842   1.085   4.714  0.2488 -0.8262  0.1584
   47MOL   H19947211   2.709   0.883   4.767  0.2710  0.0548 -0.0733
   47MOL   H20047212   2.295   0.924   4.574 -0.6891  1.9727  1.5872
   47MOL   H20147213   2.062   0.857   4.562  0.3004  0.9944  0.5951
   47MOL   H20247214   1.916   0.873   4.929 -0.5369  1.1983 -2.7420
   47MOL   H20347215   1.721   0.888   5.080  1.5230  1.3851 -2.1192
   47MOL   H20447216   1.348   0.840   5.193  1.6412 -1.0511 -1.6154
   47MOL   H20547217   1.324   0.970   5.399 -0.5339  0.8076 -0.0671
   47MOL   N20647218   2.852   1.378   4.736 -0.1233  0.4708  0.3070
   47MOL   C20747219   2.935   1.479   4.690  0.0325  0.3692  0.4082
   47MOL   C20847220   2.988   1.567   4.785 -0.3907  0.1036  0.5167
   47MOL   C20947221   3.072   1.669   4.743 -0.0704 -0.0430  0.8562
   47MOL   C21047222   3.117   1.680   4.612  0.0844  0.7264  0.3587
   47MOL   N21147223   3.230   1.764   4.586  0.4504 -0.4580  0.1971
   47MOL   C21247224   3.251   1.900   4.619  0.3171 -0.0055  0.0933
   47MOL   C21347225   3.384   1.941   4.612 -0.2649  0.2851 -0.3505
   47MOL   C21447226   3.409   2.078   4.631 -0.2574 -0.0793 -0.2519
   47MOL   C21547227   3.308   2.172   4.655  0.6701  0.0686  0.0279
   47MOL   N21647228   3.325   2.306   4.689  0.2682  0.2179  0.3774
   47MOL   C21747229   3.435   2.386   4.695 -0.0031 -0.0664  0.5596
   47MOL   C21847230   3.447   2.497   4.776  0.1861  0.5223 -0.5716
   47MOL   C21947231   3.560   2.578   4.779 -0.8063  0.3822  0.7410
   47MOL   C22047232   3.670   2.550   4.688  0.1544  0.0760 -0.2183
   47MOL   N22147233   3.763   2.645   4.664 -0.6457  0.2436  0.0496
   47MOL   C22247234   3.894   2.641   4.620 -0.1665  0.4587  0.1780
   47MOL   C22347235   3.950   2.746   4.548 -0.0439 -0.0639 -0.1786
   47MOL   C22447236   4.086   2.753   4.512  0.3304  0.0580  0.4896
   47MOL   C22547237   4.166   2.649   4.552 -0.0598 -0.8825 -0.3358
   47MOL   C22647238   4.311   2.644   4.533 -0.5374 -0.0580  0.5918
   47MOL   C22747239   4.115   2.544   4.629  0.0614 -0.4965 -0.1379
   47MOL   C22847240   3.981   2.537   4.668  0.1660 -0.4646 -0.5659
   47MOL   C22947241   3.653   2.442   4.597  0.3482  0.0371  0.3521
   47MOL   C23047242   3.536   2.366   4.606  0.2565 -0.3844  0.0482
   47MOL   C23147243   3.174   2.131   4.640  0.6205  0.2464 -0.2073
   47MOL   C23247244   3.140   1.996   4.621  0.0128 -0.1618  0.4058
   47MOL   C23347245   3.066   1.591   4.515  0.3889  0.6044 -0.5523
   47MOL   C23447246   2.978   1.487   4.554 -0.3125 -0.0265 -0.8907
   47MOL   H23547247   2.818   1.403   4.828 -2.0371 -0.4887 -0.1117
   47MOL   H23647248   2.965   1.561   4.890 -1.0709 -0.6206  0.3282
   47MOL   H23747249   3.126   1.736   4.808  1.5015  2.8475 -3.1850
   47MOL   H23847250   3.304   1.723   4.531 -1.4041 -1.2058 -1.7966
   47MOL   H23947251   3.464   1.873   4.586 -0.5346  0.2583 -1.1270
   47MOL   H24047252   3.511   2.113   4.631 -0.6192  1.0386  0.8960
   47MOL   H24147253   3.243   2.358   4.716 -0.5981 -0.7633 -0.3316
   47MOL   H24247254   3.367   2.524   4.843 -1.0688 -2.2220 -0.8849
   47MOL   H24347255   3.568   2.666   4.841 -3.3366  0.5737  0.8308
   47MOL   H24447256   3.739   2.733   4.708 -0.5802  1.2737 -1.9108
   47MOL   H24547257   3.883   2.819   4.507 -0.8686 -1.2090 -0.9013
   47MOL   H24647258   4.102   2.839   4.448 -0.7663 -1.7993 -2.3435
   47MOL   H24747259   4.360   2.557   4.578  1.4111  1.1004  0.7404
   47MOL   H24847260   4.362   2.727   4.581 -0.2809 -0.8247  1.6777
   47MOL   H24947261   4.179   2.466   4.666 -0.7414 -0.6752  0.9151
   47MOL   H25047262   3.939   2.465   4.737  0.1458  0.2989  0.2313
   47MOL   H25147263   3.729   2.424   4.522 -0.2460  1.9110 -0.7525
   47MOL   H25247264   3.527   2.288   4.531 -0.2110  1.5486 -1.9562
   47MOL   H25347265   3.094   2.200   4.662 -0.0285  0.0036 -1.7676
   47MOL   H25447266   3.034   1.973   4.623  0.4409 -2.2378  0.2941
   47MOL   H25547267   3.118   1.587   4.420  0.2375  0.2124 -0.6154
   47MOL   H25647268   2.956   1.410   4.481  1.4375 -0.1726 -1.2838
   47MOL   N25747269   4.353   2.662   4.393  0.2691  0.1624 -0.2972
   47MOL   C25847270   4.317   2.575   4.288  0.1339 -0.7578 -0.0632
   47MOL   C25947271   4.359   2.611   4.159 -0.6813 -0.2757  0.0498
   47MOL   C26047272   4.304   2.547   4.049  0.0284  0.8899  0.2618
   47MOL   C26147273   4.220   2.436   4.073 -0.7030 -0.8478 -0.1038
   47MOL   N26247274   4.157   2.387   3.960  0.2325  0.3296 -0.7650
   47MOL   C26347275   4.091   2.261   3.947 -0.0859 -0.4444  0.2543
   47MOL   C26447276   3.966   2.257   3.880 -0.0020  0.6006  0.3872
   47MOL   C26547277   3.896   2.137   3.868 -0.3451  0.0853 -0.2684
   47MOL   C26647278   3.945   2.017   3.928 -0.6693 -0.1545  0.2598
   47MOL   N26747279   3.892   1.892   3.904  0.0490  0.0544  0.0038
   47MOL   C26847280   3.756   1.857   3.884  0.1395  0.1413  0.3408
   47MOL   C26947281   3.656   1.940   3.932 -0.0536  0.4920 -0.0749
   47MOL   C27047282   3.523   1.899   3.934 -0.1197 -0.1136  0.6687
   47MOL   C27147283   3.493   1.778   3.866  0.5268  0.1913  0.0299
   47MOL   N27247284   3.358   1.740   3.843  0.2946 -0.5501 -0.5494
   47MOL   C27347285   3.242   1.750   3.925  0.3300 -0.3501  0.0279
   47MOL   C27447286   3.133   1.666   3.892  0.4588 -0.1799  0.2405
   47MOL   C27547287   3.025   1.649   3.981  0.3672 -0.2239  0.8987
   47MOL   C27647288   3.031   1.710   4.105  0.7038  0.3407 -0.2181
   47MOL   C27747289   2.926   1.676   4.207  0.1071 -0.5702 -0.0577
   47MOL   C27847290   3.139   1.787   4.138 -0.5926  0.0311  0.8556
   47MOL   C27947291   3.242   1.811   4.049 -0.5583  0.1724 -0.6307
   47MOL   C28047292   3.595   1.691   3.809 -1.1715  0.0798 -0.7680
   47MOL   C28147293   3.729   1.732   3.822  0.3242  0.9954 -0.2034
   47MOL   C28247294   4.074   2.020   3.984 -0.1349 -0.3444  0.3500
   47MOL   C28347295   4.149   2.142   3.995 -0.4619  0.0341  0.2262
   47MOL   C28447296   4.193   2.387   4.203 -0.3115 -0.0756  0.1692
   47MOL   C28547297   4.238   2.461   4.311 -0.3939 -0.6706 -0.2861
   47MOL   H28647298   4.341   2.761   4.373  0.4572  0.1819 -0.3157
   47MOL   H28747299   4.431   2.691   4.153  0.1906 -1.1065 -0.7227
   47MOL   H28847300   4.323   2.576   3.947  0.7045 -0.7289 -0.0801
   47MOL   H28947301   4.147   2.456   3.887 -1.5205  0.8574 -0.0460
   47MOL   H29047302   3.925   2.345   3.833 -1.0122  0.8099  1.6150
   47MOL   H29147303   3.795   2.142   3.829 -0.3989 -0.9762 -0.2813
   47MOL   H29247304   3.957   1.817   3.886  1.0626  1.1573 -0.9945
   47MOL   H29347305   3.673   2.039   3.972 -0.1439  0.4512  0.0669
   47MOL   H29447306   3.450   1.973   3.964 -1.3665 -1.1631  0.2977
   47MOL   H29547307   3.352   1.675   3.765  1.1059 -1.4019  0.0900
   47MOL   H29647308   3.122   1.599   3.808 -1.2899  1.9007 -1.2355
   47MOL   H29747309   2.946   1.578   3.967  0.5134 -0.5830  1.8640
   47MOL   H29847310   2.944   1.725   4.303 -0.8354  0.5534 -0.4426
   47MOL   H29947311   2.920   1.569   4.227 -0.8806 -0.4712  0.1964
   47MOL   H30047312   3.156   1.842   4.229 -3.5326  4.1796 -0.8886
   47MOL   H30147313   3.329   1.853   4.096  0.4773 -0.2455 -2.1602
   47MOL   H30247314   3.566   1.595   3.767 -0.9852 -1.1913  1.9107
   47MOL   H30347315   3.805   1.678   3.769 -0.7945  0.3797 -1.2099
   47MOL   H30447316   4.114   1.925   4.016 -0.9062 -0.6762  0.3271
   47MOL   H30547317   4.250   2.146   4.033 -0.5697  0.6538  0.4620
   47MOL   H30647318   4.117   2.311   4.217 -2.1566  1.5769 -0.5302
   47MOL   H30747319   4.205   2.427   4.408 -1.5406  1.0618 -0.0452
   47MOL   N30847320   2.794   1.715   4.158  0.2455  0.1852  0.5465
   47MOL   C30947321   2.681   1.677   4.224  1.1404  0.2104 -0.1017
   47MOL   C31047322   2.559   1.723   4.169  0.2950 -0.4174  0.5944
   47MOL   C31147323   2.441   1.707   4.238  0.2832  0.3211 -0.5157
   47MOL   C31247324   2.444   1.640   4.356 -0.1160 -0.3849  0.3947
   47MOL   N31347325   2.328   1.624   4.430  0.5578  0.0769  0.2478
   47MOL   C31447326   2.271   1.508   4.472  0.0582 -0.5288 -0.3275
   47MOL   C31547327   2.131   1.516   4.511 -0.1471  0.0854 -0.3365
   47MOL   C31647328   2.064   1.402   4.554 -0.4052 -0.1836 -0.5566
   47MOL   C31747329   2.131   1.277   4.556 -0.0667  0.7348  0.0888
   47MOL   N31847330   2.058   1.163   4.601  0.1797 -0.2592  0.2122
   47MOL   C31947331   1.917   1.151   4.595  0.5162  0.2092  0.7727
   47MOL   C32047332   1.835   1.177   4.485  0.2503 -0.2619  0.2621
   47MOL   C32147333   1.697   1.155   4.485 -0.3309  0.6404  0.8970
   47MOL   C32247334   1.637   1.115   4.604  0.5900 -0.6388 -0.6384
   47MOL   N32347335   1.496   1.090   4.606  0.0430  0.2346 -0.2451
   47MOL   C32447336   1.413   1.061   4.500 -0.4715 -0.2624  0.3140
   47MOL   C32547337   1.445   0.987   4.386  0.3521  0.5470  0.6275
   47MOL   C32647338   1.356   0.977   4.281 -0.4799 -0.4412 -0.0849
   47MOL   C32747339   1.232   1.043   4.281  0.2134  0.4008 -0.3161
   47MOL   C32847340   1.126   1.013   4.172  0.1769 -0.1710 -0.0954
   47MOL   C32947341   1.199   1.115   4.398  0.7383  0.1269 -0.0495
   47MOL   C33047342   1.285   1.120   4.509 -0.2102 -0.0377  0.2895
   47MOL   C33147343   1.715   1.079   4.716  0.1250 -0.3633  0.2555
   47MOL   C33247344   1.858   1.086   4.711 -0.5204  0.2044  0.2572
   47MOL   C33347345   2.264   1.268   4.503  0.6803  0.3676 -0.1712
   47MOL   C33447346   2.330   1.384   4.468  0.3033  0.4267  0.0853
   47MOL   C33547347   2.561   1.582   4.410  0.4760  0.8528 -0.0023
   47MOL   C33647348   2.683   1.601   4.343  0.6566 -0.7514 -0.1563
   47MOL   H33747349   2.781   1.771   4.075 -0.8031 -0.5006  0.2367
   47MOL   H33847350   2.560   1.777   4.076 -2.0064 -1.7010 -0.2344
   47MOL   H33947351   2.347   1.752   4.212 -0.2922 -0.1451  0.7262
   47MOL   H34047352   2.266   1.697   4.396  3.1061  3.3235  2.2901
   47MOL   H34147353   2.079   1.611   4.505 -2.3104 -0.9945  0.6118
   47MOL   H34247354   1.965   1.426   4.589 -0.0631  4.0486 -2.1340
   47MOL   H34347355   2.100   1.120   4.682 -0.1352 -2.4353 -0.7279
   47MOL   H34447356   1.890   1.199   4.395  1.2262 -1.0763  0.6542
   47MOL   H34547357   1.635   1.161   4.397 -0.4512  0.9960  1.0037
   47MOL   H34647358   1.456   1.093   4.698  0.0214  2.5432 -0.2998
   47MOL   H34747359   1.545   0.947   4.387  0.9442  1.9919  1.1032
   47MOL   H34847360   1.390   0.928   4.191 -0.3044  0.8208 -0.7155
   47MOL   H34947361   1.160   1.034   4.071 -0.5917 -2.8204 -0.9568
   47MOL   H35047362   1.043   1.081   4.185 -0.1165 -0.7249  1.0360
   47MOL   H35147363   1.098   1.151   4.408 -0.0629 -1.6618 -1.4041
   47MOL   H35247364   1.254   1.173   4.598  1.6417  0.0445  0.9085
   47MOL   H35347365   1.666   1.038   4.803  2.0440 -0.5828  1.2675
   47MOL   H35447366   1.925   1.053   4.789  1.5225 -1.3255 -2.0710
   47MOL   H35547367   2.307   1.172   4.480  2.2718  1.3226 -1.3142
   47MOL   H35647368   2.433   1.369   4.439  0.5181  2.3457 -0.1628
   47MOL   H35747369   2.556   1.528   4.504  2.2411 -0.4037 -0.6108
   47MOL   H35847370   2.778   1.567   4.379  1.9227  2.8353  0.1298
   47MOL   N35947371   1.085   0.878   4.181  0.2200  0.0934 -0.0121
   47MOL   C36047372   0.953   0.848   4.158  0.4681  0.1140  0.1128
   47MOL   C36147373   0.872   0.930   4.078 -0.6134 -0.2967  0.2147
   47MOL   C36247374   0.736   0.891   4.053 -0.2420  0.7370  0.2080
   47MOL   C36347375   0.680   0.775   4.114 -0.0509 -0.1345 -0.5645
   47MOL   N36447376   0.546   0.758   4.094  0.3954 -0.4184 -0.5494
   47MOL   C36547377   0.448   0.773   4.192  0.0876 -0.4240 -0.0896
   47MOL   C36647378   0.476   0.832   4.310  0.1816  0.6632  0.1343
   47MOL   C36747379   0.386   0.843   4.419  0.4948  0.0008  0.3642
   47MOL   C36847380   0.253   0.804   4.402 -0.4323 -0.2153  0.5120
   47MOL   N36947381   0.160   0.835   4.498  0.9831 -0.1386  0.0011
   47MOL   C37047382   0.145   0.769   4.619  0.1388  0.0115 -0.7083
   47MOL   C37147383   0.039   0.804   4.693  0.7234  0.0396  0.6834
   47MOL   C37247384   0.018   0.740   4.817  0.1414  0.6817 -0.2101
   47MOL   C37347385   0.118   0.654   4.874  0.2308  0.5296  0.2646
   47MOL   N37447386   0.095   0.591   4.996  0.1057 -0.1622  0.2016
   47MOL   C37547387   0.189   0.556   5.091  0.0897  0.0941  0.4988
   47MOL   C37647388   0.322   0.605   5.096 -0.0627  0.7542 -0.6868
   47MOL   C37747389   0.419   0.554   5.182  0.6652 -0.2201  0.5023
   47MOL   C37847390   0.384   0.456   5.272  0.3474  0.2395  0.3721
   47MOL   C37947391   0.490   0.407   5.377  0.4657  0.1162  0.0543
   47MOL   C38047392   0.244   0.409   5.278  0.0295  0.0910  0.1352
   47MOL   C38147393   0.152   0.457   5.182  0.3387 -0.6368  0.6516
   47MOL   C38247394   0.226   0.623   4.794 -0.1507  0.3065 -0.0666
   47MOL   C38347395   0.241   0.680   4.665 -0.8928  0.6608  0.6677
   47MOL   C38447396   0.215   0.739   4.279  0.0462  0.0520 -0.5294
   47MOL   C38547397   0.315   0.715   4.176 -0.4076 -0.0345 -0.0707
   47MOL   C38647398   0.759   0.695   4.195 -0.0736 -0.2190  0.1867
   47MOL   C38747399   0.898   0.727   4.211 -0.2668 -0.3070  0.2385
   47MOL   H38847400   1.129   0.828   4.257 -0.5050 -0.6966 -0.1111
   47MOL   H38947401   0.907   1.023   4.037 -0.0521 -0.3321  0.5988
   47MOL   H39047402   0.673   0.958   3.996 -1.3958 -0.8155 -0.3809
   47MOL   H39147403   0.507   0.757   4.001 -1.7369  1.5635  0.2804
   47MOL   H39247404   0.571   0.883   4.318  0.5500 -0.2206  1.4390
   47MOL   H39347405   0.420   0.888   4.511  1.2680 -0.1670  0.1619
   47MOL   H39447406   0.069   0.847   4.455  1.1506  1.2166  0.0086
   47MOL   H39547407   7.947   0.869   4.651  0.4302 -0.8329 -0.1689
   47MOL   H39647408   7.918   0.767   4.882  0.0628  0.8205 -0.3670
   47MOL   H39747409   7.978   0.576   5.012 -0.2626  0.2517 -1.5898
   47MOL   H39847410   0.348   0.674   5.017  0.5665  3.1201  1.5369
   47MOL   H39947411   0.518   0.594   5.165  0.2580 -0.4740 -2.8112
   47MOL   H40047412   0.452   0.456   5.466 -0.3467 -1.0050  0.3276
   47MOL   H40147413   0.585   0.457   5.355  1.3733 -1.9568 -0.8824
   47MOL   H40247414   0.221   0.327   5.344 -0.4297 -1.7661 -2.2709
   47MOL   H40347415   0.058   0.405   5.181  0.2980 -0.5617 -0.8676
   47MOL   H40447416   0.295   0.544   4.823 -1.3224 -0.5724  0.3882
   47MOL   H40547417   0.324   0.641   4.607 -1.2162  2.0112 -0.7508
   47MOL   H40647418   0.118   0.697   4.260 -0.8950  0.7594  2.3878
   47MOL   H40747419   0.285   0.668   4.084 -0.0391  1.3719 -0.9200
   47MOL   H40847420   0.716   0.613   4.250  1.3145 -0.9453  0.2025
   47MOL   H40947421   0.956   0.651   4.260 -1.7984 -1.5379  0.1637
   47MOL   N41047422   0.500   0.265   5.370  0.9779  0.1005 -0.3678
   47MOL   C41147423   0.526   0.183   5.485 -0.0275 -0.3169 -0.0655
   47MOL   C41247424   0.599   0.065   5.465  0.0633 -0.1375 -0.0139
   47MOL   C41347425   0.635   7.968   5.578 -0.4724 -0.7239 -0.2237
   47MOL   C41447426   0.602   0.031   5.709  0.1590 -0.0738 -0.6999
   47MOL   N41547427   0.620   7.931   5.822 -0.1938 -0.0174  0.4048
   47MOL   C41647428   0.705   7.949   5.934 -0.3163 -0.4364 -0.1441
   47MOL   C41747429   0.742   7.839   6.007  0.1101 -0.4171 -0.1291
   47MOL   C41847430   0.820   7.849   6.122 -0.1976  0.1861 -0.5676
   47MOL   C41947431   0.862   7.973   6.176  0.2515 -0.4033 -0.1821
   47MOL   N42047432   0.955   0.009   6.284  0.2836 -0.5492 -0.0148
   47MOL   C42147433   1.020   7.896   6.367 -0.1868  0.7049  0.2809
   47MOL   C42247434   1.147   7.939   6.412  0.0335  0.0449 -0.5091
   47MOL   C42347435   1.233   7.845   6.472  0.5369 -0.3984  0.1128
   47MOL   C42447436   1.191   7.715   6.502  0.4898 -0.2669 -0.8810
   47MOL   N42547437   1.282   7.618   6.557  0.3380 -0.0170  0.0623
   47MOL   C42647438   1.419   7.612   6.572 -0.1561  0.2653 -0.9214
   47MOL   C42747439   1.474   7.523   6.675  0.1359  0.0285  0.7623
   47MOL   C42847440   1.612   7.527   6.704 -0.9383 -0.3068 -0.1127
   47MOL   C42947441   1.703   7.606   6.626  0.0480 -0.2595 -0.6811
   47MOL   C43047442   1.848   7.609   6.664 -0.1058 -0.6374 -0.0155
   47MOL   C43147443   1.652   7.692   6.523  0.0728 -0.3047 -1.0448
   47MOL   C43247444   1.514   7.698   6.503  0.8085  0.4975 -0.5676
   47MOL   C43347445   1.059   7.675   6.473 -0.4415  0.1822 -0.4714
   47MOL   C43447446   0.969   7.772   6.413  0.3801 -0.2364 -0.2035
   47MOL   C43547447   0.807   0.108   6.109 -0.4658 -0.1140 -0.0991
   47MOL   C43647448   0.727   0.094   5.994  0.9816  0.4506  0.2697
   47MOL   C43747449   0.525   0.148   5.724 -0.0447 -0.8569  0.2664
   47MOL   C43847450   0.488   0.224   5.614 -0.2086  0.6860 -0.7430
   47MOL   H43947451   0.519   0.231   5.276 -1.5270  0.0865 -0.9090
   47MOL   H44047452   0.641   0.043   5.368 -2.6188  3.6746 -2.1654
   47MOL   H44147453   0.687   7.874   5.564  0.2920 -0.3131 -0.1244
   47MOL   H44247454   0.613   7.833   5.799  0.9915  0.0018 -0.0309
   47MOL   H44347455   0.716   7.741   5.971  0.9997 -0.6050 -0.2697
   47MOL   H44447456   0.861   7.757   6.161 -1.2099 -0.0550 -0.0707
   47MOL   H44547457   1.000   0.099   6.284  2.8306 -1.7812  0.8602
   47MOL   H44647458   1.183   0.058   6.400 -0.8338  0.5654  1.0293
   47MOL   H44747459   1.332   7.873   6.504 -0.2864  0.4698  1.9884
   47MOL   H44847460   1.241   7.526   6.568  1.1985 -0.2033  1.8454
   47MOL   H44947461   1.411   7.458   6.734  0.3266  0.2192  1.1713
   47MOL   H45047462   1.654   7.467   6.782 -1.4566  0.3353  0.6645
   47MOL   H45147463   1.877   7.510   6.699 -0.8569 -0.4768  1.0626
   47MOL   H45247464   1.853   7.687   6.740  1.5582 -1.7247  1.0341
   47MOL   H45347465   1.706   7.766   6.467 -0.9225  1.1668 -0.1087
   47MOL   H45447466   1.481   7.751   6.415 -0.3569 -2.1680 -1.8026
   47MOL   H45547467   1.023   7.576   6.493  2.2401 -0.3596  1.9532
   47MOL   H45647468   0.869   7.740   6.390  0.6839 -2.0264  0.8070
   47MOL   H45747469   0.846   0.203   6.140  1.0127 -1.1669  1.3860
   47MOL   H45847470   0.686   0.178   5.939 -0.8369 -0.8052 -0.3359
   47MOL   H45947471   0.494   0.183   5.822  1.9570 -1.6028  1.2041
   47MOL   H46047472   0.433   0.313   5.638 -1.0468 -0.0289  0.0111
   47MOL   N46147473   1.931   7.631   6.551  0.1431 -0.8318  0.2085
   47MOL   C46247474   2.024   7.733   6.556 -0.0225  0.2307 -0.5881
   47MOL   C46347475   2.100   7.755   6.676  0.8102 -0.1761  0.5033
   47MOL   C46447476   2.186   7.869   6.674 -0.1462  0.1169 -0.6529
   47MOL   C46547477   2.199   7.952   6.565 -0.2453 -0.2053 -0.0070
   47MOL   N46647478   2.271   0.093   6.564  0.2401 -0.0303  0.1613
   47MOL   C46747479   2.393   0.123   6.627  0.1975 -0.5436 -0.7052
   47MOL   C46847480   2.427   0.260   6.639  0.3003 -0.1909 -0.1239
   47MOL   C46947481   2.548   0.293   6.707 -0.6068 -0.4443  0.5504
   47MOL   C47047482   2.645   0.193   6.738  0.6246 -1.1707  0.1143
   47MOL   N47147483   2.766   0.232   6.803  0.0922  0.6416  0.1801
   47MOL   C47247484   2.855   0.327   6.766  0.0845 -0.0038 -0.1845
   47MOL   C47347485   2.924   0.405   6.859 -0.1448  0.0370  0.1286
   47MOL   C47447486   3.022   0.492   6.818  1.0381 -0.0662 -0.4800
   47MOL   C47547487   3.049   0.518   6.681 -0.1729 -0.4333 -0.4211
   47MOL   N47647488   3.148   0.609   6.656 -0.4421  0.5560  0.3450
   47MOL   C47747489   3.168   0.685   6.542  0.8161 -0.0860  0.7026
   47MOL   C47847490   3.299   0.693   6.493  0.0909  0.1580 -0.2224
   47MOL   C47947491   3.322   0.758   6.371 -0.0695 -1.0595 -0.1507
   47MOL   C48047492   3.214   0.830   6.309 -0.0074 -0.5271  1.0561
   47MOL   C48147493   3.237   0.885   6.164 -0.2915  0.5450  0.0195
   47MOL   C48247494   3.088   0.846   6.376 -0.4827 -0.4212 -0.1176
   47MOL   C48347495   3.060   0.758   6.482  0.3108 -0.4620  0.3323
   47MOL   C48447496   2.976   0.452   6.583  0.6449  0.8904  0.2399
   47MOL   C48547497   2.882   0.355   6.629 -0.1051  0.7382 -0.0497
   47MOL   C48647498   2.612   0.058   6.722 -0.1212  0.1550 -0.0637
   47MOL   C48747499   2.487   0.025   6.663  0.3227 -0.7841  0.3798
   47MOL   C48847500   2.121   7.925   6.451  0.7490 -0.2905 -0.4499
   47MOL   C48947501   2.038   7.815   6.448  0.5908 -0.5758  0.0654
   47MOL   H49047502   1.883   7.623   6.462  0.3863 -1.1483  0.1044
   47MOL   H49147503   2.111   7.698   6.767 -2.7708  0.6115  1.5262
   47MOL   H49247504   2.236   7.896   6.766  1.4240  0.5937 -1.6135
   47MOL   H49347505   2.229   0.168   6.511 -0.4144 -0.1659  0.4836
   47MOL   H49447506   2.371   0.345   6.604 -0.8376 -0.3085  1.3632
   47MOL   H49547507   2.570   0.396   6.730 -2.3400  0.0079  0.2885
   47MOL   H49647508   2.820   0.151   6.829 -0.3129 -0.0469 -1.0966
   47MOL   H49747509   2.919   0.375   6.963 -0.3382  0.5675  0.2754
   47MOL   H49847510   3.080   0.541   6.895 -0.0040  2.9574 -1.5521
   47MOL   H49947511   3.224   0.606   6.722 -0.4596 -1.8815  0.2912
   47MOL   H50047512   3.380   0.648   6.548 -0.1768 -0.3053 -0.2009
   47MOL   H50147513   3.423   0.752   6.336 -0.3971 -0.6543 -1.1699
   47MOL   H50247514   3.135   0.892   6.127 -0.2232 -1.4443 -0.6036
   47MOL   H50347515   3.287   0.801   6.115  0.9913  0.6327  1.1599
   47MOL   H50447516   3.015   0.911   6.330 -0.1161 -0.5681 -0.9086
   47MOL   H50547517   2.962   0.762   6.526  0.3855  0.6708  0.4285
   47MOL   H50647518   2.972   0.472   6.477 -1.7707  0.1380  0.1492
   47MOL   H50747519   2.824   0.298   6.558 -0.8854 -1.0130  1.9197
   47MOL   H50847520   2.679   7.958   6.747  0.4865  0.4325 -0.7708
   47MOL   H50947521   2.460   7.903   6.651 -1.4510 -0.3565  0.4816
   47MOL   H51047522   2.118   0.010   6.367 -0.5913  0.7151  0.3811
   47MOL   H51147523   1.979   7.787   6.361  1.1291 -1.1888 -0.1082
   47MOL   N51247524   3.324   1.008   6.152 -0.4102  0.4569  0.0442
   47MOL   C51347525   3.270   1.138   6.159  0.8595 -0.4065  0.5103
   47MOL   C51447526   3.358   1.248   6.145 -0.2151 -0.0646  0.7835
   47MOL   C51547527   3.310   1.380   6.138 -0.6672  0.0783  0.5401
   47MOL   C51647528   3.170   1.399   6.149  0.3139  0.8518 -0.8918
   47MOL   N51747529   3.125   1.532   6.168 -0.0180  0.9191  0.0933
   47MOL   C51847530   3.033   1.603   6.083  0.4074  1.0150 -0.0769
   47MOL   C51947531   3.026   1.741   6.094 -0.2496  0.9190  0.4772
   47MOL   C52047532   2.932   1.815   6.020 -0.5499 -0.0046 -0.2372
   47MOL   C52147533   2.847   1.750   5.923  0.2895  0.1407 -0.0677
   47MOL   N52247534   2.761   1.814   5.841 -0.5074 -0.5891 -0.2302
   47MOL   C52347535   2.652   1.885   5.891 -0.4225  0.4091 -0.5566
   47MOL   C52447536   2.590   1.852   6.012 -0.8104 -1.0604 -0.0637
   47MOL   C52547537   2.466   1.907   6.045 -0.1664 -0.5408  0.2546
   47MOL   C52647538   2.406   2.006   5.965  0.0531  0.0891 -0.2160
   47MOL   N52747539   2.280   2.046   6.014  0.0323  0.0310 -0.0596
   47MOL   C52847540   2.164   2.005   5.957 -0.4997  0.4308 -0.0170
   47MOL   C52947541   2.059   1.986   6.048 -0.5422 -0.6429 -0.0980
   47MOL   C53047542   1.939   1.929   6.010 -0.2993  0.3206  0.8916
   47MOL   C53147543   1.919   1.883   5.875 -0.2157 -0.3420  0.4076
   47MOL   C53247544   1.784   1.820   5.838  0.0795 -0.0837 -1.0484
   47MOL   C53347545   2.026   1.897   5.784 -0.1329 -0.2500 -0.2311
   47MOL   C53447546   2.146   1.965   5.818  0.2123  0.1027 -0.2297
   47MOL   C53547547   2.470   2.051   5.846 -0.2141 -0.1559 -0.1456
   47MOL   C53647548   2.585   1.977   5.806 -0.6461  0.2079 -0.0868
   47MOL   C53747549   2.860   1.609   5.909  0.5326 -0.5559 -0.2809
   47MOL   C53847550   2.953   1.538   5.988 -0.4405 -0.0225  0.0226
   47MOL   C53947551   3.078   1.290   6.153  0.1658 -0.3269  0.4466
   47MOL   C54047552   3.126   1.160   6.162 -0.6323  0.0283 -0.1097
   47MOL   H54147553   3.415   0.997   6.195 -0.1825  2.7951  0.2285
   47MOL   H54247554   3.463   1.223   6.139 -0.4293 -0.8659  0.2536
   47MOL   H54347555   3.371   1.469   6.134  1.8262 -1.5787  0.5413
   47MOL   H54447556   3.170   1.593   6.235 -0.8455  0.6612  0.8818
   47MOL   H54547557   3.095   1.783   6.166 -0.7256  1.9454  0.3330
   47MOL   H54647558   2.925   1.922   6.018 -1.9931 -0.0592  0.9564
   47MOL   H54747559   2.762   1.797   5.741  0.8570 -1.2348 -0.1122
   47MOL   H54847560   2.625   1.775   6.079 -1.9360 -2.1399 -0.6760
   47MOL   H54947561   2.409   1.870   6.129 -1.8230  2.8020  0.7031
   47MOL   H55047562   2.267   2.062   6.113  0.6018  1.2120 -0.1584
   47MOL   H55147563   2.070   2.007   6.153  2.6521 -0.7511 -0.3599
   47MOL   H55247564   1.861   1.927   6.085 -2.0091  2.3011 -0.7927
   47MOL   H55347565   1.775   1.806   5.730 -0.6828 -2.8229 -0.6763
   47MOL   H55447566   1.694   1.866   5.878 -1.3868 -2.3185 -1.6972
   47MOL   H55547567   2.035   1.852   5.686 -1.6265 -1.4427  0.1681
   47MOL   H55647568   2.226   1.974   5.747 -0.7255 -2.6142 -1.7116
   47MOL   H55747569   2.423   2.121   5.779 -1.3769 -0.5246  0.2766
   47MOL   H55847570   2.626   1.994   5.707  1.4316 -1.7502  0.3870
   47MOL   H55947571   2.800   1.548   5.843  0.4477 -3.5327  2.4053
   47MOL   H56047572   2.950   1.431   5.979  0.3811  0.0317 -1.0441
   47MOL   H56147573   2.971   1.308   6.155  0.2335  0.2779 -0.8145
   47MOL   H56247574   3.053   1.081   6.162 -0.1266 -0.4425 -0.6090
   47MOL   N56347575   1.769   1.681   5.888 -0.5754  0.1819  0.2367
   47MOL   C56447576   1.819   1.581   5.804 -0.4711  0.2065 -0.5323
   47MOL   C56547577   1.735   1.498   5.733 -0.2173 -0.2252 -0.0958
   47MOL   C56647578   1.787   1.393   5.653 -0.3796 -0.0502  0.0974
   47MOL   C56747579   1.925   1.371   5.655 -0.5244  0.4095  0.4860
   47MOL   N56847580   1.981   1.270   5.570  0.2332 -1.0405 -0.1862
   47MOL   C56947581   2.099   1.196   5.586  0.0162 -0.3392 -0.0462
   47MOL   C57047582   2.157   1.176   5.715  0.1803  0.1269  0.0475
   47MOL   C57147583   2.271   1.091   5.727 -0.4858  0.2907  0.0715
   47MOL   C57247584   2.332   1.040   5.608 -0.2843  0.9739 -0.0444
   47MOL   N57347585   2.440   0.953   5.603  0.8721  0.0910  0.4624
   47MOL   C57447586   2.470   0.847   5.694  0.2490 -0.0659 -0.5371
   47MOL   C57547587   2.378   0.792   5.791 -0.1642  0.5625 -0.7180
   47MOL   C57647588   2.424   0.687   5.873 -0.5661 -0.0752  0.7824
   47MOL   C57747589   2.558   0.641   5.871  0.4264 -0.5999 -0.0732
   47MOL   N57847590   2.597   0.550   5.968 -0.0283 -0.2337  0.1524
   47MOL   C57947591   2.732   0.521   6.002  0.4425 -0.5154  0.5707
   47MOL   C58047592   2.786   0.389   5.993 -0.4696 -0.7739 -0.4790
   47MOL   C58147593   2.914   0.358   6.046 -0.1819  0.5208  0.2331
   47MOL   C58247594   2.996   0.461   6.100  0.2945  0.0931  0.3421
   47MOL   C58347595   3.130   0.432   6.165  0.2734 -0.2461 -0.0500
   47MOL   C58447596   2.938   0.589   6.120 -0.0826  0.4208  0.0592
   47MOL   C58547597   2.809   0.619   6.065 -0.8446 -0.1413  0.3294
   47MOL   C58647598   2.647   0.689   5.772 -0.2380 -1.1719  0.0413
   47MOL   C58747599   2.599   0.788   5.681  0.4903  0.0185 -0.2758
   47MOL   C58847600   2.282   1.072   5.485  0.1826 -0.3435  0.4806
   47MOL   C58947601   2.162   1.143   5.477  0.6361  0.2897 -0.4571
   47MOL   C59047602   2.013   1.449   5.732 -0.3051 -0.2481 -0.3651
   47MOL   C59147603   1.957   1.560   5.805 -0.3593 -0.6837 -0.3235
   47MOL   H59247604   1.816   1.664   5.976  2.3741  3.0375 -0.6652
   47MOL   H59347605   1.628   1.510   5.741 -0.4219 -0.9257 -1.5171
   47MOL   H59447606   1.718   1.321   5.611 -0.8873  0.5969 -0.2120
   47MOL   H59547607   1.927   1.275   5.484  1.5296  1.1602 -0.8980
   47MOL   H59647608   2.109   1.217   5.803 -1.5269 -0.1188 -0.7527
   47MOL   H59747609   2.317   1.078   5.824 -3.7084 -0.0514  1.6145
   47MOL   H59847610   2.510   0.966   5.532  0.1931  1.0897 -0.0275
   47MOL   H59947611   2.275   0.826   5.795 -0.7687 -1.3415  0.4915
   47MOL   H60047612   2.363   0.649   5.954 -0.1789  1.9945  2.0864
   47MOL   H60147613   2.532   0.472   5.965 -0.3259  0.0454 -0.9607
   47MOL   H60247614   2.730   0.314   5.940 -1.9432  1.3765 -2.0396
   47MOL   H60347615   2.959   0.262   6.031  0.0323  0.6984 -0.2818
   47MOL   H60447616   3.108   0.384   6.260  2.4213 -0.9641  0.1103
   47MOL   H60547617   3.171   0.531   6.185 -1.7159  0.6602 -0.2701
   47MOL   H60647618   2.991   0.671   6.167 -0.2773  1.7764 -2.0071
   47MOL   H60747619   2.770   0.720   6.062 -2.3128 -0.6822  1.0841
   47MOL   H60847620   2.744   0.642   5.765 -0.2210 -0.8856 -1.7126
   47MOL   H60947621   2.658   0.834   5.603  1.6575 -0.8823  0.0473
   47MOL   H61047622   2.322   1.023   5.397  1.3909 -0.7902  1.2659
   47MOL   H61147623   2.123   1.158   5.377  1.4549 -2.0081 -1.1415
   47MOL   H61247624   2.121   1.440   5.725 -0.5665 -3.3478 -1.3120
   47MOL   H61347625   2.024   1.622   5.863 -0.2359 -1.5159  0.4243
   47MOL   N61447626   3.214   0.336   6.087  0.4987 -0.3395  0.7255
   47MOL   C61547627   3.318   0.370   6.005 -0.5029  0.4551  0.2230
   47MOL   C61647628   3.403   0.263   5.969 -0.6024  0.0605  0.7835
   47MOL   C61747629   3.504   0.289   5.873 -0.1369  0.0762 -0.2957
   47MOL   C61847630   3.549   0.421   5.843  0.2706  0.2941  0.0045
   47MOL   N61947631   3.656   0.438   5.749 -0.3176  0.3223 -0.2141
   47MOL   C62047632   3.752   0.539   5.747  0.4491 -0.4105 -0.2414
   47MOL   C62147633   3.812   0.581   5.632  0.1710  0.4354 -0.6571
   47MOL   C62247634   3.900   0.694   5.635 -0.2252 -0.0622  0.1995
   47MOL   C62347635   3.919   0.768   5.752  0.1282  0.1119  0.2310
   47MOL   N62447636   3.989   0.891   5.741  0.4381 -0.0552  0.1871
   47MOL   C62547637   4.109   0.924   5.805  0.5245  0.0252 -0.1300
   47MOL   C62647638   4.175   1.040   5.767 -0.2612 -0.5206 -0.8544
   47MOL   C62747639   4.293   1.077   5.834  0.6271 -0.1797  0.1225
   47MOL   C62847640   4.352   0.995   5.928 -0.5297 -0.0654 -0.1468
   47MOL   N62947641   4.474   1.035   5.982 -0.5341 -0.3142  0.7568
   47MOL   C63047642   4.573   0.963   6.050  0.2515 -0.3355 -0.0175
   47MOL   C63147643   4.644   1.034   6.152 -0.2592  0.8061  0.2214
   47MOL   C63247644   4.731   0.961   6.237 -0.5668  0.3715 -1.0039
   47MOL   C63347645   4.750   0.824   6.217  0.4935  0.7654  0.0224
   47MOL   C63447646   4.853   0.758   6.308 -0.3924 -0.3911  0.5085
   47MOL   C63547647   4.683   0.754   6.110 -0.0411 -0.4894  0.7523
   47MOL   C63647648   4.601   0.827   6.026 -0.4966  0.0906  0.6422
   47MOL   C63747649   4.292   0.872   5.955  0.1814  0.5396  0.3978
   47MOL   C63847650   4.166   0.837   5.900 -0.7013  0.1360 -0.1000
   47MOL   C63947651   3.857   0.722   5.868  0.0051  0.1613 -0.6179
   47MOL   C64047652   3.775   0.607   5.867 -0.3222 -0.3533  0.2485
   47MOL   C64147653   3.463   0.529   5.883 -0.2530  0.0424 -0.0180
   47MOL   C64247654   3.348   0.502   5.964 -0.6275  0.4898  0.1458
   47MOL   H64347655   3.201   0.237   6.101 -0.2451 -0.3021  0.3403
   47MOL   H64447656   3.380   0.163   6.002  0.3630 -0.3035  0.3616
   47MOL   H64547657   3.571   0.211   5.840 -0.8443 -0.2645 -0.9511
   47MOL   H64647658   3.675   0.358   5.691 -1.2263  0.4087 -0.6390
   47MOL   H64747659   3.794   0.541   5.533 -1.3307 -2.1190  0.6139
   47MOL   H64847660   3.950   0.710   5.540 -0.9150  1.3361  0.0595
   47MOL   H64947661   3.950   0.946   5.667 -0.9314 -0.4602  0.5918
   47MOL   H65047662   4.133   1.102   5.690 -0.0301  1.5160  0.6126
   47MOL   H65147663   4.344   1.166   5.801  0.7789 -1.1698 -2.4152
   47MOL   H65247664   4.501   1.132   5.970  1.0815 -0.6075  1.8255
   47MOL   H65347665   4.630   1.136   6.184  1.5840  1.2615 -0.3216
   47MOL   H65447666   4.781   1.008   6.321  2.4009 -0.9946 -1.9341
   47MOL   H65547667   4.845   0.776   6.415  1.6123  1.2174  0.4266
   47MOL   H65647668   4.949   0.809   6.293 -0.9107  1.0632  1.9790
   47MOL   H65747669   4.693   0.650   6.082  1.7707  0.1536 -1.1172
   47MOL   H65847670   4.547   0.770   5.951 -2.4386  0.9587  1.3315
   47MOL   H65947671   4.339   0.806   6.026  2.0525  2.3178  0.8500
   47MOL   H66047672   4.121   0.742   5.926 -3.1821  1.8833  2.2422
   47MOL   H66147673   3.884   0.767   5.962 -1.2171  1.8527 -1.0527
   47MOL   H66247674   3.728   0.585   5.962 -1.8542 -0.7053 -0.5703
   47MOL   H66347675   3.484   0.632   5.857  0.5919 -0.0321  0.3596
   47MOL   H66447676   3.295   0.589   6.000  0.7695  1.8753 -1.0644
   47MOL   N66547677   4.878   0.615   6.280  0.3659  0.0828 -0.1401
   47MOL   C66647678   4.966   0.574   6.181  0.6560  0.3214  0.3785
   47MOL   C66747679   5.032   0.664   6.091  0.5578  0.5882  0.4454
   47MOL   C66847680   5.105   0.610   5.988 -0.2204  0.4372 -0.1807
   47MOL   C66947681   5.110   0.474   5.958  0.5215  0.5811 -0.0195
   47MOL   N67047682   5.202   0.427   5.861  0.5099 -0.1687  0.1244
   47MOL   C67147683   5.233   0.483   5.735 -0.6160  0.2697  0.3811
   47MOL   C67247684   5.352   0.444   5.677 -0.1019  0.0053  0.0196
   47MOL   C67347685   5.392   0.483   5.547  0.1183  0.4540  0.9947
   47MOL   C67447686   5.311   0.575   5.476 -0.0984  0.0422 -0.0864
   47MOL   N67547687   5.343   0.634   5.350  0.8907 -0.2387  0.0114
   47MOL   C67647688   5.253   0.659   5.240  0.4318  0.0183  0.5026
   47MOL   C67747689   5.128   0.605   5.230  0.0047 -0.4232  0.0447
   47MOL   C67847690   5.033   0.640   5.129 -0.3235  0.3433  0.2638
   47MOL   C67947691   5.066   0.730   5.026  0.2066  0.2457  0.8760
   47MOL   N68047692   4.979   0.766   4.918 -0.2444 -0.1683 -0.5778
   47MOL   C68147693   4.858   0.704   4.879  0.7336  0.7525 -0.1143
   47MOL   C68247694   4.758   0.797   4.838 -0.6506 -0.0763  0.4568
   47MOL   C68347695   4.645   0.742   4.775  0.4271 -0.6654  0.1541
   47MOL   C68447696   4.636   0.601   4.754 -0.3695  0.0181  0.2810
   47MOL   C68547697   4.526   0.554   4.659 -0.6564  0.0298 -0.3378
   47MOL   C68647698   4.723   0.513   4.813  0.1425 -0.1792  1.0727
   47MOL   C68747699   4.836   0.563   4.880  0.2350 -0.3440  0.0135
   47MOL   C68847700   5.193   0.789   5.034 -0.5124  0.4563 -0.4103
   47MOL   C68947701   5.286   0.760   5.137 -0.1258  0.2016  0.2564
   47MOL   C69047702   5.191   0.619   5.532 -0.3282 -0.3374  0.2335
   47MOL   C69147703   5.145   0.559   5.655 -0.1068  0.0703  0.4674
   47MOL   C69247704   5.054   0.381   6.049  0.1993 -0.1962  0.0316
   47MOL   C69347705   4.976   0.434   6.154 -0.2676 -0.0413  0.7431
   47MOL   H69447706   4.799   0.563   6.316 -1.4814 -0.5441 -4.7781
   47MOL   H69547707   5.023   0.772   6.098  0.9928  0.5242  2.2649
   47MOL   H69647708   5.149   0.683   5.922 -3.7637  1.1043 -1.9112
   47MOL   H69747709   5.215   0.330   5.839  0.4602 -0.5403  1.6771
   47MOL   H69847710   5.414   0.377   5.735  0.0968  1.3570  1.4153
   47MOL   H69947711   5.483   0.448   5.501 -1.9875 -2.8593 -0.9012
   47MOL   H70047712   5.440   0.629   5.322  0.5516  0.3734 -1.2722
   47MOL   H70147713   5.097   0.531   5.303  1.0577 -0.2791  0.6510
   47MOL   H70247714   4.938   0.590   5.124 -1.3527  2.3409 -0.4868
   47MOL   H70347715   4.972   0.867   4.912 -2.1862 -0.3679 -1.6895
   47MOL   H70447716   4.771   0.904   4.847  1.1949 -0.3707  1.5639
   47MOL   H70547717   4.576   0.812   4.730 -0.4416 -1.4023  0.3517
   47MOL   H70647718   4.498   0.449   4.669  0.1232 -0.1346  0.1338
   47MOL   H70747719   4.567   0.544   4.558  0.3891 -0.6336  0.1475
   47MOL   H70847720   4.708   0.408   4.792 -0.1964 -0.1336  1.0891
   47MOL   H70947721   4.900   0.496   4.935  0.8571  0.9813  0.9098
   47MOL   H71047722   5.221   0.849   4.949  1.3103 -0.1525 -0.2504
   47MOL   H71147723   5.384   0.806   5.141  0.9945 -1.9549 -1.5739
   47MOL   H71247724   5.133   0.688   5.473  1.6263 -0.5553 -1.9883
   47MOL   H71347725   5.049   0.584   5.699 -1.1418  0.5677 -1.9694
   47MOL   H71447726   5.061   0.275   6.030  1.5893 -0.2457  0.7439
   47MOL   H71547727   4.936   0.364   6.226 -1.6772  0.8749  0.8612
   47MOL   N71647728   4.404   0.626   4.659 -0.2880  0.1890 -0.4517
   47MOL   C71747729   4.335   0.618   4.534  0.6391 -0.1013 -0.2340
   47MOL   C71847730   4.372   0.717   4.436 -0.3667  0.3972 -0.1334
   47MOL   C71947731   4.308   0.707   4.311  0.2494  0.3499 -0.0594
   47MOL   C72047732   4.203   0.615   4.292  0.2394 -0.1567  0.3313
   47MOL   N72147733   4.133   0.629   4.170  0.5820  0.0141  0.3721
   47MOL   C72247734   3.991   0.628   4.155  0.5298  0.6363 -0.1010
   47MOL   C72347735   3.923   0.599   4.028 -0.5459  0.0719 -1.0103
   47MOL   C72447736   3.789   0.616   4.019  0.2190 -0.2897 -0.3162
   47MOL   C72547737   3.712   0.672   4.124 -0.0938 -0.4321 -0.2230
   47MOL   N72647738   3.582   0.706   4.092  0.4066  0.2071 -0.0634
   47MOL   C72747739   3.491   0.750   4.188  0.5377 -0.0611  0.7283
   47MOL   C72847740   3.445   0.667   4.295  0.0001 -0.2151 -0.0336
   47MOL   C72947741   3.362   0.728   4.393 -0.2934  0.4271  0.9799
   47MOL   C73047742   3.325   0.865   4.377 -0.0836 -0.2764 -0.1918
   47MOL   N73147743   3.249   0.925   4.479 -0.1602 -0.3849  0.5024
   47MOL   C73247744   3.267   1.037   4.562 -0.3446 -0.4311  0.6977
   47MOL   C73347745   3.157   1.096   4.620 -0.2112  0.0978 -0.7100
   47MOL   C73447746   3.179   1.213   4.699 -0.8538  0.1615 -0.2613
   47MOL   C73547747   3.314   1.260   4.728  0.3817  0.0311 -0.1896
   47MOL   C73647748   3.326   1.382   4.808 -0.3659  0.1583  0.4734
   47MOL   C73747749   3.422   1.198   4.660 -0.1645 -0.4071 -0.6176
   47MOL   C73847750   3.398   1.090   4.574 -0.0444 -0.0183  0.6780
   47MOL   C73947751   3.360   0.941   4.264  0.0214 -0.1331  1.1151
   47MOL   C74047752   3.435   0.880   4.166 -1.1289 -0.5280 -0.3465
   47MOL   C74147753   3.769   0.690   4.253  0.2946 -0.1495 -0.6031
   47MOL   C74247754   3.909   0.673   4.263  0.1076 -0.1374  0.1581
   47MOL   C74347755   4.162   0.527   4.393  0.1688  0.1639 -0.5473
   47MOL   C74447756   4.226   0.538   4.518  0.1353  0.3827  0.6514
   47MOL   H74547757   4.346   0.588   4.733 -0.6393  0.3770 -0.6258
   47MOL   H74647758   4.449   0.790   4.452  1.4387 -1.6021  0.5405
   47MOL   H74747759   4.336   0.779   4.236 -0.3048 -0.5557 -1.1474
   47MOL   H74847760   4.185   0.663   4.091 -0.3468 -0.9059 -0.6625
   47MOL   H74947761   3.985   0.573   3.943  0.5779  0.8052 -0.4355
   47MOL   H75047762   3.736   0.591   3.928  0.7911  1.4996 -1.1749
   47MOL   H75147763   3.565   0.732   3.996 -0.0929 -1.4607 -0.4325
   47MOL   H75247764   3.480   0.568   4.320  1.4804  0.3296  0.1039
   47MOL   H75347765   3.325   0.673   4.478  1.7138 -2.1486  0.2767
   47MOL   H75447766   3.180   0.864   4.521 -0.9117 -0.6387 -1.0644
   47MOL   H75547767   3.057   1.055   4.610  1.0813 -2.8896 -1.9001
   47MOL   H75647768   3.089   1.261   4.733 -1.4731 -1.0053 -0.2121
   47MOL   H75747769   3.249   1.377   4.884 -1.2297  1.9209 -0.2561
   47MOL   H75847770   3.296   1.464   4.742 -3.9190  0.5742  2.5218
   47MOL   H75947771   3.525   1.233   4.668  0.1236 -1.4330  0.1953
   47MOL   H76047772   3.483   1.037   4.532  0.5018  0.6779  0.8907
   47MOL   H76147773   3.326   1.043   4.261  0.8636  0.1361  0.6741
   47MOL   H76247774   3.469   0.940   4.083  1.5096 -0.7322  0.5540
   47MOL   H76347775   3.712   0.726   4.338 -2.2570 -1.2271 -1.7876
   47MOL   H76447776   3.942   0.705   4.361 -3.1835 -0.8891  1.6069
   47MOL   H76547777   4.074   0.465   4.385  0.2037 -0.1156  1.1460
   47MOL   H76647778   4.199   0.474   4.601 -2.7266 -0.5589 -0.9313
   47MOL   N76747779   3.456   1.413   4.868 -0.3913 -0.6798 -0.2673
   47MOL   C76847780   3.528   1.331   4.956  0.3831 -0.3193  0.0132
   47MOL   C76947781   3.670   1.341   4.955 -0.3098 -0.6133  0.0531
   47MOL   C77047782   3.741   1.268   5.045 -0.1541  0.2601 -0.0161
   47MOL   C77147783   3.687   1.159   5.118 -0.2366 -0.4067 -0.1488
   47MOL   N77247784   3.770   1.067   5.183  1.6705  0.4537  0.5837
   47MOL   C77347785   3.755   0.923   5.179 -0.1416  0.2215  0.3231
   47MOL   C77447786   3.844   0.848   5.265 -0.4124 -0.1958 -0.3149
   47MOL   C77547787   3.830   0.710   5.278  0.2573  0.7431 -0.4538
   47MOL   C77647788   3.718   0.640   5.219 -0.1585  0.9002  0.1167
   47MOL   N77747789   3.699   0.503   5.244  0.1724 -0.1050  0.3245
   47MOL   C77847790   3.786   0.399   5.231 -0.0551  0.1787 -1.3120
   47MOL   C77947791   3.922   0.413   5.196  0.3585 -0.1812 -0.4348
   47MOL   C78047792   4.003   0.299   5.176  0.2559  0.1604 -0.0481
   47MOL   C78147793   3.948   0.169   5.200 -0.4306 -0.7044 -0.1037
   47MOL   N78247794   4.024   0.053   5.190 -0.3364  0.1302 -0.7992
   47MOL   C78347795   4.160   0.040   5.160 -0.4869  0.0595 -0.4347
   47MOL   C78447796   4.197   7.918   5.074 -0.3078  1.1030  0.1045
   47MOL   C78547797   4.328   7.891   5.043 -0.7301  0.1718  0.9042
   47MOL   C78647798   4.428   7.973   5.100  0.2151 -0.9086  0.6449
   47MOL   C78747799   4.571   7.940   5.068 -0.0145 -0.4273 -0.8246
   47MOL   C78847800   4.392   0.102   5.174  0.1541 -0.6466  0.7245
   47MOL   C78947801   4.257   0.126   5.214 -0.4388  0.6344 -0.0408
   47MOL   C79047802   3.817   0.156   5.243 -1.0244 -0.4205  0.3858
   47MOL   C79147803   3.739   0.271   5.254  0.5085 -0.1858  0.3761
   47MOL   C79247804   3.640   0.715   5.124 -0.1158  0.0750  0.4657
   47MOL   C79347805   3.653   0.855   5.110  0.1795  0.1915  0.0487
   47MOL   C79447806   3.543   1.159   5.120  0.2152  0.4245  0.5533
   47MOL   C79547807   3.464   1.233   5.039 -0.4390  0.1607  0.6233
   47MOL   H79647808   3.510   1.486   4.824 -0.6333  0.8671  1.8790
   47MOL   H79747809   3.726   1.410   4.894  0.9251  0.4964  2.4106
   47MOL   H79847810   3.847   1.281   5.029 -0.2165  2.1851  0.9913
   47MOL   H79947811   3.860   1.103   5.212  1.4570 -0.3115  2.2588
   47MOL   H80047812   3.923   0.896   5.321 -1.2265 -0.1277  0.7837
   47MOL   H80147813   3.893   0.664   5.353 -1.0458  1.2022  0.9463
   47MOL   H80247814   3.604   0.475   5.223  0.8458 -1.1742 -1.4096
   47MOL   H80347815   3.966   0.509   5.172  0.7229  0.2813  1.8926
   47MOL   H80447816   4.102   0.318   5.136  0.9522 -0.7872  1.1928
   47MOL   H80547817   3.971   7.951   5.173 -0.0410 -0.5381  1.5299
   47MOL   H80647818   4.123   7.848   5.036 -0.1823  0.7444  0.5024
   47MOL   H80747819   4.357   7.800   4.992  1.4403  0.5765  1.3770
   47MOL   H80847820   4.603   0.030   4.992 -2.4890  1.5921 -0.0467
   47MOL   H80947821   4.588   7.842   5.024  1.5207  0.2497 -1.7650
   47MOL   H81047822   4.462   0.174   5.214 -0.1917 -0.6499  1.3411
   47MOL   H81147823   4.236   0.214   5.273 -0.2873  0.8334 -0.2790
   47MOL   H81247824   3.779   0.056   5.259  0.2751 -1.5254 -3.0350
   47MOL   H81347825   3.635   0.266   5.280 -0.1231  1.4033 -1.7166
   47MOL   H81447826   3.556   0.671   5.072 -0.6952  1.0455  0.5717
   47MOL   H81547827   3.593   0.906   5.036  0.6106 -1.6903 -1.6616
   47MOL   H81647828   3.483   1.095   5.183 -2.1885  1.5369 -0.5477
   47MOL   H81747829   3.356   1.226   5.039 -0.4431 -0.1026 -1.0173
   47MOL   N81847830   4.667   7.962   5.178  0.0703  0.6592 -0.6321
   47MOL   C81947831   4.753   7.857   5.204  0.3310 -0.2098 -0.0155
   47MOL   C82047832   4.817   7.792   5.102  0.2600 -0.9254 -0.0929
   47MOL   C82147833   4.903   7.688   5.129 -0.1718  0.7429  0.2098
   47MOL   C82247834   4.930   7.652   5.261  0.3154  0.0596  0.1548
   47MOL   N82347835   5.016   7.547   5.285 -0.9429  0.2797  0.4744
   47MOL   C82447836   5.102   7.538   5.399  0.2515  0.7441 -0.6561
   47MOL   C82547837   5.158   7.652   5.458  0.7434 -0.0980 -0.1318
   47MOL   C82647838   5.237   7.638   5.571 -0.4577  0.0227 -0.6082
   47MOL   C82747839   5.252   7.518   5.639 -0.1563 -0.2291  0.2565
   47MOL   N82847840   5.315   7.499   5.764  0.1319 -0.0618 -0.1112
   47MOL   C82947841   5.426   7.575   5.806  0.4419  0.2041 -0.2806
   47MOL   C83047842   5.521   7.629   5.716  0.7452  0.6278 -0.4903
   47MOL   C83147843   5.627   7.699   5.764  1.1185 -0.6109 -0.0729
   47MOL   C83247844   5.634   7.732   5.909  0.0007 -0.3404 -0.3467
   47MOL   N83347845   5.714   7.838   5.945 -0.5545 -0.0782 -0.2309
   47MOL   C83447846   5.735   7.893   6.072  0.0543 -0.4464 -0.3664
   47MOL   C83547847   5.773   7.809   6.179  0.5821  0.1216 -0.4903
   47MOL   C83647848   5.798   7.866   6.307 -0.2020 -0.7328 -0.6160
   47MOL   C83747849   5.787   0.021   6.325 -0.5471  0.0383 -0.2798
   47MOL   C83847850   5.830   0.076   6.457  1.1346  0.2436 -0.0576
   47MOL   C83947851   5.737   0.101   6.222 -0.2479  0.1917  0.0919
   47MOL   C84047852   5.708   0.050   6.094  0.4901 -0.9721 -0.2680
   47MOL   C84147853   5.538   7.679   6.001 -0.2096 -0.1651  0.5689
   47MOL   C84247854   5.436   7.600   5.946 -0.4310 -0.0291 -0.6014
   47MOL   C84347855   5.196   7.403   5.579  0.7027 -1.2312  0.2218
   47MOL   C84447856   5.126   7.407   5.459  0.0417 -0.2139 -0.9885
   47MOL   C84547857   4.870   7.718   5.370  0.2749 -0.0332 -0.1669
   47MOL   C84647858   4.779   7.818   5.341 -0.0652  0.1460  0.8742
   47MOL   H84747859   4.624   0.034   5.252 -0.3500 -0.4202 -0.0812
   47MOL   H84847860   4.804   7.825   5.000  1.6280 -1.9304 -0.5935
   47MOL   H84947861   4.960   7.640   5.051  0.2589  3.2301 -1.0517
   47MOL   H85047862   5.028   7.476   5.213  1.1576  0.3905  0.6937
   47MOL   H85147863   5.147   7.750   5.413  2.9845  1.0397  1.7411
   47MOL   H85247864   5.259   7.736   5.610  1.0147 -0.0281 -1.2757
   47MOL   H85347865   5.297   7.422   5.827  0.3005  1.3408  1.6923
   47MOL   H85447866   5.507   7.609   5.610 -2.3897  3.7033 -0.7671
   47MOL   H85547867   5.704   7.736   5.698  1.3044 -0.5490  0.1747
   47MOL   H85647868   5.766   7.869   5.864  0.0767  0.5554  0.4065
   47MOL   H85747869   5.770   7.705   6.150  0.3777 -0.1695  0.5547
   47MOL   H85847870   5.828   7.798   6.385 -1.1812  0.2240  0.6169
   47MOL   H85947871   5.856   0.180   6.434  0.1176  0.5860  0.3237
   47MOL   H86047872   5.920   0.032   6.500 -0.7175 -2.0578  1.5055
   47MOL   H86147873   5.728   0.207   6.242  2.2457  1.0182 -2.6945
   47MOL   H86247874   5.675   0.115   6.014 -0.7506 -1.1248  0.1126
   47MOL   H86347875   5.529   7.696   6.107  0.7082  0.4277  0.5532
   47MOL   H86447876   5.362   7.562   6.014  0.4255  1.4728  1.2160
   47MOL   H86547877   5.206   7.303   5.619 -1.3547 -1.3877  0.4049
   47MOL   H86647878   5.095   7.318   5.406 -0.5070  0.8728 -2.5347
   47MOL   H86747879   4.909   7.700   5.470  0.8671  1.0389 -0.1973
   47MOL   H86847880   4.723   7.871   5.417 -0.0509  1.3950  0.0265
   47MOL   N86947881   5.720   0.088   6.555 -0.0947  0.0295  0.0163
   47MOL   C87047882   5.748   0.120   6.689  0.5741  0.0038  0.2038
   47MOL   C87147883   5.873   0.119   6.747 -0.0015 -0.1079 -0.3799
   47MOL   C87247884   5.876   0.108   6.888 -0.4657 -0.0871 -0.3272
   47MOL   C87347885   5.760   0.105   6.969  0.4421 -0.5201 -0.1499
   47MOL   N87447886   5.759   0.091   7.109  0.1337  0.0294 -0.3350
   47MOL   C87547887   5.861   0.045   7.192 -0.1974 -0.4744  0.7756
   47MOL   C87647888   5.963   0.140   7.223 -0.0721 -0.3894 -0.8391
   47MOL   C87747889   6.074   0.108   7.303  0.4628 -0.2052  0.0862
   47MOL   C87847890   6.079   7.967   7.362 -0.2394 -0.0126  0.6311
   47MOL   N87947891   6.192   7.934   7.433 -0.7364  0.0659 -0.1365
   47MOL   C88047892   6.309   7.877   7.385  1.0035  0.3989  0.3474
   47MOL   C88147893   6.418   7.851   7.466 -0.3460  0.0217 -0.3488
   47MOL   C88247894   6.542   7.819   7.405 -0.1767 -0.2760  0.5724
   47MOL   C88347895   6.547   7.793   7.269 -0.4814 -0.3519 -0.7111
   47MOL   N88447896   6.668   7.753   7.213  0.7985 -0.0975 -0.9391
   47MOL   C88547897   6.722   7.785   7.091 -0.1770  0.1524  0.1480
   47MOL   C88647898   6.799   7.897   7.070 -0.5126 -0.4861 -0.3685
   47MOL   C88747899   6.846   7.926   6.937  0.3766 -1.0787 -0.2376
   47MOL   C88847900   6.826   7.843   6.827  0.3917  0.4254 -0.0793
   47MOL   C88947901   6.876   7.875   6.693  0.2627 -0.8023  0.1968
   47MOL   C89047902   6.743   7.731   6.847  0.6347  0.3882 -0.9975
   47MOL   C89147903   6.691   7.704   6.977  0.4724  0.9588  0.1381
   47MOL   C89247904   6.435   7.803   7.187  0.4993 -0.7858 -0.0396
   47MOL   C89347905   6.314   7.845   7.242 -0.0814  0.3326  0.6067
   47MOL   C89447906   5.970   7.876   7.344  0.1152 -0.1623 -0.2222
   47MOL   C89547907   5.860   7.904   7.264 -0.0032 -0.1083  1.0666
   47MOL   C89647908   5.631   0.130   6.907  0.5553 -0.0314  0.2760
   47MOL   C89747909   5.626   0.131   6.767 -0.1901 -0.1897 -0.0818
   47MOL   H89847910   5.630   0.109   6.514 -1.0474 -1.1716  1.4600
   47MOL   H89947911   5.961   0.107   6.685 -1.5310 -1.5051 -2.3350
   47MOL   H90047912   5.968   0.093   6.941 -1.5423  0.9588  1.9310
   47MOL   H90147913   5.680   0.132   7.157  0.1285 -0.6544  0.2404
   47MOL   H90247914   5.957   0.240   7.181 -1.8666  0.1095  0.5429
   47MOL   H90347915   6.157   0.178   7.314 -0.6709  0.9957  1.1012
   47MOL   H90447916   6.186   7.949   7.533 -0.1501 -0.8462  0.0445
   47MOL   H90547917   6.406   7.865   7.572  2.3436 -0.6355  0.0795
   47MOL   H90647918   6.637   7.806   7.454  0.2650  1.0979  0.0857
   47MOL   H90747919   6.743   7.755   7.281 -1.8282  3.2052  2.0899
   47MOL   H90847920   6.816   7.979   7.138 -0.3858 -0.4475 -0.4461
   47MOL   H90947921   6.898   0.033   6.905 -1.7262 -0.2416 -1.4037
   47MOL   H91047922   6.982   7.896   6.712 -0.0789  0.8509  0.3237
   47MOL   H91147923   6.833   7.970   6.662 -0.6024 -0.9867  0.8238
   47MOL   H91247924   6.718   7.652   6.777 -0.8740 -1.8397  1.9660
   47MOL   H91347925   6.630   7.615   6.993 -0.3206  0.8660 -2.9301
   47MOL   H91447926   6.441   7.793   7.080  0.1099  1.0158 -0.2455
   47MOL   H91547927   6.230   7.869   7.178 -0.7473  1.1453  1.7577
   47MOL   H91647928   5.975   7.779   7.391 -0.6570 -0.3832 -0.6054
   47MOL   H91747929   5.778   7.833   7.255  1.5190 -1.6846 -0.7891
   47MOL   H91847930   5.536   0.131   6.959 -0.0893  1.8051 -0.8661
   47MOL   H91947931   5.532   0.124   6.715  0.6598  0.2643 -1.7045
   47MOL   N92047932   6.869   7.767   6.598  0.2763 -0.3504  0.2721
   47MOL   C92147933   6.917   7.801   6.471 -0.4516  0.2907 -0.5846
   47MOL   C92247934   6.990   7.912   6.438 -0.7360  0.4986 -0.3911
   47MOL   C92347935   7.037   7.929   6.306 -0.6892  0.4642 -0.3041
   47MOL   C92447936   7.021   7.823   6.208  0.1209 -0.9133 -0.4124
   47MOL   N92547937   7.088   7.836   6.086  0.0887  0.0497  0.1318
   47MOL   C92647938   7.124   7.735   6.003 -0.0776 -0.5463 -0.4316
   47MOL   C92747939   7.193   7.618   6.052 -0.3250  0.4206 -0.0970
   47MOL   C92847940   7.241   7.519   5.964 -0.1198 -0.2643  0.2844
   47MOL   C92947941   7.222   7.533   5.824  0.1407  0.5294  0.6570
   47MOL   N93047942   7.266   7.425   5.749  0.1079  0.2632 -0.6078
   47MOL   C93147943   7.272   7.413   5.605 -0.2545 -0.0153  0.5897
   47MOL   C93247944   7.236   7.288   5.548  0.6029  0.6366 -0.2744
   47MOL   C93347945   7.242   7.269   5.410  0.4607 -0.1171  0.2844
   47MOL   C93447946   7.282   7.370   5.320 -0.2696 -0.3882  0.1726
   47MOL   N93547947   7.302   7.344   5.182  0.2728  0.6992 -0.2337
   47MOL   C93647948   7.211   7.274   5.104  0.3828  0.2011 -0.1362
   47MOL   C93747949   7.074   7.296   5.088 -0.1051 -0.3241  0.3246
   47MOL   C93847950   6.994   7.235   4.989  0.2019 -0.4439 -0.0987
   47MOL   C93947951   7.047   7.141   4.908  0.0257  0.4014 -0.1969
   47MOL   C94047952   6.963   7.065   4.802 -0.0425 -0.4322 -0.2844
   47MOL   C94147953   7.183   7.114   4.909 -0.9548  0.0168 -0.0002
   47MOL   C94247954   7.264   7.183   5.007 -0.0832  0.9096 -0.3541
   47MOL   C94347955   7.319   7.494   5.378  0.1775 -0.6408  0.1116
   47MOL   C94447956   7.312   7.517   5.515 -0.1947  0.6444 -0.0598
   47MOL   C94547957   7.153   7.649   5.775  0.1272 -0.1974  0.4811
   47MOL   C94647958   7.100   7.747   5.862  0.5077  0.4661  0.2421
   47MOL   C94747959   6.959   7.704   6.248 -0.1513 -0.2015  0.3455
   47MOL   C94847960   6.901   7.697   6.376 -0.2253  0.1259  0.1903
   47MOL   H94947961   6.795   7.698   6.598 -1.8330  1.7290 -3.8956
   47MOL   H95047962   7.029   0.006   6.503 -1.8931 -0.2761  1.2443
   47MOL   H95147963   7.090   0.040   6.296 -3.1384  2.0937  1.4381
   47MOL   H95247964   7.099   7.927   6.043 -0.1647  0.0803  0.1318
   47MOL   H95347965   7.212   7.619   6.159 -2.7462 -0.8214  0.3750
   47MOL   H95447966   7.295   7.430   5.991  0.8909  0.5098  0.8758
   47MOL   H95547967   7.299   7.347   5.802 -1.8275  0.6362  1.2156
   47MOL   H95647968   7.214   7.196   5.601 -2.2261  1.9680  0.9232
   47MOL   H95747969   7.218   7.176   5.359 -0.4525  0.3255 -0.0943
   47MOL   H95847970   7.341   7.421   5.129  0.9740  0.1608 -0.4957
   47MOL   H95947971   7.022   7.367   5.151  0.3959  0.6448 -0.3611
   47MOL   H96047972   6.889   7.262   4.987  0.5369  0.8997  0.1228
   47MOL   H96147973   6.857   7.043   4.818  0.3112 -2.6024 -0.7989
   47MOL   H96247974   7.011   6.969   4.786 -0.8548 -1.1114  1.2638
   47MOL   H96347975   7.224   7.055   4.828 -0.6407 -0.3067  0.3906
   47MOL   H96447976   7.370   7.161   5.007 -0.5818 -1.6375 -0.8335
   47MOL   H96547977   7.363   7.569   5.315 -0.2822  0.0978  0.6656
   47MOL   H96647978   7.334   7.615   5.555 -0.3288  0.1331  1.2822
   47MOL   H96747979   7.115   7.659   5.675 -0.3078 -2.1128  0.4296
   47MOL   H96847980   7.043   7.819   5.806  0.5337  0.3873  0.1134
   47MOL   H96947981   6.948   7.625   6.176 -1.2447 -1.1008  1.4619
   47MOL   H97047982   6.849   7.608   6.408  1.6829 -1.3558 -0.7090
   47MOL   N97147983   6.982   7.136   4.670 -0.3506  0.7144  0.3196
   47MOL   C97247984   6.920   7.105   4.547 -0.6933  0.2530 -0.5496
   47MOL   C97347985   6.959   7.166   4.426  0.7092  0.8049  0.3442
   47MOL   C97447986   6.904   7.137   4.300 -0.4974 -0.0342  0.6929
   47MOL   C97547987   6.805   7.041   4.286 -0.1900 -0.2921 -0.6176
   47MOL   N97647988   6.743   7.023   4.163  0.0334  0.1999  0.3122
   47MOL   C97747989   6.795   7.018   4.030  0.3935  0.4653  0.1755
   47MOL   C97847990   6.710   7.006   3.919 -0.5758  0.3824  0.1542
   47MOL   C97947991   6.757   7.003   3.785 -0.0359  0.6892 -0.1223
   47MOL   C98047992   6.897   7.006   3.768  0.9514 -0.5638 -0.0697
   47MOL   N98147993   6.951   7.015   3.644  0.0764  0.1799 -0.8199
   47MOL   C98247994   6.935   7.123   3.555 -0.4346 -0.0732 -0.6070
   47MOL   C98347995   7.052   7.155   3.486  0.4659  0.1987  0.5495
   47MOL   C98447996   7.053   7.273   3.408  0.2904 -0.2580 -0.5513
   47MOL   C98547997   6.942   7.360   3.395  0.1154 -0.1228 -0.5795
   47MOL   N98647998   6.952   7.479   3.320 -0.5209  0.3310 -0.2069
   47MOL   C98747999   7.049   7.515   3.232 -0.6588 -0.8824 -0.2654
   47MOL   C98848000   7.120   7.430   3.146 -0.3692 -0.3460 -0.5377
   47MOL   C98948001   7.229   7.473   3.076 -0.1284 -0.6090 -0.6061
   47MOL   C99048002   7.268   7.608   3.079  0.7101 -0.5705 -1.2654
   47MOL   C99148003   7.384   7.662   2.992  0.2008  0.2444  0.1417
   47MOL   C99248004   7.189   7.701   3.148  0.3706  0.7781 -0.2359
   47MOL   C99348005   7.077   7.651   3.224 -0.6160  0.1423  0.6691
   47MOL   C99448006   6.820   7.315   3.452 -0.0682  0.7300 -0.2038
   47MOL   C99548007   6.821   7.199   3.535 -0.9395  0.0747  0.4201
   47MOL   C99648008   6.984   7.022   3.874 -0.1129 -0.7470  0.1191
   47MOL   C99748009   6.930   7.028   4.002  0.3191  0.2264 -0.3336
   47MOL   C99848010   6.763   6.973   4.404  0.0789  0.2090 -0.3228
   47MOL   C99948011   6.819   7.003   4.533  0.5483  0.8402  0.6442
   47MOL     H148012   7.061   7.199   4.665  0.1061  0.0501 -1.1609
   47MOL     H248013   7.035   7.243   4.433 -0.6162  2.2612 -0.9293
   47MOL     H348014   6.922   7.196   4.211  0.7239  0.2003  1.0939
   47MOL     H448015   6.651   6.984   4.171  0.7946 -1.9359 -0.9447
   47MOL     H548016   6.603   6.992   3.922 -0.6179  0.8040  5.4421
   47MOL     H648017   6.680   6.988   3.710 -1.5223  2.1290  1.0712
   47MOL     H748018   7.048   6.993   3.656  0.2716  0.9509 -0.9333
   47MOL     H848019   7.141   7.096   3.505  0.3884 -0.4079 -0.9187
   47MOL     H948020   7.149   7.305   3.370  1.5603  1.1325  3.6298
   47MOL    H1048021   6.903   7.555   3.364  0.7530  1.0148  0.0507
   47MOL    H1148022   7.096   7.325   3.146 -2.1481  0.0572  0.2924
   47MOL    H1248023   7.278   7.407   3.006  2.3122 -0.0366  0.5060
   47MOL    H1348024   7.481   7.647   3.039 -0.1979 -1.4857  0.4629
   47MOL    H1448025   7.358   7.767   2.977  0.3997  0.6099  2.3065
   47MOL    H1548026   7.204   7.808   3.151 -2.0323  1.1227  1.1125
   47MOL    H1648027   7.017   7.723   3.277 -0.6419  0.6662 -0.0603
   47MOL    H1748028   6.729   7.372   3.447  0.4297  1.6315  0.8535
   47MOL    H1848029   6.729   7.166   3.580  0.2958 -0.6933  2.4444
   47MOL    H1948030   7.091   7.031   3.868 -0.4669  3.2691 -2.3311
   47MOL    H2048031   7.004   7.053   4.077  1.6818  2.3938 -2.3188
   47MOL    H2148032   6.694   6.890   4.404  1.4394 -0.9705 -1.6512
   47MOL    H2248033   6.771   6.971   4.624  0.7666 -2.2143 -0.2748
   47MOL    H2348034   7.385   7.617   2.892 -2.2583  1.0162 -0.2691
   48MOL     N148035   1.872   3.657   3.570  0.2629 -0.1589 -0.3408
   48MOL     C248036   1.742   3.698   3.611 -0.4151  0.3128 -0.1294
   48MOL     C348037   1.634   3.609   3.612  0.3202 -0.0531  0.0196
   48MOL     C448038   1.499   3.648   3.636  0.9726  1.1256 -0.2311
   48MOL     C548039   1.473   3.780   3.673 -0.1698 -0.1246  0.3923
   48MOL     N648040   1.340   3.812   3.702 -0.5957  1.3461 -0.5992
   48MOL     C748041   1.294   3.929   3.764  0.0490  0.1615 -0.6294
   48MOL     C848042   1.176   3.995   3.718  0.6100 -0.0754  0.4165
   48MOL     C948043   1.145   4.118   3.768  0.9081 -0.1650 -0.4354
   48MOL    C1048044   1.218   4.173   3.877  0.1578  0.3127  0.5818
   48MOL    N1148045   1.191   4.303   3.910  0.7785  0.3062 -0.3673
   48MOL    C1248046   1.222   4.377   4.025  0.5877  0.4039  0.4564
   48MOL    C1348047   1.230   4.316   4.155 -1.0278 -0.5618  0.7617
   48MOL    C1448048   1.291   4.387   4.259  0.0834 -0.1640 -0.4216
   48MOL    C1548049   1.336   4.514   4.241 -0.2710  0.0095  0.3323
   48MOL    N1648050   1.405   4.590   4.340  0.7443  0.1322  0.0931
   48MOL    C1748051   1.476   4.535   4.444  0.0718 -0.3738  0.3066
   48MOL    C1848052   1.558   4.422   4.422 -0.1026 -0.3377  0.4487
   48MOL    C1948053   1.653   4.374   4.515 -0.1221 -0.3733 -0.3538
   48MOL    C2048054   1.658   4.430   4.638 -0.1547  0.0275 -0.3006
   48MOL    C2148055   1.758   4.381   4.740 -0.2360  0.4208  0.5228
   48MOL    C2248056   1.582   4.545   4.665 -0.4908 -0.5408 -0.5008
   48MOL    C2348057   1.488   4.595   4.571 -0.5670 -0.3608  0.4177
   48MOL    C2448058   1.320   4.581   4.114  0.1582  0.6268  0.4015
   48MOL    C2548059   1.269   4.509   4.006  0.1927  0.1016 -0.5149
   48MOL    C2648060   1.336   4.114   3.927 -0.8760 -0.0604  0.1872
   48MOL    C2748061   1.376   3.992   3.869 -0.2763 -1.2355  0.5950
   48MOL    C2848062   1.581   3.875   3.667  1.0004  0.0693  0.1802
   48MOL    C2948063   1.710   3.832   3.631 -0.1979  1.7968  0.2668
   48MOL    H3048064   1.951   3.714   3.599 -0.2280 -0.0802  0.8948
   48MOL    H3148065   1.665   3.508   3.594  0.7440 -0.5355  3.1760
   48MOL    H3248066   1.413   3.584   3.650  0.9570  0.9315 -1.1708
   48MOL    H3348067   1.273   3.737   3.689  1.7762 -1.0549  0.4807
   48MOL    H3448068   1.112   3.949   3.644 -0.0986  2.4879 -0.5938
   48MOL    H3548069   1.062   4.175   3.728  0.0304  0.4787  2.2162
   48MOL    H3648070   1.101   4.337   3.881  0.1464 -1.7734 -0.9305
   48MOL    H3748071   1.208   4.211   4.168  0.6017 -1.0066  0.0938
   48MOL    H3848072   1.307   4.335   4.353  2.9292 -0.6583 -1.1442
   48MOL    H3948073   1.400   4.689   4.323 -3.5425  0.4890  2.6813
   48MOL    H4048074   1.551   4.368   4.329  1.2113 -1.5478  1.0327
   48MOL    H4148075   1.714   4.288   4.493  0.9165  0.1347  0.4859
   48MOL    H4248076   1.816   4.468   4.769  0.2216  0.2769  0.0415
   48MOL    H4348077   1.832   4.313   4.698  0.5093  0.6445  1.4722
   48MOL    H4448078   1.597   4.595   4.760 -0.8968 -1.5859  0.1291
   48MOL    H4548079   1.425   4.680   4.595  1.1414  1.0648  0.0317
   48MOL    H4648080   1.365   4.679   4.112 -1.0620  1.1761 -0.3947
   48MOL    H4748081   1.274   4.552   3.907 -0.8350 -0.9064 -1.0092
   48MOL    H4848082   1.395   4.163   4.003  0.0226 -0.1106 -0.4678
   48MOL    H4948083   1.473   3.949   3.890 -0.3196 -0.6393  2.0972
   48MOL    H5048084   1.558   3.979   3.687 -1.3851 -0.3678 -0.1330
   48MOL    H5148085   1.785   3.908   3.620  0.0197  2.0143  3.0107
   48MOL    H5248086   1.884   3.557   3.575  1.8845  0.0358  0.2281
   48MOL    N5348087   1.688   4.323   4.853 -0.5799  0.5161 -0.0637
   48MOL    C5448088   1.765   4.265   4.956  0.0216 -0.6392  0.1507
   48MOL    C5548089   1.904   4.274   4.957 -0.4154  0.0991 -0.6233
   48MOL    C5648090   1.979   4.245   5.068 -0.2226 -0.0815 -0.2976
   48MOL    C5748091   1.913   4.192   5.178 -0.0146  0.4386 -0.1581
   48MOL    N5848092   1.987   4.154   5.291 -0.8431 -0.3505  0.1579
   48MOL    C5948093   1.960   4.057   5.386  0.6778  0.4703  0.2735
   48MOL    C6048094   1.850   4.069   5.478 -0.2479  0.5080  0.3560
   48MOL    C6148095   1.838   3.968   5.573 -0.0972 -0.2698 -0.1309
   48MOL    C6248096   1.927   3.855   5.575 -0.2162  0.1349  0.1581
   48MOL    N6348097   1.913   3.750   5.666  0.5833 -0.1454  0.4004
   48MOL    C6448098   1.946   3.741   5.801 -0.4293 -0.3070  0.3972
   48MOL    C6548099   1.915   3.626   5.884  0.1577 -0.1388 -0.4311
   48MOL    C6648100   1.947   3.623   6.021  0.4673  0.7092  0.0104
   48MOL    C6748101   2.002   3.736   6.078  0.3522 -0.4389 -0.4334
   48MOL    N6848102   2.004   3.753   6.220 -0.1987  0.2460  0.5414
   48MOL    C6948103   2.045   3.658   6.313 -0.9990 -0.2832 -0.8455
   48MOL    C7048104   2.130   3.551   6.276  0.9681  0.0034 -0.3256
   48MOL    C7148105   2.200   3.470   6.369  0.6462 -0.0264 -0.1469
   48MOL    C7248106   2.188   3.497   6.506 -0.9980  0.5614 -0.0185
   48MOL    C7348107   2.271   3.424   6.607 -0.3212  0.4941 -0.3741
   48MOL    C7448108   2.108   3.604   6.544  0.4382 -0.0290  0.8968
   48MOL    C7548109   2.033   3.680   6.452 -0.2662  0.1499  0.8838
   48MOL    C7648110   2.036   3.846   5.997  0.0413 -0.3951 -0.5500
   48MOL    C7748111   2.010   3.849   5.863  0.2564 -0.1176 -0.2354
   48MOL    C7848112   2.034   3.849   5.486 -0.3701  0.1883  0.0675
   48MOL    C7948113   2.050   3.950   5.387  0.3283  0.0589  0.1310
   48MOL    C8048114   1.772   4.181   5.178  0.8578 -0.7930 -0.2353
   48MOL    C8148115   1.699   4.217   5.066  0.5913 -0.1184  0.7105
   48MOL    H8248116   1.588   4.319   4.858 -0.6821  1.5481 -1.0450
   48MOL    H8348117   1.949   4.326   4.874 -0.2608  0.5358 -0.2663
   48MOL    H8448118   2.085   4.265   5.060 -0.5878  2.6906  1.0153
   48MOL    H8548119   2.087   4.165   5.275 -1.0497  0.4584 -0.6444
   48MOL    H8648120   1.786   4.156   5.482 -0.2347  0.4482  2.1380
   48MOL    H8748121   1.764   3.979   5.651  0.5616  0.3255  0.4166
   48MOL    H8848122   1.837   3.690   5.639 -3.0837  3.9465  1.0230
   48MOL    H8948123   1.861   3.542   5.842  0.9672 -0.8076 -0.1415
   48MOL    H9048124   1.926   3.543   6.091 -1.2005  2.4261  1.5587
   48MOL    H9148125   1.978   3.842   6.259 -1.4734  0.8755 -1.6660
   48MOL    H9248126   2.153   3.526   6.173  1.3931  0.8018 -0.4259
   48MOL    H9348127   2.263   3.386   6.344  1.3976  1.0681 -2.0852
   48MOL    H9448128   2.322   3.338   6.564 -1.7665  0.4031 -1.9533
   48MOL    H9548129   2.204   3.387   6.685  0.8013  0.5547  0.6366
   48MOL    H9648130   2.096   3.623   6.649  1.0690  2.2051  0.5863
   48MOL    H9748131   1.973   3.763   6.485 -1.4904 -0.7320  0.9238
   48MOL    H9848132   2.069   3.938   6.042  0.6620 -0.6852 -0.3951
   48MOL    H9948133   2.040   3.937   5.808 -1.1186  0.0608 -0.7116
   48MOL   H10048134   2.105   3.767   5.489  1.2995  1.6312  0.9012
   48MOL   H10148135   2.138   3.939   5.324  0.4283 -1.9095  0.5644
   48MOL   H10248136   1.712   4.133   5.255  0.8234  0.2016  0.3724
   48MOL   H10348137   1.591   4.215   5.063  0.5921 -3.2809 -0.2075
   48MOL   N10448138   2.370   3.506   6.669  0.8904  0.2073 -0.0766
   48MOL   C10548139   2.436   3.465   6.783 -0.3980 -0.0800  0.4140
   48MOL   C10648140   2.530   3.556   6.839 -0.1042 -0.1927  0.7691
   48MOL   C10748141   2.595   3.509   6.955 -0.4658  0.2802  0.3368
   48MOL   C10848142   2.561   3.390   7.024 -0.0651  0.5652  0.3059
   48MOL   N10948143   2.630   3.342   7.138  0.1929 -0.9120 -0.1648
   48MOL   C11048144   2.573   3.271   7.239 -0.6810  0.3232 -0.3752
   48MOL   C11148145   2.650   3.192   7.318 -0.7430 -0.3504  0.0384
   48MOL   C11248146   2.594   3.139   7.432 -0.3341 -0.0081  0.1623
   48MOL   C11348147   2.456   3.164   7.464  0.4586  0.5135 -0.3337
   48MOL   N11448148   2.407   3.089   7.568  0.0372  0.2950 -0.3098
   48MOL   C11548149   2.308   3.133   7.651 -0.8186  0.2081  0.0765
   48MOL   C11648150   2.237   3.036   7.724 -0.4471  0.4640 -0.2465
   48MOL   C11748151   2.122   3.070   7.798 -0.3943 -0.2493  0.2094
   48MOL   C11848152   2.083   3.207   7.807  0.5360  0.6866 -0.4166
   48MOL   N11948153   1.974   3.254   7.889 -0.8287  0.5194 -0.3295
   48MOL   C12048154   1.886   3.360   7.861  0.1014  0.6449 -0.2902
   48MOL   C12148155   1.874   3.422   7.739 -0.2345 -0.1107  0.2817
   48MOL   C12248156   1.786   3.527   7.715 -0.0107  0.5702 -1.1973
   48MOL   C12348157   1.698   3.561   7.817 -0.6380  0.1036  0.0534
   48MOL   C12448158   1.618   3.689   7.804 -0.4846  0.0706 -0.3373
   48MOL   C12548159   1.701   3.501   7.945  0.0527  0.0208 -0.1846
   48MOL   C12648160   1.794   3.397   7.963 -0.0355 -0.0346  0.0546
   48MOL   C12748161   2.162   3.306   7.741  0.0882 -0.2575 -0.6742
   48MOL   C12848162   2.276   3.270   7.669 -0.2724 -0.6418  0.0594
   48MOL   C12948163   2.380   3.238   7.383  0.3899 -0.0797  0.7164
   48MOL   C13048164   2.441   3.300   7.273 -0.0209  0.0783  0.6781
   48MOL   C13148165   2.459   3.307   6.971 -0.2374 -0.0761  0.3186
   48MOL   C13248166   2.404   3.342   6.842 -0.4535  0.4566  0.0238
   48MOL   H13348167   2.353   3.605   6.671 -0.8040 -0.0390 -1.9799
   48MOL   H13448168   2.570   3.648   6.802 -0.2338 -1.0537 -1.5943
   48MOL   H13548169   2.687   3.546   6.997 -0.3401  0.1918  0.1395
   48MOL   H13648170   2.730   3.329   7.137  0.3362 -0.1387  1.9270
   48MOL   H13748171   2.751   3.174   7.285 -0.8453 -0.0777 -0.4406
   48MOL   H13848172   2.646   3.077   7.503  0.9465  1.8837  0.9132
   48MOL   H13948173   2.437   2.993   7.569  2.9393  1.1259 -1.8565
   48MOL   H14048174   2.256   2.930   7.710  0.8512  0.9005 -1.9345
   48MOL   H14148175   2.065   2.989   7.840 -1.3634  0.3034 -0.0375
   48MOL   H14248176   1.944   3.196   7.966  0.2886  1.5763  0.9286
   48MOL   H14348177   1.946   3.395   7.664 -0.1357 -0.7609  0.6068
   48MOL   H14448178   1.790   3.593   7.630 -0.5597  1.8482 -0.2516
   48MOL   H14548179   1.533   3.692   7.872  0.2107  0.9337  0.5080
   48MOL   H14648180   1.579   3.685   7.702 -0.4167  0.3203 -0.3739
   48MOL   H14748181   1.632   3.528   0.041 -1.1323 -0.3443 -1.0854
   48MOL   H14848182   1.797   3.357   0.081  3.4976  0.0758  0.0550
   48MOL   H14948183   2.145   3.412   7.753  0.4443 -0.2077 -0.5902
   48MOL   H15048184   2.340   3.348   7.629  0.5437 -0.2315  2.0969
   48MOL   H15148185   2.278   3.258   7.415  0.1615 -0.5710  0.2929
   48MOL   H15248186   2.383   3.366   7.210  0.4392  1.3132  1.5305
   48MOL   H15348187   2.430   3.219   7.027  0.2677  0.0505  0.7757
   48MOL   H15448188   2.329   3.274   6.804 -0.9362  0.5898  0.7246
   48MOL   N15548189   1.694   3.806   7.832 -0.4208 -0.3140  0.0806
   48MOL   C15648190   1.657   3.891   7.927  0.4658  0.1629 -0.0783
   48MOL   C15748191   1.736   3.927   0.053 -0.9042 -0.0436 -0.1996
   48MOL   C15848192   1.702   4.041   0.131 -0.0248  0.0583 -0.4780
   48MOL   C15948193   1.583   4.104   0.119  0.3163 -0.0112  0.1377
   48MOL   N16048194   1.553   4.209   0.197  0.0655  0.1616  0.6151
   48MOL   C16148195   1.434   4.226   0.264  0.4271  0.5788 -0.1891
   48MOL   C16248196   1.343   4.119   0.305 -0.2302 -0.3554  0.6229
   48MOL   C16348197   1.218   4.152   0.363 -0.4627  0.6309 -0.3932
   48MOL   C16448198   1.190   4.287   0.400 -0.0919  0.2101  0.3582
   48MOL   N16548199   1.080   4.319   0.476 -0.1065  0.7121 -0.0237
   48MOL   C16648200   1.086   4.307   0.614 -0.3250  0.1216  0.7926
   48MOL   C16748201   1.074   4.423   0.687 -0.5268 -0.6222  0.4828
   48MOL   C16848202   1.071   4.422   0.824  0.1408  0.3593 -0.3795
   48MOL   C16948203   1.077   4.309   0.896 -0.4789  0.1335 -0.0561
   48MOL   N17048204   1.083   4.318   1.035  0.0012 -0.1641 -0.0150
   48MOL   C17148205   1.025   4.423   1.115  0.4009 -0.2443  0.0013
   48MOL   C17248206   1.089   4.448   1.242 -0.3532 -0.4918  0.0835
   48MOL   C17348207   1.034   4.551   1.323 -0.3230  0.5561  0.2048
   48MOL   C17448208   0.915   4.618   1.283 -0.7382  0.2396 -0.4937
   48MOL   C17548209   0.848   4.727   1.367  0.4692  0.2934 -0.0689
   48MOL   C17648210   0.850   4.577   1.165  0.3646 -0.4867  0.6642
   48MOL   C17748211   0.908   4.486   1.079  0.7464 -0.0984  0.1308
   48MOL   C17848212   1.103   4.193   0.831  0.4223  0.2075 -0.1820
   48MOL   C17948213   1.108   4.186   0.688  0.0952 -0.5518  0.0614
   48MOL   C18048214   1.278   4.389   0.362 -0.0338 -0.0093  0.0506
   48MOL   C18148215   1.398   4.355   0.293  0.2055 -0.7431 -0.3438
   48MOL   C18248216   1.498   4.063   0.012 -0.1182  0.6095 -0.8075
   48MOL   C18348217   1.540   3.963   7.909  0.3544  0.1905  0.4360
   48MOL   H18448218   1.793   3.791   7.817 -0.2856  2.4635 -2.1977
   48MOL   H18548219   1.832   3.881   0.072 -0.0134  2.5731  1.9703
   48MOL   H18648220   1.779   4.084   0.194  0.1769 -1.0867  0.0666
   48MOL   H18748221   1.590   4.292   0.154  2.3702 -1.1988 -0.0959
   48MOL   H18848222   1.365   4.013   0.294  1.8047  0.1860 -0.8860
   48MOL   H18948223   1.157   4.068   0.390 -2.0839  1.7190 -0.5679
   48MOL   H19048224   1.049   4.413   0.456  0.3761  0.7819 -0.4490
   48MOL   H19148225   1.073   4.515   0.631 -2.1119 -0.4743  0.7195
   48MOL   H19248226   1.053   4.518   0.872  0.9293  0.8146 -0.9933
   48MOL   H19348227   1.143   4.251   1.081  1.4346  0.7159 -0.5541
   48MOL   H19448228   1.181   4.399   1.269  0.7166  1.6452  0.3876
   48MOL   H19548229   1.077   4.572   1.420 -2.0748 -0.5083  1.2430
   48MOL   H19648230   0.872   4.715   1.473 -0.0094 -3.5796 -0.3304
   48MOL   H19748231   0.740   4.715   1.362  0.7449 -2.5559  0.1577
   48MOL   H19848232   0.760   4.633   1.142 -0.6543 -1.9168  1.0882
   48MOL   H19948233   0.855   4.464   0.987  0.5566  1.1301 -0.0563
   48MOL   H20048234   1.118   4.095   0.874 -0.8537  0.2239  0.3367
   48MOL   H20148235   1.116   4.090   0.639 -1.6857 -1.6046  1.7614
   48MOL   H20248236   1.266   4.496   0.376  0.2968 -0.1843  1.7815
   48MOL   H20348237   1.457   4.443   0.271 -0.5479  0.0463  0.7575
   48MOL   H20448238   1.405   4.107   7.961 -0.2408 -0.5841 -2.1174
   48MOL   H20548239   1.480   3.939   7.823  1.3870 -1.3053  0.1194
   48MOL   N20648240   0.871   4.859   1.323  0.4784  0.4736  0.3812
   48MOL   C20748241   0.973   4.943   1.368 -0.1763 -0.3607 -0.0353
   48MOL   C20848242   1.087   4.891   1.430 -0.7663 -0.0489  0.1621
   48MOL   C20948243   1.184   4.979   1.472 -0.1633  0.4634  0.1150
   48MOL   C21048244   1.182   5.118   1.456  0.8580  0.5741 -0.4551
   48MOL   N21148245   1.286   5.206   1.498 -0.0344 -0.0501  0.4369
   48MOL   C21248246   1.352   5.200   1.618  0.2954  0.1862 -0.1795
   48MOL   C21348247   1.435   5.088   1.654 -0.9479 -0.5868 -0.1432
   48MOL   C21448248   1.475   5.080   1.789  0.6455 -0.3431  0.1325
   48MOL   C21548249   1.456   5.185   1.884  0.2443 -0.4904  0.0421
   48MOL   N21648250   1.510   5.175   2.018  0.3817  0.6621  0.0045
   48MOL   C21748251   1.486   5.075   2.115 -0.3909  0.0427  0.3349
   48MOL   C21848252   1.407   4.956   2.091 -0.4287 -0.6735 -0.7036
   48MOL   C21948253   1.376   4.873   2.197  0.0731  0.3741  0.0209
   48MOL   C22048254   1.423   4.899   2.332  0.4565 -0.0765  0.1320
   48MOL   N22148255   1.401   4.805   2.432  0.0183 -0.2709 -0.0636
   48MOL   C22248256   1.290   4.719   2.447  0.9479  0.2966  0.2952
   48MOL   C22348257   1.163   4.764   2.401 -0.0202  0.3564 -0.7524
   48MOL   C22448258   1.047   4.685   2.424  0.2860 -0.3664  0.6537
   48MOL   C22548259   1.060   4.564   2.493  0.8687  0.4343  0.4222
   48MOL   C22648260   0.939   4.478   2.521  0.0259 -0.1587 -0.1988
   48MOL   C22748261   1.181   4.520   2.542 -0.0986 -1.0544  0.4526
   48MOL   C22848262   1.302   4.594   2.509 -0.1473 -0.3421  0.6315
   48MOL   C22948263   1.501   5.015   2.355 -0.1629 -0.0985 -0.0049
   48MOL   C23048264   1.529   5.100   2.244 -0.5097  0.0015 -0.2069
   48MOL   C23148265   1.389   5.301   1.839 -0.8592  0.4929 -0.2167
   48MOL   C23248266   1.337   5.306   1.706 -0.1012 -0.0053 -0.4151
   48MOL   C23348267   1.071   5.171   1.383  0.0641 -0.0079  0.0317
   48MOL   C23448268   0.970   5.081   1.338  0.1245  0.3411 -0.4442
   48MOL   H23548269   0.787   4.900   1.285 -0.5916 -1.5503  0.4788
   48MOL   H23648270   1.107   4.786   1.450  0.7859  0.2720  0.3391
   48MOL   H23748271   1.263   4.943   1.535 -0.5495 -2.9455 -1.2621
   48MOL   H23848272   1.248   5.297   1.474 -1.3096 -1.2532 -2.3879
   48MOL   H23948273   1.469   5.009   1.589  1.2006 -0.0542  0.2907
   48MOL   H24048274   1.539   4.999   1.822  1.4259 -0.0478 -0.6243
   48MOL   H24148275   1.549   5.260   2.056  0.1054  1.4769 -1.4961
   48MOL   H24248276   1.371   4.931   1.992 -1.9887  2.7522 -1.0923
   48MOL   H24348277   1.331   4.776   2.181 -1.3311  1.2583 -1.4757
   48MOL   H24448278   1.453   4.813   2.518 -0.2589  2.1096 -0.0720
   48MOL   H24548279   1.168   4.859   2.352  0.4610 -0.3210 -2.0311
   48MOL   H24648280   0.947   4.714   2.393  0.0708 -1.3243  0.4345
   48MOL   H24748281   0.855   4.539   2.488  1.4784  1.6638 -0.6073
   48MOL   H24848282   0.927   4.451   2.626 -0.3105  0.2114 -0.1439
   48MOL   H24948283   1.187   4.420   2.583 -0.9770 -1.2704  0.0673
   48MOL   H25048284   1.399   4.552   2.532  0.5241 -0.8643 -2.9398
   48MOL   H25148285   1.535   5.050   2.452 -0.8263 -2.0674  0.9688
   48MOL   H25248286   1.587   5.184   2.279 -0.3906 -1.4055  3.1994
   48MOL   H25348287   1.383   5.388   1.902  1.4737  0.2656  0.3521
   48MOL   H25448288   1.274   5.383   1.663 -1.2649 -1.5611 -1.5872
   48MOL   H25548289   1.065   5.278   1.369  4.2606  0.4233  1.0257
   48MOL   H25648290   0.885   5.137   1.302 -0.5099  1.1448  2.2111
   48MOL   N25748291   0.934   4.367   2.426  0.7846 -0.0824  0.0374
   48MOL   C25848292   0.844   4.264   2.438  0.0632 -0.4667  0.6846
   48MOL   C25948293   0.879   4.144   2.369  0.2737  0.0927 -0.1331
   48MOL   C26048294   0.792   4.035   2.372 -1.0292 -0.7764 -0.4330
   48MOL   C26148295   0.670   4.037   2.442 -0.0310 -0.7048  0.3823
   48MOL   N26248296   0.580   3.931   2.450  0.9456 -0.2754  0.1811
   48MOL   C26348297   0.574   3.814   2.378 -0.5674 -0.2349 -0.5788
   48MOL   C26448298   0.555   3.689   2.442  0.2471  0.2317  0.2290
   48MOL   C26548299   0.545   3.568   2.364  0.2944 -0.7136 -0.0877
   48MOL   C26648300   0.572   3.570   2.227 -0.0597  0.4194  0.5092
   48MOL   N26748301   0.567   3.453   2.149  0.1855  0.3428  0.3880
   48MOL   C26848302   0.602   3.318   2.181 -0.0414 -0.7473  0.6228
   48MOL   C26948303   0.683   3.294   2.293  0.6560 -0.3700 -0.7160
   48MOL   C27048304   0.725   3.163   2.321  0.1850 -0.5731 -0.4990
   48MOL   C27148305   0.689   3.051   2.242  0.2210  0.1246 -0.1622
   48MOL   N27248306   0.730   2.918   2.270  0.1910 -0.2742  0.0480
   48MOL   C27348307   0.830   2.876   2.353 -0.5661 -0.2550  0.6167
   48MOL   C27448308   0.821   2.746   2.412  0.5190 -0.0374 -0.2980
   48MOL   C27548309   0.923   2.694   2.496 -0.4917  0.0742  0.2393
   48MOL   C27648310   1.048   2.766   2.495  0.1346  0.2524  0.5010
   48MOL   C27748311   1.158   2.708   2.575 -0.4479  0.4277 -0.3829
   48MOL   C27848312   1.063   2.879   2.417 -0.2903 -0.2914  0.0529
   48MOL   C27948313   0.953   2.940   2.357  0.4203  0.4116 -0.4576
   48MOL   C28048314   0.602   3.074   2.133 -0.0600 -0.3478  0.4647
   48MOL   C28148315   0.565   3.208   2.101 -0.7080 -0.3480  0.4076
   48MOL   C28248316   0.592   3.694   2.167  0.5235 -0.2399 -0.0219
   48MOL   C28348317   0.596   3.810   2.239  0.4068  0.2761  0.0386
   48MOL   C28448318   0.639   4.160   2.507  0.1126  1.2137 -0.2394
   48MOL   C28548319   0.720   4.276   2.509  0.3919  0.6084 -0.3305
   48MOL   H28648320   1.023   4.345   2.382  0.3490 -1.2916 -0.2615
   48MOL   H28748321   0.966   4.121   2.310  0.3413  2.4156 -1.0102
   48MOL   H28848322   0.834   3.952   2.319  1.5811  0.6978 -0.7436
   48MOL   H28948323   0.537   3.922   2.541 -0.1615 -1.4508 -0.4354
   48MOL   H29048324   0.544   3.671   2.548  0.1067 -0.2033  0.1411
   48MOL   H29148325   0.521   3.474   2.411 -0.3279 -0.0259  0.9605
   48MOL   H29248326   0.555   3.469   2.050  0.6289  1.8861  0.5659
   48MOL   H29348327   0.704   3.373   2.363 -0.2011 -1.8903  1.2886
   48MOL   H29448328   0.772   3.150   2.417  2.3990 -0.0496 -1.4764
   48MOL   H29548329   0.660   2.864   2.222  0.5358  1.4002 -2.4409
   48MOL   H29648330   0.725   2.698   2.402 -0.7556  1.7215  2.5711
   48MOL   H29748331   0.909   2.605   2.555 -0.1177 -2.0257 -2.7367
   48MOL   H29848332   1.113   2.673   2.667  1.6461  0.5397  0.7251
   48MOL   H29948333   1.219   2.793   2.605 -0.0943  0.2906 -0.7085
   48MOL   H30048334   1.152   2.940   2.428 -0.0715 -0.9792  2.2772
   48MOL   H30148335   0.970   3.036   2.310  2.4589 -0.4839 -1.6305
   48MOL   H30248336   0.571   2.997   2.064 -0.0809  0.6009 -0.6117
   48MOL   H30348337   0.495   3.225   2.021 -0.9818  0.8552  0.8902
   48MOL   H30448338   0.597   3.705   2.060 -0.7654  2.6308  0.1556
   48MOL   H30548339   0.606   3.905   2.189 -0.5304  0.7837  0.8069
   48MOL   H30648340   0.552   4.176   2.569  0.0831  0.4493 -0.0817
   48MOL   H30748341   0.696   4.370   2.556  1.0356  1.0583 -0.9063
   48MOL   N30848342   1.216   2.588   2.510  0.0605  0.7945  0.2683
   48MOL   C30948343   1.345   2.537   2.543 -0.2095  0.0410  0.7871
   48MOL   C31048344   1.422   2.598   2.641 -0.1887  0.0541 -0.4854
   48MOL   C31148345   1.542   2.549   2.677  0.2998 -0.1370 -0.3210
   48MOL   C31248346   1.593   2.426   2.625  0.4774  0.1937 -0.2793
   48MOL   N31348347   1.712   2.364   2.677  0.2721 -0.9696  0.4636
   48MOL   C31448348   1.802   2.415   2.770  0.2979  0.0357  0.4401
   48MOL   C31548349   1.848   2.331   2.877  0.0081 -0.5888  1.1280
   48MOL   C31648350   1.942   2.378   2.975  0.3233 -0.1880 -0.6380
   48MOL   C31748351   1.982   2.509   2.976 -0.2445  0.4735  0.4529
   48MOL   N31848352   2.052   2.562   3.081 -0.2826 -0.2306 -0.1963
   48MOL   C31948353   2.155   2.657   3.074 -0.0276 -0.2113 -0.1190
   48MOL   C32048354   2.220   2.684   2.955 -0.8292  0.2936 -0.2446
   48MOL   C32148355   2.310   2.794   2.964 -0.3274 -0.1840  0.5124
   48MOL   C32248356   2.344   2.868   3.083  0.1452 -0.6248  0.2298
   48MOL   N32348357   2.425   2.978   3.075 -0.5525  0.3526  0.2020
   48MOL   C32448358   2.398   3.091   2.998  0.0443  0.2261 -0.1492
   48MOL   C32548359   2.275   3.113   2.935 -0.0882  0.3805 -0.7388
   48MOL   C32648360   2.251   3.214   2.845 -0.8807 -0.5788  0.2845
   48MOL   C32748361   2.354   3.304   2.811 -0.2336 -0.5686 -0.1294
   48MOL   C32848362   2.331   3.408   2.702  0.1603  0.0073  0.2884
   48MOL   C32948363   2.484   3.288   2.870 -0.0656 -0.7000 -0.1444
   48MOL   C33048364   2.503   3.180   2.962  0.1388 -0.8833 -0.1785
   48MOL   C33148365   2.280   2.831   3.198 -0.0684  0.1858 -0.3335
   48MOL   C33248366   2.186   2.723   3.200  0.2561 -0.3767 -0.1806
   48MOL   C33348367   1.947   2.586   2.868 -0.0069 -0.1020  0.2365
   48MOL   C33448368   1.860   2.542   2.765 -0.5065  0.4631 -0.2129
   48MOL   C33548369   1.516   2.365   2.523 -0.2916 -0.3706 -0.5142
   48MOL   C33648370   1.386   2.411   2.487  0.4075  0.0036  0.2680
   48MOL   H33748371   1.165   2.548   2.433  0.4142 -1.0487  0.9587
   48MOL   H33848372   1.393   2.688   2.692 -0.4747  0.6679 -1.7236
   48MOL   H33948373   1.594   2.600   2.757  0.8761  0.4954 -1.0843
   48MOL   H34048374   1.722   2.266   2.658 -0.2651 -0.7547 -0.9505
   48MOL   H34148375   1.828   2.226   2.891 -0.4611 -0.5407  0.8243
   48MOL   H34248376   1.976   2.305   3.046  0.3055 -0.2337 -0.6772
   48MOL   H34348377   2.017   2.545   3.175 -0.8084  1.2961 -0.0955
   48MOL   H34448378   2.197   2.619   2.872  1.7679  0.2235 -0.9564
   48MOL   H34548379   2.356   2.829   2.872 -1.8170 -0.4581 -0.3610
   48MOL   H34648380   2.489   3.007   3.147 -0.0331  0.9887 -0.5122
   48MOL   H34748381   2.199   3.036   2.948 -0.2920  0.6104 -0.5635
   48MOL   H34848382   2.149   3.217   2.809 -0.2835  0.1317 -1.4146
   48MOL   H34948383   2.413   3.392   2.632 -0.2731  1.3538 -0.5404
   48MOL   H35048384   2.357   3.504   2.747  1.8654 -0.4366  0.2853
   48MOL   H35148385   2.568   3.351   2.847 -0.7729  0.2899 -0.0268
   48MOL   H35248386   2.604   3.179   2.998 -0.2864  1.4299  1.2058
   48MOL   H35348387   2.293   2.889   3.289  0.5992  3.1568 -2.2565
   48MOL   H35448388   2.138   2.704   3.295  0.6484 -0.1127  0.0746
   48MOL   H35548389   1.976   2.689   2.853  0.6620 -0.4281 -0.7728
   48MOL   H35648390   1.825   2.613   2.691 -4.4855 -1.2122 -0.0322
   48MOL   H35748391   1.544   2.263   2.499  1.3238  0.0107 -0.2950
   48MOL   H35848392   1.328   2.346   2.423  0.8461 -1.2199  1.0795
   48MOL   N35948393   2.203   3.401   2.639  0.1537 -0.0575  0.2954
   48MOL   C36048394   2.162   3.482   2.530 -0.2003 -0.4839  0.1134
   48MOL   C36148395   2.250   3.561   2.450  1.0659 -0.0091  0.0599
   48MOL   C36248396   2.198   3.643   2.346  0.0193  0.8602  0.6005
   48MOL   C36348397   2.057   3.652   2.325 -0.1840 -0.6156  0.3605
   48MOL   N36448398   2.005   3.738   2.223  0.4139  0.7942 -0.1092
   48MOL   C36548399   2.037   3.872   2.203  0.3865  0.2131  0.4734
   48MOL   C36648400   2.063   3.918   2.070  0.5132  0.3624 -0.0409
   48MOL   C36748401   2.087   4.054   2.041 -0.0485  0.5120 -0.5132
   48MOL   C36848402   2.113   4.141   2.147  0.3606  0.5606 -0.1079
   48MOL   N36948403   2.140   4.272   2.119  0.0153  0.4071 -0.0893
   48MOL   C37048404   2.045   4.371   2.084 -0.1059  0.0024 -0.4649
   48MOL   C37148405   1.961   4.355   1.969 -0.2723  0.0529 -0.4213
   48MOL   C37248406   1.869   4.456   1.935  0.0921  0.2890  0.1015
   48MOL   C37348407   1.857   4.576   2.016 -0.1283 -0.0311  0.2948
   48MOL   N37448408   1.767   4.680   1.986 -0.1339  0.7607  0.0790
   48MOL   C37548409   1.711   4.699   1.857  0.6199  0.4937 -0.4197
   48MOL   C37648410   1.797   4.734   1.744  0.3792  0.7511  0.4359
   48MOL   C37748411   1.735   4.751   1.617  0.1585 -0.2414 -0.0678
   48MOL   C37848412   1.595   4.742   1.596 -0.2437 -0.5835  0.5979
   48MOL   C37948413   1.547   4.762   1.449 -0.5752  0.0209  0.4559
   48MOL   C38048414   1.512   4.713   1.703 -0.1339 -0.6552 -0.1754
   48MOL   C38148415   1.569   4.685   1.831 -0.2093 -0.2313  0.6092
   48MOL   C38248416   1.941   4.586   2.131 -0.5067 -0.5363  0.9805
   48MOL   C38348417   2.039   4.489   2.160 -0.6723  0.5487  0.3892
   48MOL   C38448418   2.088   4.099   2.281 -0.1096 -0.7651 -0.0004
   48MOL   C38548419   2.050   3.968   2.310 -0.3193  0.0341  0.0750
   48MOL   C38648420   1.974   3.573   2.406  0.9625  0.3915  0.1541
   48MOL   C38748421   2.021   3.497   2.510 -0.4648  0.2210 -0.1840
   48MOL   H38848422   2.128   3.359   2.692 -0.3053  0.3716 -0.0131
   48MOL   H38948423   2.355   3.550   2.474  1.5413  0.6468 -1.6444
   48MOL   H39048424   2.263   3.698   2.280  1.1600 -0.1207  0.8999
   48MOL   H39148425   1.908   3.723   2.199  1.0575 -1.1886 -1.5877
   48MOL   H39248426   2.060   3.846   1.990  1.5039  1.5537 -1.1758
   48MOL   H39348427   2.102   4.085   1.939 -0.6928 -0.0990 -0.7946
   48MOL   H39448428   2.221   4.309   2.168  0.5090 -1.3588  0.4638
   48MOL   H39548429   1.979   4.264   1.913 -0.1848  0.0887 -0.4506
   48MOL   H39648430   1.827   4.460   1.835 -1.1286  2.8653  0.6894
   48MOL   H39748431   1.711   4.715   2.062 -0.0361 -1.6366  1.2961
   48MOL   H39848432   1.904   4.744   1.750  0.5195  0.6146 -1.5644
   48MOL   H39948433   1.797   4.771   1.530 -0.8456  1.3028 -0.4503
   48MOL   H40048434   1.621   4.739   1.372 -0.9806 -2.4121  0.7385
   48MOL   H40148435   1.539   4.869   1.433  0.4440 -0.1004 -1.0020
   48MOL   H40248436   1.406   4.696   1.693 -0.9114  1.8861  2.8909
   48MOL   H40348437   1.503   4.646   1.907 -0.0992 -2.1400 -0.2445
   48MOL   H40448438   1.936   4.681   2.182  0.9307  0.7737 -1.2302
   48MOL   H40548439   2.120   4.514   2.227  0.0540 -1.2463  0.2088
   48MOL   H40648440   2.087   4.169   2.363 -1.9893 -0.8604  0.0888
   48MOL   H40748441   2.032   3.946   2.414 -0.9940  0.8560  0.1325
   48MOL   H40848442   1.867   3.584   2.406  0.9456  0.2688 -1.3605
   48MOL   H40948443   1.957   3.443   2.578 -0.6894 -0.7125 -1.1239
   48MOL   N41048444   1.422   4.693   1.411 -0.8125 -0.0701  0.2541
   48MOL   C41148445   1.421   4.650   1.277  0.0285  0.1407 -0.4929
   48MOL   C41248446   1.309   4.680   1.194 -0.8633  0.4249 -0.1712
   48MOL   C41348447   1.305   4.639   1.057 -0.4224  0.8698  0.5149
   48MOL   C41448448   1.412   4.569   1.000  0.5628 -0.3927 -0.6271
   48MOL   N41548449   1.404   4.546   0.859 -0.2359  0.5549 -0.2693
   48MOL   C41648450   1.486   4.461   0.782  0.1153  0.2532  0.1403
   48MOL   C41748451   1.434   4.371   0.688  0.3667  0.5450  0.0411
   48MOL   C41848452   1.512   4.275   0.625  0.1503  0.2971  0.1564
   48MOL   C41948453   1.647   4.275   0.652 -0.3011  0.4091 -0.3124
   48MOL   N42048454   1.735   4.193   0.585 -0.9336 -0.3640 -0.0385
   48MOL   C42148455   1.864   4.155   0.622  0.5963  0.0468 -0.0100
   48MOL   C42248456   1.962   4.128   0.518 -0.6534 -0.5969 -0.2667
   48MOL   C42348457   2.089   4.088   0.557 -0.0638  0.1672 -0.9223
   48MOL   C42448458   2.133   4.082   0.692 -0.5101  0.6078 -0.1867
   48MOL   N42548459   2.262   4.052   0.732  0.5438  0.5109  0.1549
   48MOL   C42648460   2.355   3.966   0.668  0.5342 -0.2112 -0.0257
   48MOL   C42748461   2.407   3.861   0.742  0.5041 -0.0206 -0.3390
   48MOL   C42848462   2.514   3.787   0.691 -0.2146  0.6672  0.8947
   48MOL   C42948463   2.557   3.809   0.559 -0.5044  0.0835  0.0766
   48MOL   C43048464   2.664   3.729   0.492 -0.0242  0.6173  0.2025
   48MOL   C43148465   2.502   3.912   0.487 -0.0882  0.3191 -0.3500
   48MOL   C43248466   2.402   3.994   0.536 -0.5523  0.2586 -0.4726
   48MOL   C43348467   2.031   4.098   0.788 -0.2743  0.1068  0.1587
   48MOL   C43448468   1.898   4.129   0.758 -0.8741 -0.1347 -0.2458
   48MOL   C43548469   1.705   4.370   0.735 -0.2684 -0.2713 -0.0077
   48MOL   C43648470   1.623   4.460   0.803  0.0587 -0.1622 -0.6081
   48MOL   C43748471   1.523   4.541   1.084  0.3209  0.3853  0.0898
   48MOL   C43848472   1.528   4.578   1.219 -0.1989  0.0148 -0.5290
   48MOL   H43948473   1.339   4.749   1.428 -0.7822 -0.4529  1.7997
   48MOL   H44048474   1.232   4.747   1.229  0.8435  1.7045  1.2263
   48MOL   H44148475   1.227   4.659   0.985  0.1879 -0.1241 -0.4332
   48MOL   H44248476   1.309   4.540   0.825  0.6200 -0.1657 -2.6182
   48MOL   H44348477   1.327   4.378   0.675  0.3313 -1.0436 -0.6444
   48MOL   H44448478   1.467   4.199   0.563  0.9345 -1.3903  1.6126
   48MOL   H44548479   1.688   4.153   0.506  0.4589 -0.7791 -0.6760
   48MOL   H44648480   1.944   4.143   0.413  0.3358  1.7676 -0.1048
   48MOL   H44748481   2.155   4.061   0.476 -1.1892  0.8866 -2.0985
   48MOL   H44848482   2.252   4.033   0.831 -1.5091  0.5067 -0.0271
   48MOL   H44948483   2.373   3.831   0.841  2.2826  2.5439  1.0925
   48MOL   H45048484   2.567   3.707   0.740  0.8115  0.7313 -0.0873
   48MOL   H45148485   2.764   3.774   0.489  0.3004 -0.1083 -0.0385
   48MOL   H45248486   2.634   3.717   0.388 -2.8728 -0.9100  1.1516
   48MOL   H45348487   2.527   3.930   0.383  0.4269 -0.3389 -0.3410
   48MOL   H45448488   2.361   4.075   0.477 -0.6395  0.2765 -0.3883
   48MOL   H45548489   2.051   4.090   0.894  0.2034  1.2087  0.1508
   48MOL   H45648490   1.826   4.134   0.838 -0.3208  0.1555  0.2363
   48MOL   H45748491   1.812   4.378   0.740 -0.1888 -0.8038 -0.7807
   48MOL   H45848492   1.685   4.517   0.871 -2.0204  0.1197  1.0821
   48MOL   H45948493   1.606   4.481   1.051  0.8929  0.0765  2.0728
   48MOL   H46048494   1.607   4.547   1.286 -0.9727  1.1968  0.9673
   48MOL   N46148495   2.663   3.589   0.529  0.3550 -0.0747  0.6428
   48MOL   C46248496   2.784   3.516   0.524  0.1396  0.2692  0.4862
   48MOL   C46348497   2.867   3.513   0.642  0.1373  0.5854 -0.7723
   48MOL   C46448498   2.982   3.430   0.647 -0.3054 -0.0873  0.1029
   48MOL   C46548499   3.021   3.357   0.533  0.4735 -0.6652 -0.1395
   48MOL   N46648500   3.133   3.277   0.524 -0.2113  0.0659  0.3231
   48MOL   C46748501   3.198   3.215   0.630  0.2926  0.8913 -0.1816
   48MOL   C46848502   3.339   3.215   0.633 -0.1183  0.4797  0.4092
   48MOL   C46948503   3.410   3.160   0.745  0.5591 -0.1703  0.5602
   48MOL   C47048504   3.337   3.094   0.843 -0.1183  0.2677  0.0341
   48MOL   N47148505   3.405   3.044   0.954 -0.4522 -0.3320  0.1283
   48MOL   C47248506   3.360   3.034   1.088  0.6082  0.3276 -0.2767
   48MOL   C47348507   3.425   2.944   1.179 -0.7916 -0.0246  0.6281
   48MOL   C47448508   3.393   2.932   1.317 -0.1359 -0.0792 -0.4719
   48MOL   C47548509   3.292   3.019   1.367  0.3905  0.6898 -0.1787
   48MOL   N47648510   3.252   3.011   1.500  0.4366 -0.5283  0.1670
   48MOL   C47748511   3.327   2.975   1.612 -0.9184 -0.1162 -0.3905
   48MOL   C47848512   3.472   2.957   1.614 -0.1203 -0.5569  0.6469
   48MOL   C47948513   3.543   2.933   1.732 -0.1392 -0.0041 -0.0486
   48MOL   C48048514   3.470   2.904   1.851 -0.1267 -0.1794 -0.5753
   48MOL   C48148515   3.543   2.872   1.983 -0.1003 -0.4148 -0.1266
   48MOL   C48248516   3.328   2.912   1.849  0.8890  0.0610 -0.6766
   48MOL   C48348517   3.257   2.943   1.733 -0.1224 -0.2131  0.7540
   48MOL   C48448518   3.229   3.109   1.283 -0.1593 -0.1534 -0.1580
   48MOL   C48548519   3.259   3.109   1.144 -0.1271 -0.2483 -0.6779
   48MOL   C48648520   3.199   3.084   0.833  0.0323  0.0463  0.2616
   48MOL   C48748521   3.130   3.155   0.734  0.0531 -0.3475 -0.0921
   48MOL   C48848522   2.937   3.368   0.422 -0.2968  0.1437 -0.0196
   48MOL   C48948523   2.824   3.451   0.412 -0.1838 -0.0649 -0.7746
   48MOL   H49048524   2.584   3.538   0.493 -0.0816  1.7859 -1.1521
   48MOL   H49148525   2.827   3.557   0.732  0.4826  1.4800 -1.0517
   48MOL   H49248526   3.043   3.429   0.736  0.5906  3.1149 -0.4050
   48MOL   H49348527   3.179   3.273   0.434 -0.3407 -1.2886  0.3207
   48MOL   H49448528   3.397   3.267   0.559  0.9017  0.0024  0.8637
   48MOL   H49548529   3.517   3.170   0.742  0.8521 -2.6398  1.4317
   48MOL   H49648530   3.492   3.002   0.926 -0.6435  0.5962 -1.9847
   48MOL   H49748531   3.507   2.886   1.138 -1.4206 -0.3811 -0.1315
   48MOL   H49848532   3.433   2.852   1.378  0.3918  0.1954 -0.4548
   48MOL   H49948533   3.167   3.059   1.525 -0.1988 -2.6483  2.2807
   48MOL   H50048534   3.530   2.995   1.531  0.4084  1.9208  2.0724
   48MOL   H50148535   3.651   2.924   1.732 -0.3151 -2.7316  1.5689
   48MOL   H50248536   3.627   2.942   1.985  0.8640 -1.5629  0.5330
   48MOL   H50348537   3.590   2.774   1.990 -2.2594 -1.4277  0.3580
   48MOL   H50448538   3.278   2.882   1.940  1.0763 -0.4411 -0.7397
   48MOL   H50548539   3.149   2.942   1.737 -0.2202 -1.1517 -1.2619
   48MOL   H50648540   3.156   3.179   1.321 -0.8238 -1.1908  0.4786
   48MOL   H50748541   3.205   3.184   1.087  2.5163  0.7117 -2.0255
   48MOL   H50848542   3.136   3.033   0.905  1.4179  0.1651  1.6042
   48MOL   H50948543   3.022   3.156   0.730  0.1274  1.0445 -2.2289
   48MOL   H51048544   2.968   3.302   0.343 -2.9313 -0.4622 -0.5799
   48MOL   H51148545   2.768   3.454   0.320 -0.5254 -1.3450 -0.6134
   48MOL   N51248546   3.458   2.888   2.101  0.3666  0.2388  0.2130
   48MOL   C51348547   3.512   2.829   2.212  0.1282 -0.0149  0.4438
   48MOL   C51448548   3.478   2.696   2.237 -0.4049  0.6650  0.2510
   48MOL   C51548549   3.524   2.628   2.354 -0.2576  0.0754  0.2234
   48MOL   C51648550   3.614   2.693   2.438  0.7433 -0.5432 -0.6070
   48MOL   N51748551   3.682   2.630   2.542 -0.6823 -0.3496 -0.0214
   48MOL   C51848552   3.632   2.522   2.613  0.1396 -0.9788  0.4191
   48MOL   C51948553   3.504   2.519   2.675 -0.5055 -0.1669  0.9120
   48MOL   C52048554   3.463   2.411   2.755 -0.0448  0.1845  0.6047
   48MOL   C52148555   3.560   2.320   2.796 -0.0851 -0.4813 -0.4186
   48MOL   N52248556   3.519   2.235   2.898  0.0639  0.1892  0.5219
   48MOL   C52348557   3.595   2.129   2.946 -0.6161 -0.3164  0.1636
   48MOL   C52448558   3.609   2.019   2.857  0.3600 -0.3335  0.5414
   48MOL   C52548559   3.645   1.895   2.912 -0.8813  0.0030 -0.4741
   48MOL   C52648560   3.684   1.882   3.045 -0.0886 -0.1310  0.2537
   48MOL   N52748561   3.736   1.772   3.104 -0.1821  0.0354  0.0960
   48MOL   C52848562   3.768   1.653   3.044 -0.3332  0.1708  0.6065
   48MOL   C52948563   3.723   1.529   3.089 -0.4742  0.3187  0.5245
   48MOL   C53048564   3.731   1.415   3.008 -0.4616 -0.1097  0.1067
   48MOL   C53148565   3.799   1.415   2.882  0.6980 -0.1547 -0.0387
   48MOL   C53248566   3.790   1.288   2.793 -0.4193  0.4385 -0.6697
   48MOL   C53348567   3.846   1.541   2.842  0.5058  0.1742 -0.1139
   48MOL   C53448568   3.834   1.660   2.919 -0.3752  0.3020  0.7253
   48MOL   C53548569   3.680   1.993   3.136 -0.4293 -0.2743 -0.2493
   48MOL   C53648570   3.630   2.115   3.084  0.2340  0.3450 -0.5624
   48MOL   C53748571   3.694   2.330   2.750 -0.2006 -0.4174  0.4889
   48MOL   C53848572   3.729   2.427   2.653  0.4471  0.6270  0.2055
   48MOL   C53948573   3.660   2.820   2.408 -1.0857  0.7181 -0.1300
   48MOL   C54048574   3.611   2.885   2.292 -0.2700 -0.0392 -0.2001
   48MOL   H54148575   3.440   2.987   2.107  1.2064  0.2752  2.4681
   48MOL   H54248576   3.411   2.637   2.176  1.4931 -1.5314  0.2556
   48MOL   H54348577   3.498   2.526   2.378  0.9208 -0.7472 -1.8116
   48MOL   H54448578   3.774   2.669   2.560  0.3391 -3.0421  0.8489
   48MOL   H54548579   3.428   2.594   2.659 -1.1795 -1.1742 -0.6592
   48MOL   H54648580   3.366   2.412   2.802  0.2450  0.8805  1.2080
   48MOL   H54748581   3.430   2.264   2.935 -0.7066 -0.4551 -0.7932
   48MOL   H54848582   3.580   2.036   2.755  0.5889  0.4822  0.6041
   48MOL   H54948583   3.650   1.806   2.851  0.6697 -0.4061  0.2254
   48MOL   H55048584   3.742   1.785   3.204  1.1128 -0.2404  0.0662
   48MOL   H55148585   3.677   1.522   3.186  1.4501 -1.4831  1.3404
   48MOL   H55248586   3.700   1.315   3.034 -1.3948 -0.5353 -2.4500
   48MOL   H55348587   3.700   1.228   2.810 -1.6250  1.6916 -2.4662
   48MOL   H55448588   3.872   1.232   2.838 -1.6961  0.0952  1.2945
   48MOL   H55548589   3.884   1.553   2.741 -2.3400 -1.2867 -1.4129
   48MOL   H55648590   3.884   1.751   2.891 -0.5602  0.1790 -0.0323
   48MOL   H55748591   3.714   1.985   3.238 -2.8942  3.6736  0.9667
   48MOL   H55848592   3.612   2.202   3.145  0.0486  1.4269 -2.1470
   48MOL   H55948593   3.763   2.255   2.784 -2.1657 -1.6097  1.9654
   48MOL   H56048594   3.826   2.432   2.606  1.0649  1.8648  1.5830
   48MOL   H56148595   3.741   2.864   2.465  0.0369 -1.3075 -0.0810
   48MOL   H56248596   3.658   2.977   2.259  1.3232 -0.8130 -0.1544
   48MOL   N56348597   3.809   1.302   2.651 -0.2397  0.8165 -0.5050
   48MOL   C56448598   3.735   1.372   2.559 -0.1671 -1.1128 -0.4355
   48MOL   C56548599   3.641   1.471   2.589  0.6011 -0.1059 -0.2644
   48MOL   C56648600   3.578   1.548   2.493  0.0361 -0.1585  0.2484
   48MOL   C56748601   3.612   1.524   2.358  0.5593 -0.0051  0.9112
   48MOL   N56848602   3.556   1.609   2.264 -0.5102 -0.2088 -0.0500
   48MOL   C56948603   3.619   1.687   2.168 -0.0288  0.2390 -0.2002
   48MOL   C57048604   3.540   1.739   2.065  0.6017 -0.3229 -0.4189
   48MOL   C57148605   3.602   1.820   1.973  0.2110  0.3253  0.5533
   48MOL   C57248606   3.745   1.845   1.967  0.3407  0.0752  0.3810
   48MOL   N57348607   3.806   1.926   1.868  0.0344  0.4928  0.3046
   48MOL   C57448608   3.915   2.011   1.887 -0.1643 -0.0831 -0.2559
   48MOL   C57548609   3.964   2.053   2.013  0.1620  0.1701 -0.0126
   48MOL   C57648610   4.072   2.134   2.033 -0.2191  0.0611  0.2598
   48MOL   C57748611   4.154   2.166   1.922  0.3458  0.3681  0.1612
   48MOL   N57848612   4.269   2.248   1.931  0.1304 -0.2104  0.6404
   48MOL   C57948613   4.285   2.371   1.997  0.3904 -0.8645 -0.8139
   48MOL   C58048614   4.167   2.437   2.048  0.3463 -0.2023 -0.6840
   48MOL   C58148615   4.192   2.569   2.097  0.9702  0.5122  0.1993
   48MOL   C58248616   4.321   2.637   2.097  0.2723  0.1880 -0.3096
   48MOL   C58348617   4.334   2.771   2.148  0.1098 -0.2164 -0.2180
   48MOL   C58448618   4.428   2.569   2.043  0.0959 -0.0928 -0.2127
   48MOL   C58548619   4.409   2.439   1.996  0.1559  0.0196 -0.4217
   48MOL   C58648620   4.113   2.126   1.791 -0.1418 -0.7530  0.3638
   48MOL   C58748621   3.996   2.047   1.775  0.7223 -0.1845  0.0786
   48MOL   C58848622   3.813   1.794   2.077  0.1606 -0.1173  0.0130
   48MOL   C58948623   3.752   1.722   2.183  0.2515  0.2617 -0.2590
   48MOL   C59048624   3.703   1.425   2.323 -0.4297  0.0589  0.4831
   48MOL   C59148625   3.769   1.350   2.425 -0.3505  0.1375 -0.0860
   48MOL   H59248626   3.866   1.225   2.617 -1.8563 -1.5958  1.9943
   48MOL   H59348627   3.631   1.484   2.696  0.7066 -1.7979 -0.0482
   48MOL   H59448628   3.508   1.624   2.525 -0.1643  0.0131 -0.5787
   48MOL   H59548629   3.475   1.655   2.302 -0.1042  2.0499 -1.8127
   48MOL   H59648630   3.440   1.699   2.065 -0.2264  1.7137  0.8285
   48MOL   H59748631   3.537   1.854   1.894  2.6265  0.2878 -1.4951
   48MOL   H59848632   3.745   1.958   1.794 -0.2485 -1.0076 -0.1260
   48MOL   H59948633   3.912   2.029   2.104  3.5692 -1.6152  1.5516
   48MOL   H60048634   4.110   2.159   2.132 -0.1774 -0.3796  0.3578
   48MOL   H60148635   4.334   2.252   1.853  0.3457  0.5193  0.8550
   48MOL   H60248636   4.070   2.391   2.038 -0.3759  1.3454 -1.0334
   48MOL   H60348637   4.105   2.620   2.135 -0.0921  0.6610 -2.3105
   48MOL   H60448638   4.322   2.838   2.063 -0.4187  0.2791  0.2402
   48MOL   H60548639   4.434   2.774   2.193 -0.2085  1.3692  0.4604
   48MOL   H60648640   4.525   2.610   2.021 -0.4533  0.2715 -2.1673
   48MOL   H60748641   4.491   2.389   1.946 -0.2215 -0.7521 -0.2726
   48MOL   H60848642   4.165   2.150   1.699 -1.2248 -1.9379 -0.5703
   48MOL   H60948643   3.970   2.003   1.679  0.8219 -0.1154  0.0189
   48MOL   H61048644   3.921   1.791   2.086  0.3660  0.1791 -1.9927
   48MOL   H61148645   3.816   1.693   2.265 -0.2305 -0.3815 -0.1109
   48MOL   H61248646   3.715   1.397   2.219 -1.6344  1.5953 -0.1006
   48MOL   H61348647   3.851   1.284   2.404 -1.4414 -1.2865  0.0467
   48MOL   N61448648   4.233   2.813   2.241 -0.2041 -0.3401  0.0213
   48MOL   C61548649   4.221   2.761   2.372  0.1647 -0.2356 -0.1366
   48MOL   C61648650   4.328   2.702   2.448 -0.0051  0.0741  0.2219
   48MOL   C61748651   4.301   2.660   2.579 -0.7473 -0.3165 -0.1750
   48MOL   C61848652   4.173   2.671   2.644 -0.1439  0.0656  0.1624
   48MOL   N61948653   4.148   2.628   2.774 -0.5915 -0.3816 -0.5384
   48MOL   C62048654   4.241   2.617   2.877 -0.0184 -0.0828  0.4634
   48MOL   C62148655   4.219   2.530   2.985 -0.0191 -0.0008  0.4854
   48MOL   C62248656   4.300   2.533   3.101  0.4844  0.1715  0.1641
   48MOL   C62348657   4.406   2.628   3.112  0.1177  0.7722  0.1881
   48MOL   N62448658   4.479   2.639   3.228 -0.0383 -0.4701  0.1397
   48MOL   C62548659   4.609   2.665   3.250 -0.4851  0.0493 -0.7493
   48MOL   C62648660   4.711   2.654   3.154  0.5277 -0.0364  0.4724
   48MOL   C62748661   4.846   2.681   3.187  0.5038  0.5315 -0.1213
   48MOL   C62848662   4.882   2.715   3.315 -0.0084 -0.0794 -0.4608
   48MOL   N62948663   5.017   2.719   3.357  0.0974 -0.0917  0.0895
   48MOL   C63048664   5.118   2.648   3.294 -0.7585 -0.4042  0.0998
   48MOL   C63148665   5.223   2.720   3.246 -0.2535 -0.0273 -0.1759
   48MOL   C63248666   5.316   2.664   3.151 -0.4848 -0.0915  0.5727
   48MOL   C63348667   5.309   2.527   3.115 -0.2283 -0.1212 -1.6230
   48MOL   C63448668   5.409   2.466   3.021 -0.4048  0.2788 -0.2050
   48MOL   C63548669   5.203   2.451   3.174  0.2508 -0.1696 -1.1639
   48MOL   C63648670   5.113   2.509   3.261 -0.2183 -0.3137  0.1496
   48MOL   C63748671   4.780   2.735   3.410  0.1372  0.2009  0.3494
   48MOL   C63848672   4.646   2.718   3.375  0.1610 -0.1603 -0.4506
   48MOL   C63948673   4.433   2.713   2.999 -0.5531  0.1054  0.0545
   48MOL   C64048674   4.355   2.697   2.883 -0.1285 -0.6154 -0.4257
   48MOL   C64148675   4.068   2.722   2.566 -0.3950  0.2403  0.2662
   48MOL   C64248676   4.093   2.754   2.431 -0.8975  0.1829  0.8186
   48MOL   H64348677   4.155   2.863   2.200  0.5526  0.0312 -0.9851
   48MOL   H64448678   4.423   2.683   2.402 -0.3933  0.0720 -0.5757
   48MOL   H64548679   4.377   2.605   2.632  0.9076 -0.1099 -2.2826
   48MOL   H64648680   4.053   2.642   2.804 -0.1263  3.0751 -0.5727
   48MOL   H64748681   4.133   2.464   2.989  0.6168 -0.8143  1.0699
   48MOL   H64848682   4.264   2.463   3.176  1.5039 -0.1193  0.3888
   48MOL   H64948683   4.428   2.624   3.314  1.2843 -0.2691  0.9758
   48MOL   H65048684   4.685   2.634   3.051  4.2201 -0.6453 -0.4008
   48MOL   H65148685   4.928   2.676   3.118  1.4397 -2.6359  1.1205
   48MOL   H65248686   5.030   2.728   3.457  0.0528 -2.6128  0.3447
   48MOL   H65348687   5.234   2.823   3.279 -0.5849  0.0375 -0.2706
   48MOL   H65448688   5.395   2.728   3.115  0.3557 -1.3298  0.1825
   48MOL   H65548689   5.422   2.362   3.050  3.1420 -0.2284 -3.3519
   48MOL   H65648690   5.506   2.517   3.030 -1.0086  1.3844  0.1790
   48MOL   H65748691   5.190   2.347   3.150 -0.7552 -0.5293  0.9282
   48MOL   H65848692   5.037   2.447   3.305  0.9605 -0.2790  2.2548
   48MOL   H65948693   4.803   2.765   3.511 -0.1163  1.2580  0.1007
   48MOL   H66048694   4.573   2.747   3.448  0.8060  0.1512  0.0802
   48MOL   H66148695   4.516   2.782   3.001 -0.9791  0.6149  0.5235
   48MOL   H66248696   4.384   2.764   2.804  2.3278 -0.8635  0.2081
   48MOL   H66348697   3.965   2.719   2.599 -0.6218 -2.2363 -0.5573
   48MOL   H66448698   4.007   2.796   2.380  0.0845 -0.1159 -1.0958
   48MOL   N66548699   5.368   2.480   2.881  0.1166  0.1491  0.0889
   48MOL   C66648700   5.430   2.404   2.780  0.9663  0.3138  0.0798
   48MOL   C66748701   5.571   2.400   2.771  0.1378 -0.1604 -0.5310
   48MOL   C66848702   5.626   2.341   2.659  0.7731  0.6242  0.3972
   48MOL   C66948703   5.545   2.280   2.559 -0.0741  0.1534 -0.2189
   48MOL   N67048704   5.605   2.224   2.451 -0.1174 -0.2326  1.0873
   48MOL   C67148705   5.582   2.255   2.313  0.2114 -0.3662  0.1775
   48MOL   C67248706   5.640   2.179   2.211 -0.0782  0.0846 -0.2832
   48MOL   C67348707   5.608   2.197   2.073  0.4121 -0.5723 -0.2026
   48MOL   C67448708   5.520   2.299   2.034 -0.1104  0.1197 -0.3763
   48MOL   N67548709   5.509   2.318   1.898  0.1657 -0.4030 -0.2208
   48MOL   C67648710   5.400   2.355   1.823  0.7658 -0.2779  0.5207
   48MOL   C67748711   5.280   2.407   1.874 -0.1121  0.5404 -0.6788
   48MOL   C67848712   5.168   2.440   1.794  0.5495  0.9394  0.5701
   48MOL   C67948713   5.184   2.434   1.653 -0.7238  0.2528 -0.2249
   48MOL   N68048714   5.081   2.471   1.568  0.4157 -0.1149 -0.9174
   48MOL   C68148715   5.074   2.586   1.487 -0.5560 -0.0192  0.2535
   48MOL   C68248716   5.197   2.634   1.432 -0.4187  0.1287 -0.7251
   48MOL   C68348717   5.188   2.727   1.324  0.4941 -0.0079  0.0335
   48MOL   C68448718   5.065   2.788   1.291  0.7915 -0.3544 -0.0891
   48MOL   C68548719   5.060   2.912   1.195 -0.2214 -0.8560  0.3171
   48MOL   C68648720   4.944   2.752   1.354 -0.2974  0.4394  0.2579
   48MOL   C68748721   4.947   2.642   1.447  0.5536  0.5438  0.4851
   48MOL   C68848722   5.298   2.369   1.605  0.1173 -0.0833  0.1214
   48MOL   C68948723   5.408   2.339   1.686  0.7739 -0.3058  0.1427
   48MOL   C69048724   5.475   2.385   2.131 -0.3542  0.0422 -0.6464
   48MOL   C69148725   5.499   2.354   2.264  0.2356 -1.6507 -0.1892
   48MOL   C69248726   5.410   2.288   2.571  0.2840  0.0863 -0.3961
   48MOL   C69348727   5.349   2.350   2.683  0.5511  0.0406 -0.5153
   48MOL   H69448728   5.267   2.484   2.879  0.1218  1.0657  1.1558
   48MOL   H69548729   5.644   2.452   2.831  0.4552 -1.5641  0.3315
   48MOL   H69648730   5.733   2.339   2.643  1.0305  2.4359  1.7468
   48MOL   H69748731   5.690   2.171   2.470  0.0070 -1.3874 -2.4214
   48MOL   H69848732   5.699   2.091   2.234  1.6152  0.6125 -2.4132
   48MOL   H69948733   5.650   2.134   1.996 -1.8026 -0.6642 -1.3667
   48MOL   H70048734   5.592   2.297   1.844  0.0400 -1.3046 -0.0822
   48MOL   H70148735   5.264   2.409   1.981  0.6841 -1.0929 -0.5232
   48MOL   H70248736   5.078   2.486   1.832  0.4454  1.8393 -0.7194
   48MOL   H70348737   4.992   2.428   1.588  0.4828 -0.3671 -1.1676
   48MOL   H70448738   5.294   2.589   1.452 -0.2151  0.2348 -1.4659
   48MOL   H70548739   5.273   2.766   1.271 -0.0358  0.0785 -0.7569
   48MOL   H70648740   4.999   2.892   1.108  1.0484  1.0648 -1.0736
   48MOL   H70748741   5.164   2.930   1.167 -0.7998  0.2747 -1.1425
   48MOL   H70848742   4.845   2.781   1.321 -1.0490  0.7956  2.6993
   48MOL   H70948743   4.853   2.613   1.491  0.3629  1.1707  0.4972
   48MOL   H71048744   5.299   2.360   1.498  1.6788 -0.4130  0.1555
   48MOL   H71148745   5.494   2.295   1.637  0.0530 -1.0797 -0.4491
   48MOL   H71248746   5.425   2.479   2.112 -0.5756  0.2485  0.9129
   48MOL   H71348747   5.460   2.422   2.337  3.2610  0.3120 -0.3171
   48MOL   H71448748   5.346   2.270   2.486  1.4197 -0.4250 -1.1723
   48MOL   H71548749   5.243   2.363   2.697  0.6660  0.2731  0.1555
   48MOL   N71648750   5.000   3.035   1.243 -0.4847 -0.0381  0.3536
   48MOL   C71748751   5.021   3.086   1.371 -0.0217 -0.1475  0.8708
   48MOL   C71848752   4.909   3.153   1.438  0.5060  0.0756 -0.4893
   48MOL   C71948753   4.921   3.176   1.579  0.0728  0.0902 -0.5889
   48MOL   C72048754   5.043   3.138   1.654  0.8997 -0.4578  0.3393
   48MOL   N72148755   5.035   3.140   1.795  0.1004  0.4048  0.6005
   48MOL   C72248756   5.079   3.041   1.888  0.1912  0.5947  0.4329
   48MOL   C72348757   5.074   3.069   2.022 -0.0242 -0.4193  0.4592
   48MOL   C72448758   5.122   2.984   2.126  0.0236 -0.2288  0.1466
   48MOL   C72548759   5.174   2.858   2.088 -0.0177  0.0276 -0.4674
   48MOL   N72648760   5.196   2.752   2.177 -0.0705  0.1672  0.9035
   48MOL   C72748761   5.194   2.740   2.315  0.5192 -0.4544 -0.4805
   48MOL   C72848762   5.092   2.805   2.388  0.1566  0.2811  0.0585
   48MOL   C72948763   5.078   2.796   2.530  0.5221 -0.5294  0.0554
   48MOL   C73048764   5.174   2.717   2.595 -0.7357 -0.0387  0.9707
   48MOL   N73148765   5.169   2.713   2.738 -0.2861  0.1306  0.6671
   48MOL   C73248766   5.100   2.802   2.825  0.9092 -0.1155  0.4717
   48MOL   C73348767   4.962   2.798   2.827 -1.2703 -0.1137 -0.2341
   48MOL   C73448768   4.886   2.891   2.905  0.0668  0.8772 -0.2328
   48MOL   C73548769   4.946   2.991   2.979 -0.5082 -0.0760  0.5547
   48MOL   C73648770   4.863   3.077   3.071  0.8104  0.1642 -0.3413
   48MOL   C73748771   5.087   2.982   2.991  0.8668  0.5488 -0.4584
   48MOL   C73848772   5.164   2.897   2.908 -0.1655  0.2139  0.1945
   48MOL   C73948773   5.274   2.645   2.524 -0.3567  0.3305 -0.2054
   48MOL   C74048774   5.285   2.659   2.381 -0.2808 -0.0076 -0.2245
   48MOL   C74148775   5.178   2.827   1.951 -0.4025 -0.4273  0.4676
   48MOL   C74248776   5.134   2.913   1.851 -0.0327 -0.4687 -0.3625
   48MOL   C74348777   5.151   3.078   1.581  0.1559 -0.1036  0.0270
   48MOL   C74448778   5.142   3.058   1.439  0.3454  0.4667 -0.2145
   48MOL   H74548779   4.923   3.069   1.187 -2.5594  0.4547  3.3572
   48MOL   H74648780   4.816   3.174   1.387  1.3040  2.0597 -1.2124
   48MOL   H74748781   4.829   3.207   1.626  0.9158  0.4780  0.8231
   48MOL   H74848782   4.950   3.188   1.822 -0.1214  1.1484 -1.3579
   48MOL   H74948783   5.029   3.162   2.053 -0.2084 -0.1691 -0.5444
   48MOL   H75048784   5.117   3.017   2.229 -0.2113 -1.4593  0.5352
   48MOL   H75148785   5.227   2.666   2.134 -0.4788  0.2384  0.4630
   48MOL   H75248786   5.010   2.861   2.346 -1.9675 -1.8177  1.2514
   48MOL   H75348787   4.994   2.844   2.578  0.9810 -0.2990  0.6431
   48MOL   H75448788   5.263   2.703   2.775 -0.5543 -1.2618  1.0204
   48MOL   H75548789   4.910   2.721   2.772  0.5772 -0.5432 -1.4615
   48MOL   H75648790   4.779   2.881   2.907 -0.0657  1.4543 -2.7923
   48MOL   H75748791   4.772   3.017   3.082  1.0259  0.0990  1.2476
   48MOL   H75848792   4.839   3.163   3.009  3.2322  0.3871 -1.0429
   48MOL   H75948793   5.136   3.032   3.073 -0.5810 -0.1786  0.8768
   48MOL   H76048794   5.271   2.885   2.919 -0.2941  0.1994  1.4565
   48MOL   H76148795   5.332   2.574   2.580 -1.2828 -1.3146 -1.2836
   48MOL   H76248796   5.370   2.614   2.332  1.0619  0.1019  1.9384
   48MOL   H76348797   5.233   2.741   1.918  0.0453 -0.0038  0.0971
   48MOL   H76448798   5.143   2.883   1.748 -4.1518  2.5537 -1.7103
   48MOL   H76548799   5.243   3.050   1.630 -0.5069  0.4165  1.6106
   48MOL   H76648800   5.228   3.027   1.381  0.1035  1.8550 -1.3361
   48MOL   N76748801   4.939   3.129   3.186 -0.4999  0.0764 -0.5014
   48MOL   C76848802   4.844   3.164   3.284  0.3018  0.0621 -0.3230
   48MOL   C76948803   4.785   3.293   3.279  0.6904  0.9664  0.7010
   48MOL   C77048804   4.685   3.329   3.367  0.1464 -0.1961  0.7654
   48MOL   C77148805   4.647   3.236   3.473  0.1641  0.6347  0.5019
   48MOL   N77248806   4.544   3.277   3.558  0.2030 -0.2462  0.2468
   48MOL   C77348807   4.479   3.198   3.649  0.4710 -0.0793 -0.3630
   48MOL   C77448808   4.422   3.077   3.612 -0.1398  0.0599 -0.1818
   48MOL   C77548809   4.349   3.008   3.709 -0.0877  0.2217 -0.3054
   48MOL   C77648810   4.346   3.046   3.843  0.1229  0.0371  0.1541
   48MOL   N77748811   4.280   2.978   3.949 -0.6539  0.0962 -0.0692
   48MOL   C77848812   4.169   3.014   4.024 -0.3312  0.3605 -0.2190
   48MOL   C77948813   4.131   3.148   4.037  0.7085 -0.2155 -0.2098
   48MOL   C78048814   4.017   3.179   4.110  0.5301  0.2032  0.0846
   48MOL   C78148815   3.934   3.080   4.168  0.2718  0.2106  0.5316
   48MOL   N78248816   3.813   3.105   4.241 -0.1275  0.2602 -0.1129
   48MOL   C78348817   3.741   3.224   4.251  0.6500 -0.4555 -0.3140
   48MOL   C78448818   3.719   3.306   4.131 -0.1831 -0.1426 -0.3531
   48MOL   C78548819   3.655   3.431   4.133 -0.1373  0.7178 -0.4166
   48MOL   C78648820   3.584   3.476   4.252 -0.3840  0.6794  0.2326
   48MOL   C78748821   3.522   3.615   4.251  0.6510 -1.1374  0.2738
   48MOL   C78848822   3.594   3.393   4.367 -0.5303 -0.1159  0.7883
   48MOL   C78948823   3.683   3.277   4.369 -0.0326 -0.1824 -0.7190
   48MOL   C79048824   3.964   2.947   4.138  0.0509  0.3484  0.2504
   48MOL   C79148825   4.085   2.914   4.079 -0.4362  0.0049  0.1707
   48MOL   C79248826   4.414   3.168   3.879  0.6672  0.2414  0.2046
   48MOL   C79348827   4.471   3.245   3.783  0.5940  0.7498  0.4872
   48MOL   C79448828   4.709   3.109   3.482 -0.2845  0.0903 -0.2845
   48MOL   C79548829   4.806   3.074   3.387 -0.2131  0.3869 -0.2264
   48MOL   H79648830   5.004   3.056   3.215  1.6063  2.2542  0.4164
   48MOL   H79748831   4.817   3.365   3.205 -1.0052  0.3326 -0.6709
   48MOL   H79848832   4.632   3.424   3.362 -0.6924 -0.7187 -0.5160
   48MOL   H79948833   4.515   3.370   3.531  0.7396 -0.3132 -0.5940
   48MOL   H80048834   4.431   3.048   3.508 -1.2388  1.7281 -0.7687
   48MOL   H80148835   4.303   2.915   3.680 -0.7100  0.2441  0.6161
   48MOL   H80248836   4.292   2.879   3.931 -0.5081  0.1957 -0.5227
   48MOL   H80348837   4.181   3.228   3.983 -0.8845  0.1378 -1.1918
   48MOL   H80448838   3.987   3.282   4.122 -1.6605 -0.9256  5.3603
   48MOL   H80548839   3.766   3.025   4.283 -1.4333  1.2484  0.3617
   48MOL   H80648840   3.756   3.272   4.036  0.0226  0.0520 -0.3431
   48MOL   H80748841   3.653   3.481   4.038 -1.0626 -0.7472 -1.1850
   48MOL   H80848842   3.471   3.635   4.345  2.0652  2.7041  0.3126
   48MOL   H80948843   3.433   3.612   4.188  0.3958  1.8976  0.4079
   48MOL   H81048844   3.561   3.427   4.465 -0.3177 -0.7243  1.0716
   48MOL   H81148845   3.708   3.233   4.464 -0.3406  1.8431  0.3186
   48MOL   H81248846   3.904   2.869   4.181 -0.6135  1.0564  0.6191
   48MOL   H81348847   4.111   2.809   4.068 -1.0315 -0.2395  0.9993
   48MOL   H81448848   4.428   3.208   3.978 -1.6608 -0.0957  0.6904
   48MOL   H81548849   4.525   3.336   3.802 -0.0945  1.1965  0.3180
   48MOL   H81648850   4.689   3.033   3.556  0.8724 -0.1533 -0.2026
   48MOL   H81748851   4.849   2.975   3.395  0.1992  0.6798  1.3459
   48MOL   N81848852   3.600   3.724   4.202  0.0048  0.2819 -1.4510
   48MOL   C81948853   3.706   3.765   4.275 -0.6136  0.1528  0.2701
   48MOL   C82048854   3.751   3.695   4.388 -0.3354 -0.0272  0.1779
   48MOL   C82148855   3.863   3.738   4.464 -0.4076 -0.0372  0.3512
   48MOL   C82248856   3.928   3.856   4.430  0.6318 -0.1886  0.0414
   48MOL   N82348857   4.045   3.897   4.495 -0.1522  0.2479 -0.4677
   48MOL   C82448858   4.136   3.822   4.575 -1.1280  0.1523 -0.4397
   48MOL   C82548859   4.169   3.688   4.550  0.3245 -0.2779  0.7684
   48MOL   C82648860   4.276   3.610   4.602  0.2096 -0.0100 -0.7288
   48MOL   C82748861   4.342   3.665   4.709  0.3166 -0.1119 -0.5872
   48MOL   N82848862   4.440   3.592   4.783  0.3083 -0.0554 -0.2822
   48MOL   C82948863   4.430   3.470   4.849 -0.5667 -0.0076 -0.2684
   48MOL   C83048864   4.542   3.421   4.925 -0.2001 -0.6162  0.3785
   48MOL   C83148865   4.531   3.301   4.997 -0.1176  0.6623  0.2223
   48MOL   C83248866   4.419   3.223   4.990  0.3066 -0.5281  0.9632
   48MOL   N83348867   4.412   3.102   5.067 -0.0789  0.5835  0.6157
   48MOL   C83448868   4.309   3.014   5.058  0.4532  0.5648 -0.1371
   48MOL   C83548869   4.219   3.014   5.172  0.6129 -0.1594 -0.2780
   48MOL   C83648870   4.105   2.935   5.162  0.3164 -0.1324  0.0015
   48MOL   C83748871   4.077   2.853   5.049 -0.4621 -0.9626 -0.2015
   48MOL   C83848872   3.943   2.778   5.036 -0.4659 -0.0401 -0.2588
   48MOL   C83948873   4.166   2.859   4.942  0.4887 -0.5483  0.3178
   48MOL   C84048874   4.285   2.938   4.943 -0.3823  0.0722 -0.0499
   48MOL   C84148875   4.308   3.269   4.915 -0.1898 -0.0149 -0.3424
   48MOL   C84248876   4.314   3.392   4.848  0.0116 -0.9311  0.0921
   48MOL   C84348877   4.324   3.802   4.731  0.3886  0.1346  0.0266
   48MOL   C84448878   4.226   3.882   4.662  0.2099 -0.0712  0.2676
   48MOL   C84548879   3.883   3.934   4.323  0.0617 -0.6441  0.0853
   48MOL   C84648880   3.775   3.885   4.244  0.0597 -0.8250 -0.2841
   48MOL   H84748881   3.555   3.790   4.140 -2.4514 -2.5744 -2.8251
   48MOL   H84848882   3.711   3.599   4.417  1.3492 -1.0535 -0.7702
   48MOL   H84948883   3.898   3.677   4.546 -0.6134 -1.3483 -0.5033
   48MOL   H85048884   4.066   3.996   4.492 -1.0648  0.5158  1.4401
   48MOL   H85148885   4.097   3.644   4.483 -0.7633  1.9522  0.4442
   48MOL   H85248886   4.307   3.514   4.564 -0.0585 -0.2321 -0.3936
   48MOL   H85348887   4.517   3.654   4.805 -0.0243  0.0463  0.6255
   48MOL   H85448888   4.632   3.481   4.931  0.8430 -1.7602 -2.7848
   48MOL   H85548889   4.607   3.270   5.067  0.6242  2.2398  0.1488
   48MOL   H85648890   4.466   3.107   5.153 -0.4498  1.1281  0.8193
   48MOL   H85748891   4.236   3.073   5.260 -1.6702 -0.1727  0.2042
   48MOL   H85848892   4.030   2.932   5.240 -0.3069  0.4783 -0.5772
   48MOL   H85948893   3.957   2.677   5.000  1.1156 -0.3252  1.0966
   48MOL   H86048894   3.883   2.820   4.955  0.2775 -0.5611 -1.0777
   48MOL   H86148895   4.144   2.800   4.854 -2.2176  1.7283 -0.5722
   48MOL   H86248896   4.356   2.941   4.862 -0.1434  0.0903  0.1618
   48MOL   H86348897   4.213   3.218   4.910 -2.1358  2.9858  3.3076
   48MOL   H86448898   4.224   3.429   4.801  0.3737  1.6375  1.3665
   48MOL   H86548899   4.391   3.847   4.804  0.2040 -0.8254  0.7979
   48MOL   H86648900   4.228   3.988   4.679 -1.3938  0.0457 -0.1476
   48MOL   H86748901   3.931   4.025   4.293  3.3892 -1.6238  2.1016
   48MOL   H86848902   3.747   3.944   4.158  1.8830  1.6738  0.7448
   48MOL   N86948903   3.855   2.771   5.158  0.0157 -0.9300 -0.9906
   48MOL   C87048904   3.889   2.678   5.256 -0.2632  0.0879  0.1310
   48MOL   C87148905   3.803   2.669   5.368 -0.2922  0.1723 -0.1739
   48MOL   C87248906   3.830   2.588   5.477 -0.2301 -0.0264 -0.0424
   48MOL   C87348907   3.937   2.499   5.477  0.8590  0.1188  0.7521
   48MOL   N87448908   3.966   2.417   5.588  0.2612  0.5605 -0.1622
   48MOL   C87548909   3.881   2.364   5.681 -0.6195  0.1955  0.0775
   48MOL   C87648910   3.754   2.325   5.644  0.0500  0.1175  0.2889
   48MOL   C87748911   3.679   2.253   5.737  0.3501  0.0664  0.2435
   48MOL   C87848912   3.712   2.240   5.870  0.2842 -0.1300 -0.2913
   48MOL   N87948913   3.632   2.172   5.967 -0.4395  0.1639 -0.8906
   48MOL   C88048914   3.552   2.065   5.940 -0.0046  0.9759  1.0189
   48MOL   C88148915   3.587   1.954   5.859 -0.0046 -0.1039  0.2319
   48MOL   C88248916   3.488   1.859   5.819 -0.6558  0.5973 -0.1884
   48MOL   C88348917   3.356   1.869   5.866  0.1036  0.2197 -0.0619
   48MOL   N88448918   3.249   1.792   5.824  1.1110 -0.5122  0.0781
   48MOL   C88548919   3.258   1.655   5.797 -0.0698  0.3051  0.4072
   48MOL   C88648920   3.357   1.575   5.867  0.0638  0.4216 -0.0727
   48MOL   C88748921   3.361   1.437   5.836 -0.9118  0.2272  0.1740
   48MOL   C88848922   3.274   1.382   5.753  0.1266 -0.2833 -0.2977
   48MOL   C88948923   3.275   1.231   5.721 -0.1214 -0.4850  0.1396
   48MOL   C89048924   3.169   1.460   5.695  0.0374  0.0674 -0.0525
   48MOL   C89148925   3.157   1.596   5.718 -0.4832 -0.5163  0.0420
   48MOL   C89248926   3.320   1.977   5.949 -0.5628  0.1463 -1.0799
   48MOL   C89348927   3.415   2.074   5.979 -0.1994 -0.0140  0.4666
   48MOL   C89448928   3.833   2.298   5.910 -0.1014 -0.6264 -0.9131
   48MOL   C89548929   3.921   2.355   5.812 -0.0919  0.0292 -0.0331
   48MOL   C89648930   4.029   2.506   5.364  0.1943 -0.1508 -0.4020
   48MOL   C89748931   4.009   2.596   5.259 -0.3481 -0.8413  0.3995
   48MOL   H89848932   3.759   2.802   5.149 -0.4214 -1.9557  0.0294
   48MOL   H89948933   3.720   2.736   5.382 -1.1834 -0.9477 -0.0479
   48MOL   H90048934   3.763   2.588   5.562  0.9235 -1.5408  0.8971
   48MOL   H90148935   4.058   2.375   5.586  0.5380  1.1541  0.1247
   48MOL   H90248936   3.728   2.338   5.540 -0.0361 -1.4616  0.1061
   48MOL   H90348937   3.574   2.235   5.719 -0.0741  0.9842  1.6482
   48MOL   H90448938   3.669   2.174   6.061 -0.0868 -1.4473 -0.9815
   48MOL   H90548939   3.685   1.939   5.817 -0.4923  0.3682 -1.0927
   48MOL   H90648940   3.524   1.778   5.757 -1.2631 -0.8914  1.3725
   48MOL   H90748941   3.172   1.842   5.783  1.7062 -0.7099 -1.3005
   48MOL   H90848942   3.434   1.625   5.923 -1.1379  1.5243  0.6189
   48MOL   H90948943   3.431   1.368   5.881  0.7205  1.5345 -0.3313
   48MOL   H91048944   3.368   1.180   5.749 -2.3974 -2.8773  3.8204
   48MOL   H91148945   3.261   1.218   5.614 -2.4142 -2.7558  0.6759
   48MOL   H91248946   3.099   1.409   5.631  0.4021  0.3258 -0.6567
   48MOL   H91348947   3.078   1.660   5.680 -0.5554 -1.0329 -0.6694
   48MOL   H91448948   3.218   1.989   5.984 -0.9236 -0.3980 -1.9152
   48MOL   H91548949   3.391   2.162   6.038 -0.6347 -0.0359  0.3240
   48MOL   H91648950   3.879   2.277   6.005  1.5325 -0.4346 -1.6509
   48MOL   H91748951   4.022   2.381   5.842 -0.3454 -0.2311  1.0659
   48MOL   H91848952   4.117   2.445   5.358 -0.8362 -1.8543  1.2507
   48MOL   H91948953   4.092   2.597   5.190 -0.6454 -0.3311  0.0499
   48MOL   N92048954   3.174   1.160   5.807  0.2957 -0.1858 -0.0622
   48MOL   C92148955   3.133   1.028   5.799  0.2775 -0.2342  0.1168
   48MOL   C92248956   3.009   0.987   5.851 -0.2984  0.3216  0.7113
   48MOL   C92348957   2.966   0.851   5.838 -0.2888  0.3305  0.2856
   48MOL   C92448958   3.041   0.755   5.764 -0.4567 -0.2347  0.4144
   48MOL   N92548959   3.007   0.623   5.757  0.5076  0.5682 -0.2365
   48MOL   C92648960   3.036   0.529   5.661  0.2329  0.1325 -0.1323
   48MOL   C92748961   3.090   0.411   5.720 -0.0583  0.1533 -0.4886
   48MOL   C92848962   3.118   0.304   5.633  0.0489  0.8230 -0.0130
   48MOL   C92948963   3.091   0.316   5.500 -0.2665 -0.4705 -0.6193
   48MOL   N93048964   3.136   0.213   5.413  0.9524 -0.0757  0.3186
   48MOL   C93148965   3.046   0.138   5.335 -0.5322  0.3646 -1.0233
   48MOL   C93248966   3.088   0.084   5.214 -0.3090 -0.1739 -0.7333
   48MOL   C93348967   2.991   0.015   5.142 -0.1346 -0.1934  0.0795
   48MOL   C93448968   2.858   7.981   5.179  0.2341 -0.0963 -0.8196
   48MOL   N93548969   2.776   7.898   5.098 -0.4261  0.3352  0.2000
   48MOL   C93648970   2.638   7.879   5.107  0.1100  0.4856 -0.1600
   48MOL   C93748971   2.547   7.971   5.162 -0.7140 -0.6208  0.1804
   48MOL   C93848972   2.410   7.936   5.183 -0.0939  0.0225  1.5327
   48MOL   C93948973   2.366   7.805   5.148 -0.3283 -0.4867  0.2288
   48MOL   C94048974   2.228   7.750   5.188 -0.0974  0.2286 -0.1196
   48MOL   C94148975   2.454   7.721   5.076  0.4406  0.3423  0.3315
   48MOL   C94248976   2.587   7.761   5.056 -0.2076  0.2314  0.3479
   48MOL   C94348977   2.818   0.050   5.305 -0.6805 -0.0118  0.0027
   48MOL   C94448978   2.912   0.116   5.378  0.0305  0.7093 -0.1934
   48MOL   C94548979   3.036   0.430   5.439 -0.1623 -0.1710 -0.1304
   48MOL   C94648980   3.007   0.541   5.521  0.8576  0.3876 -1.0170
   48MOL   C94748981   3.161   0.796   5.707  0.1861 -0.4010  0.4010
   48MOL   C94848982   3.207   0.929   5.725 -0.7063 -0.3913  0.5521
   48MOL   H94948983   3.133   1.211   5.884  0.9172 -0.6358  0.5768
   48MOL   H95048984   2.938   1.058   5.892 -0.8184  0.2331 -0.0210
   48MOL   H95148985   2.882   0.808   5.890  1.1524 -1.2200  1.3956
   48MOL   H95248986   3.022   0.591   5.851 -3.2215 -0.5533  0.0462
   48MOL   H95348987   3.109   0.397   5.825 -0.6697  1.6836 -0.1677
   48MOL   H95448988   3.152   0.208   5.667 -1.1409 -0.6003 -2.7307
   48MOL   H95548989   3.232   0.184   5.405  0.5051 -1.1080 -1.6380
   48MOL   H95648990   3.183   0.113   5.170 -0.7773 -1.0211 -2.3622
   48MOL   H95748991   3.033   7.950   5.055 -2.6040 -2.0376 -0.1693
   48MOL   H95848992   2.821   7.834   5.033  1.5535 -0.9772  2.7886
   48MOL   H95948993   2.580   0.088   5.190  1.3734 -1.2496  0.0008
   48MOL   H96048994   2.345   0.030   5.223 -0.1506 -0.5380  2.5343
   48MOL   H96148995   2.179   7.829   5.246  1.3900  1.5762 -0.6406
   48MOL   H96248996   2.236   7.656   5.243  0.0682  0.4108  0.1720
   48MOL   H96348997   2.422   7.620   5.053  0.6988  0.4796 -0.6639
   48MOL   H96448998   2.648   7.690   5.003 -1.9583 -1.5501  0.6318
   48MOL   H96548999   2.725   0.023   5.353  0.4444  0.8174  2.7807
   48MOL   H96649000   2.878   0.144   5.476  0.1807  2.9866 -0.7751
   48MOL   H96749001   3.019   0.431   5.333  1.4858  0.1278 -0.4036
   48MOL   H96849002   2.986   0.638   5.479 -0.9922  0.6621  0.4498
   48MOL   H96949003   3.228   0.734   5.649 -2.7457 -2.4082 -0.9707
   48MOL   H97049004   3.297   0.956   5.673 -0.1732 -2.4643  0.3739
   48MOL   N97149005   2.147   7.726   5.063  0.2079 -0.2726  0.6820
   48MOL   C97249006   2.010   7.719   5.084  0.4929 -0.4133 -0.3007
   48MOL   C97349007   1.944   7.710   5.215  0.0875 -0.1205  0.3155
   48MOL   C97449008   1.802   7.697   5.220  0.3381 -0.1541 -0.3434
   48MOL   C97549009   1.726   7.699   5.099 -0.1495 -0.6455 -0.4925
   48MOL   N97649010   1.592   7.666   5.108 -0.9992  0.4022  0.2189
   48MOL   C97749011   1.497   7.681   5.009  0.2466  0.2007 -0.1384
   48MOL   C97849012   1.495   7.786   4.922  0.9421 -0.5536  0.2411
   48MOL   C97949013   1.415   7.789   4.806 -0.2130  0.7516  0.1456
   48MOL   C98049014   1.315   7.695   4.796 -0.8869 -0.3737  0.1849
   48MOL   N98149015   1.234   7.677   4.684  0.2298  0.4946 -0.0854
   48MOL   C98249016   1.212   7.765   4.576  0.6031  0.1123 -0.1692
   48MOL   C98349017   1.193   7.720   4.440  0.4057 -0.2838  0.3148
   48MOL   C98449018   1.161   7.819   4.345 -0.4978  0.0358 -0.0161
   48MOL   C98549019   1.142   7.956   4.375  0.7574  0.1687  0.1930
   48MOL   N98649020   1.114   0.062   4.266  0.2158  0.4913 -0.0476
   48MOL   C98749021   1.155   0.194   4.261  0.3206  0.1083 -0.4668
   48MOL   C98849022   1.266   0.247   4.335  0.6368 -0.3170 -0.1646
   48MOL   C98949023   1.319   0.377   4.306  0.6442  0.5125 -0.1332
   48MOL   C99049024   1.253   0.454   4.213 -0.5929  0.4015  0.3160
   48MOL   C99149025   1.325   0.591   4.186 -0.2045 -0.0457  0.6041
   48MOL   C99249026   1.138   0.406   4.148 -0.2523 -0.2791  0.8412
   48MOL   C99349027   1.089   0.278   4.167  0.3738 -0.0773  0.7270
   48MOL   C99449028   1.160   0.015   4.507  0.0154  0.1374 -0.1301
   48MOL   C99549029   1.192   7.903   4.605 -0.2236  0.4970  0.5252
   48MOL   C99649030   1.294   7.614   4.907 -0.9320  0.3710  0.1579
   48MOL   C99749031   1.386   7.594   5.008 -0.3237 -0.9000 -1.0163
   48MOL   C99849032   1.792   7.711   4.972 -0.2382 -0.1096 -1.2137
   48MOL   C99949033   1.934   7.723   4.968  0.3488  0.2812  0.7001
   48MOL     H149034   2.181   7.764   4.975  1.3845  0.2275  1.3415
   48MOL     H249035   1.994   7.690   5.308  0.8765  2.4244  0.4729
   48MOL     H349036   1.754   7.697   5.316  2.5619 -1.9218  0.8269
   48MOL     H449037   1.558   7.629   5.196 -2.9445 -0.5833 -0.9126
   48MOL     H549038   1.563   7.869   4.931  1.0622 -0.8116  1.7622
   48MOL     H649039   1.435   7.865   4.732 -0.0803  0.9494  0.3854
   48MOL     H749040   1.191   7.587   4.670  1.6165 -0.0531 -0.9244
   48MOL     H849041   1.196   7.616   4.412 -0.1335 -0.0033 -0.7918
   48MOL     H949042   1.132   7.778   4.249 -1.6701  0.9101 -0.0467
   48MOL    H1049043   1.059   0.023   4.191 -0.3375  1.0158  0.0843
   48MOL    H1149044   1.327   0.192   4.405  1.9832 -1.4457 -2.1907
   48MOL    H1249045   1.406   0.413   4.360 -0.2222  0.0112  1.6421
   48MOL    H1349046   1.427   0.592   4.225  2.1573 -3.4289 -4.7558
   48MOL    H1449047   1.262   0.661   4.239  0.1687  1.1491 -0.5025
   48MOL    H1549048   1.093   0.482   4.084  0.5982 -2.8917 -3.0608
   48MOL    H1649049   1.000   0.252   4.112  0.2799  0.1348  0.7789
   48MOL    H1749050   1.146   0.115   4.546  1.4515 -1.0388  3.5941
   48MOL    H1849051   1.195   7.937   4.707  0.2146 -0.2890  0.7788
   48MOL    H1949052   1.207   7.550   4.911 -0.0821 -0.7222  1.6627
   48MOL    H2049053   1.367   7.514   5.078 -1.4943 -0.5822 -0.9567
   48MOL    H2149054   1.743   7.734   4.879  1.5761  0.0521 -2.1574
   48MOL    H2249055   1.985   7.734   4.874 -0.1999  0.6128  0.4401
   48MOL    H2349056   1.328   0.611   4.079 -1.5375 -0.1198  0.5517
   7.98212   7.98212   7.98212
