;
; Gromacs include topology (itp) file.
; For Molecular Group XYZ
; Force field scheme: opls2005
; Produced from DL_FIELD v4.11
;


[ moleculetype ]
; name    nrexcl
XYZ    3

[ atoms ]
; nr   type   resnr   residu    atom    cgnr    charge    mass
    1        NE    1  MOL      N1     1  -0.9000000   14.0067
    2        CA    1  MOL      C2     2   0.1800000   12.0115
    3        CA    1  MOL      C3     3  -0.1150000   12.0115
    4        CA    1  MOL      C4     4  -0.1150000   12.0115
    5        CA    1  MOL      C5     5   0.2000000   12.0115
    6        NE    1  MOL      N6     6  -0.7800000   14.0067
    7        CA    1  MOL      C7     7   0.2000000   12.0115
    8        CA    1  MOL      C8     8  -0.1150000   12.0115
    9        CA    1  MOL      C9     9  -0.1150000   12.0115
   10        CA    1  MOL     C10    10   0.2000000   12.0115
   11        NE    1  MOL     N11    11  -0.7800000   14.0067
   12        CA    1  MOL     C12    12   0.2000000   12.0115
   13        CA    1  MOL     C13    13  -0.1150000   12.0115
   14        CA    1  MOL     C14    14  -0.1150000   12.0115
   15        CA    1  MOL     C15    15   0.2000000   12.0115
   16        NE    1  MOL     N16    16  -0.7800000   14.0067
   17        CA    1  MOL     C17    17   0.2000000   12.0115
   18        CA    1  MOL     C18    18  -0.1150000   12.0115
   19        CA    1  MOL     C19    19  -0.1150000   12.0115
   20        CA    1  MOL     C20    20  -0.1150000   12.0115
   21        CT    1  MOL     C21    21   0.1950000   12.0115
   22        CA    1  MOL     C22    22  -0.1150000   12.0115
   23        CA    1  MOL     C23    23  -0.1150000   12.0115
   24        CA    1  MOL     C24    24  -0.1150000   12.0115
   25        CA    1  MOL     C25    25  -0.1150000   12.0115
   26        CA    1  MOL     C26    26  -0.1150000   12.0115
   27        CA    1  MOL     C27    27  -0.1150000   12.0115
   28        CA    1  MOL     C28    28  -0.1150000   12.0115
   29        CA    1  MOL     C29    29  -0.1150000   12.0115
   30         H    1  MOL     H30    30   0.3600000    1.0080
   31        HA    1  MOL     H31    31   0.1150000    1.0080
   32        HA    1  MOL     H32    32   0.1150000    1.0080
   33         H    1  MOL     H33    33   0.3800000    1.0080
   34        HA    1  MOL     H34    34   0.1150000    1.0080
   35        HA    1  MOL     H35    35   0.1150000    1.0080
   36         H    1  MOL     H36    36   0.3800000    1.0080
   37        HA    1  MOL     H37    37   0.1150000    1.0080
   38        HA    1  MOL     H38    38   0.1150000    1.0080
   39         H    1  MOL     H39    39   0.3800000    1.0080
   40        HA    1  MOL     H40    40   0.1150000    1.0080
   41        HA    1  MOL     H41    41   0.1150000    1.0080
   42        HC    1  MOL     H42    42   0.0600000    1.0080
   43        HC    1  MOL     H43    43   0.0600000    1.0080
   44        HA    1  MOL     H44    44   0.1150000    1.0080
   45        HA    1  MOL     H45    45   0.1150000    1.0080
   46        HA    1  MOL     H46    46   0.1150000    1.0080
   47        HA    1  MOL     H47    47   0.1150000    1.0080
   48        HA    1  MOL     H48    48   0.1150000    1.0080
   49        HA    1  MOL     H49    49   0.1150000    1.0080
   50        HA    1  MOL     H50    50   0.1150000    1.0080
   51        HA    1  MOL     H51    51   0.1150000    1.0080
   52         H    1  MOL     H52    52   0.3600000    1.0080
   53        NE    1  MOL     N53    53  -0.7800000   14.0067
   54        CA    1  MOL     C54    54   0.2000000   12.0115
   55        CA    1  MOL     C55    55  -0.1150000   12.0115
   56        CA    1  MOL     C56    56  -0.1150000   12.0115
   57        CA    1  MOL     C57    57   0.2000000   12.0115
   58        NE    1  MOL     N58    58  -0.7800000   14.0067
   59        CA    1  MOL     C59    59   0.2000000   12.0115
   60        CA    1  MOL     C60    60  -0.1150000   12.0115
   61        CA    1  MOL     C61    61  -0.1150000   12.0115
   62        CA    1  MOL     C62    62   0.2000000   12.0115
   63        NE    1  MOL     N63    63  -0.7800000   14.0067
   64        CA    1  MOL     C64    64   0.2000000   12.0115
   65        CA    1  MOL     C65    65  -0.1150000   12.0115
   66        CA    1  MOL     C66    66  -0.1150000   12.0115
   67        CA    1  MOL     C67    67   0.2000000   12.0115
   68        NE    1  MOL     N68    68  -0.7800000   14.0067
   69        CA    1  MOL     C69    69   0.2000000   12.0115
   70        CA    1  MOL     C70    70  -0.1150000   12.0115
   71        CA    1  MOL     C71    71  -0.1150000   12.0115
   72        CA    1  MOL     C72    72  -0.1150000   12.0115
   73        CT    1  MOL     C73    73   0.1950000   12.0115
   74        CA    1  MOL     C74    74  -0.1150000   12.0115
   75        CA    1  MOL     C75    75  -0.1150000   12.0115
   76        CA    1  MOL     C76    76  -0.1150000   12.0115
   77        CA    1  MOL     C77    77  -0.1150000   12.0115
   78        CA    1  MOL     C78    78  -0.1150000   12.0115
   79        CA    1  MOL     C79    79  -0.1150000   12.0115
   80        CA    1  MOL     C80    80  -0.1150000   12.0115
   81        CA    1  MOL     C81    81  -0.1150000   12.0115
   82         H    1  MOL     H82    82   0.3800000    1.0080
   83        HA    1  MOL     H83    83   0.1150000    1.0080
   84        HA    1  MOL     H84    84   0.1150000    1.0080
   85         H    1  MOL     H85    85   0.3800000    1.0080
   86        HA    1  MOL     H86    86   0.1150000    1.0080
   87        HA    1  MOL     H87    87   0.1150000    1.0080
   88         H    1  MOL     H88    88   0.3800000    1.0080
   89        HA    1  MOL     H89    89   0.1150000    1.0080
   90        HA    1  MOL     H90    90   0.1150000    1.0080
   91         H    1  MOL     H91    91   0.3800000    1.0080
   92        HA    1  MOL     H92    92   0.1150000    1.0080
   93        HA    1  MOL     H93    93   0.1150000    1.0080
   94        HC    1  MOL     H94    94   0.0600000    1.0080
   95        HC    1  MOL     H95    95   0.0600000    1.0080
   96        HA    1  MOL     H96    96   0.1150000    1.0080
   97        HA    1  MOL     H97    97   0.1150000    1.0080
   98        HA    1  MOL     H98    98   0.1150000    1.0080
   99        HA    1  MOL     H99    99   0.1150000    1.0080
  100        HA    1  MOL    H100   100   0.1150000    1.0080
  101        HA    1  MOL    H101   101   0.1150000    1.0080
  102        HA    1  MOL    H102   102   0.1150000    1.0080
  103        HA    1  MOL    H103   103   0.1150000    1.0080
  104        NE    1  MOL    N104   104  -0.7800000   14.0067
  105        CA    1  MOL    C105   105   0.2000000   12.0115
  106        CA    1  MOL    C106   106  -0.1150000   12.0115
  107        CA    1  MOL    C107   107  -0.1150000   12.0115
  108        CA    1  MOL    C108   108   0.2000000   12.0115
  109        NE    1  MOL    N109   109  -0.7800000   14.0067
  110        CA    1  MOL    C110   110   0.2000000   12.0115
  111        CA    1  MOL    C111   111  -0.1150000   12.0115
  112        CA    1  MOL    C112   112  -0.1150000   12.0115
  113        CA    1  MOL    C113   113   0.2000000   12.0115
  114        NE    1  MOL    N114   114  -0.7800000   14.0067
  115        CA    1  MOL    C115   115   0.2000000   12.0115
  116        CA    1  MOL    C116   116  -0.1150000   12.0115
  117        CA    1  MOL    C117   117  -0.1150000   12.0115
  118        CA    1  MOL    C118   118   0.2000000   12.0115
  119        NE    1  MOL    N119   119  -0.7800000   14.0067
  120        CA    1  MOL    C120   120   0.2000000   12.0115
  121        CA    1  MOL    C121   121  -0.1150000   12.0115
  122        CA    1  MOL    C122   122  -0.1150000   12.0115
  123        CA    1  MOL    C123   123  -0.1150000   12.0115
  124        CT    1  MOL    C124   124   0.1950000   12.0115
  125        CA    1  MOL    C125   125  -0.1150000   12.0115
  126        CA    1  MOL    C126   126  -0.1150000   12.0115
  127        CA    1  MOL    C127   127  -0.1150000   12.0115
  128        CA    1  MOL    C128   128  -0.1150000   12.0115
  129        CA    1  MOL    C129   129  -0.1150000   12.0115
  130        CA    1  MOL    C130   130  -0.1150000   12.0115
  131        CA    1  MOL    C131   131  -0.1150000   12.0115
  132        CA    1  MOL    C132   132  -0.1150000   12.0115
  133         H    1  MOL    H133   133   0.3800000    1.0080
  134        HA    1  MOL    H134   134   0.1150000    1.0080
  135        HA    1  MOL    H135   135   0.1150000    1.0080
  136         H    1  MOL    H136   136   0.3800000    1.0080
  137        HA    1  MOL    H137   137   0.1150000    1.0080
  138        HA    1  MOL    H138   138   0.1150000    1.0080
  139         H    1  MOL    H139   139   0.3800000    1.0080
  140        HA    1  MOL    H140   140   0.1150000    1.0080
  141        HA    1  MOL    H141   141   0.1150000    1.0080
  142         H    1  MOL    H142   142   0.3800000    1.0080
  143        HA    1  MOL    H143   143   0.1150000    1.0080
  144        HA    1  MOL    H144   144   0.1150000    1.0080
  145        HC    1  MOL    H145   145   0.0600000    1.0080
  146        HC    1  MOL    H146   146   0.0600000    1.0080
  147        HA    1  MOL    H147   147   0.1150000    1.0080
  148        HA    1  MOL    H148   148   0.1150000    1.0080
  149        HA    1  MOL    H149   149   0.1150000    1.0080
  150        HA    1  MOL    H150   150   0.1150000    1.0080
  151        HA    1  MOL    H151   151   0.1150000    1.0080
  152        HA    1  MOL    H152   152   0.1150000    1.0080
  153        HA    1  MOL    H153   153   0.1150000    1.0080
  154        HA    1  MOL    H154   154   0.1150000    1.0080
  155        NE    1  MOL    N155   155  -0.7800000   14.0067
  156        CA    1  MOL    C156   156   0.2000000   12.0115
  157        CA    1  MOL    C157   157  -0.1150000   12.0115
  158        CA    1  MOL    C158   158  -0.1150000   12.0115
  159        CA    1  MOL    C159   159   0.2000000   12.0115
  160        NE    1  MOL    N160   160  -0.7800000   14.0067
  161        CA    1  MOL    C161   161   0.2000000   12.0115
  162        CA    1  MOL    C162   162  -0.1150000   12.0115
  163        CA    1  MOL    C163   163  -0.1150000   12.0115
  164        CA    1  MOL    C164   164   0.2000000   12.0115
  165        NE    1  MOL    N165   165  -0.7800000   14.0067
  166        CA    1  MOL    C166   166   0.2000000   12.0115
  167        CA    1  MOL    C167   167  -0.1150000   12.0115
  168        CA    1  MOL    C168   168  -0.1150000   12.0115
  169        CA    1  MOL    C169   169   0.2000000   12.0115
  170        NE    1  MOL    N170   170  -0.7800000   14.0067
  171        CA    1  MOL    C171   171   0.2000000   12.0115
  172        CA    1  MOL    C172   172  -0.1150000   12.0115
  173        CA    1  MOL    C173   173  -0.1150000   12.0115
  174        CA    1  MOL    C174   174  -0.1150000   12.0115
  175        CT    1  MOL    C175   175   0.1950000   12.0115
  176        CA    1  MOL    C176   176  -0.1150000   12.0115
  177        CA    1  MOL    C177   177  -0.1150000   12.0115
  178        CA    1  MOL    C178   178  -0.1150000   12.0115
  179        CA    1  MOL    C179   179  -0.1150000   12.0115
  180        CA    1  MOL    C180   180  -0.1150000   12.0115
  181        CA    1  MOL    C181   181  -0.1150000   12.0115
  182        CA    1  MOL    C182   182  -0.1150000   12.0115
  183        CA    1  MOL    C183   183  -0.1150000   12.0115
  184         H    1  MOL    H184   184   0.3800000    1.0080
  185        HA    1  MOL    H185   185   0.1150000    1.0080
  186        HA    1  MOL    H186   186   0.1150000    1.0080
  187         H    1  MOL    H187   187   0.3800000    1.0080
  188        HA    1  MOL    H188   188   0.1150000    1.0080
  189        HA    1  MOL    H189   189   0.1150000    1.0080
  190         H    1  MOL    H190   190   0.3800000    1.0080
  191        HA    1  MOL    H191   191   0.1150000    1.0080
  192        HA    1  MOL    H192   192   0.1150000    1.0080
  193         H    1  MOL    H193   193   0.3800000    1.0080
  194        HA    1  MOL    H194   194   0.1150000    1.0080
  195        HA    1  MOL    H195   195   0.1150000    1.0080
  196        HC    1  MOL    H196   196   0.0600000    1.0080
  197        HC    1  MOL    H197   197   0.0600000    1.0080
  198        HA    1  MOL    H198   198   0.1150000    1.0080
  199        HA    1  MOL    H199   199   0.1150000    1.0080
  200        HA    1  MOL    H200   200   0.1150000    1.0080
  201        HA    1  MOL    H201   201   0.1150000    1.0080
  202        HA    1  MOL    H202   202   0.1150000    1.0080
  203        HA    1  MOL    H203   203   0.1150000    1.0080
  204        HA    1  MOL    H204   204   0.1150000    1.0080
  205        HA    1  MOL    H205   205   0.1150000    1.0080
  206        NE    1  MOL    N206   206  -0.7800000   14.0067
  207        CA    1  MOL    C207   207   0.2000000   12.0115
  208        CA    1  MOL    C208   208  -0.1150000   12.0115
  209        CA    1  MOL    C209   209  -0.1150000   12.0115
  210        CA    1  MOL    C210   210   0.2000000   12.0115
  211        NE    1  MOL    N211   211  -0.7800000   14.0067
  212        CA    1  MOL    C212   212   0.2000000   12.0115
  213        CA    1  MOL    C213   213  -0.1150000   12.0115
  214        CA    1  MOL    C214   214  -0.1150000   12.0115
  215        CA    1  MOL    C215   215   0.2000000   12.0115
  216        NE    1  MOL    N216   216  -0.7800000   14.0067
  217        CA    1  MOL    C217   217   0.2000000   12.0115
  218        CA    1  MOL    C218   218  -0.1150000   12.0115
  219        CA    1  MOL    C219   219  -0.1150000   12.0115
  220        CA    1  MOL    C220   220   0.2000000   12.0115
  221        NE    1  MOL    N221   221  -0.7800000   14.0067
  222        CA    1  MOL    C222   222   0.2000000   12.0115
  223        CA    1  MOL    C223   223  -0.1150000   12.0115
  224        CA    1  MOL    C224   224  -0.1150000   12.0115
  225        CA    1  MOL    C225   225  -0.1150000   12.0115
  226        CT    1  MOL    C226   226   0.1950000   12.0115
  227        CA    1  MOL    C227   227  -0.1150000   12.0115
  228        CA    1  MOL    C228   228  -0.1150000   12.0115
  229        CA    1  MOL    C229   229  -0.1150000   12.0115
  230        CA    1  MOL    C230   230  -0.1150000   12.0115
  231        CA    1  MOL    C231   231  -0.1150000   12.0115
  232        CA    1  MOL    C232   232  -0.1150000   12.0115
  233        CA    1  MOL    C233   233  -0.1150000   12.0115
  234        CA    1  MOL    C234   234  -0.1150000   12.0115
  235         H    1  MOL    H235   235   0.3800000    1.0080
  236        HA    1  MOL    H236   236   0.1150000    1.0080
  237        HA    1  MOL    H237   237   0.1150000    1.0080
  238         H    1  MOL    H238   238   0.3800000    1.0080
  239        HA    1  MOL    H239   239   0.1150000    1.0080
  240        HA    1  MOL    H240   240   0.1150000    1.0080
  241         H    1  MOL    H241   241   0.3800000    1.0080
  242        HA    1  MOL    H242   242   0.1150000    1.0080
  243        HA    1  MOL    H243   243   0.1150000    1.0080
  244         H    1  MOL    H244   244   0.3800000    1.0080
  245        HA    1  MOL    H245   245   0.1150000    1.0080
  246        HA    1  MOL    H246   246   0.1150000    1.0080
  247        HC    1  MOL    H247   247   0.0600000    1.0080
  248        HC    1  MOL    H248   248   0.0600000    1.0080
  249        HA    1  MOL    H249   249   0.1150000    1.0080
  250        HA    1  MOL    H250   250   0.1150000    1.0080
  251        HA    1  MOL    H251   251   0.1150000    1.0080
  252        HA    1  MOL    H252   252   0.1150000    1.0080
  253        HA    1  MOL    H253   253   0.1150000    1.0080
  254        HA    1  MOL    H254   254   0.1150000    1.0080
  255        HA    1  MOL    H255   255   0.1150000    1.0080
  256        HA    1  MOL    H256   256   0.1150000    1.0080
  257        NE    1  MOL    N257   257  -0.7800000   14.0067
  258        CA    1  MOL    C258   258   0.2000000   12.0115
  259        CA    1  MOL    C259   259  -0.1150000   12.0115
  260        CA    1  MOL    C260   260  -0.1150000   12.0115
  261        CA    1  MOL    C261   261   0.2000000   12.0115
  262        NE    1  MOL    N262   262  -0.7800000   14.0067
  263        CA    1  MOL    C263   263   0.2000000   12.0115
  264        CA    1  MOL    C264   264  -0.1150000   12.0115
  265        CA    1  MOL    C265   265  -0.1150000   12.0115
  266        CA    1  MOL    C266   266   0.2000000   12.0115
  267        NE    1  MOL    N267   267  -0.7800000   14.0067
  268        CA    1  MOL    C268   268   0.2000000   12.0115
  269        CA    1  MOL    C269   269  -0.1150000   12.0115
  270        CA    1  MOL    C270   270  -0.1150000   12.0115
  271        CA    1  MOL    C271   271   0.2000000   12.0115
  272        NE    1  MOL    N272   272  -0.7800000   14.0067
  273        CA    1  MOL    C273   273   0.2000000   12.0115
  274        CA    1  MOL    C274   274  -0.1150000   12.0115
  275        CA    1  MOL    C275   275  -0.1150000   12.0115
  276        CA    1  MOL    C276   276  -0.1150000   12.0115
  277        CT    1  MOL    C277   277   0.1950000   12.0115
  278        CA    1  MOL    C278   278  -0.1150000   12.0115
  279        CA    1  MOL    C279   279  -0.1150000   12.0115
  280        CA    1  MOL    C280   280  -0.1150000   12.0115
  281        CA    1  MOL    C281   281  -0.1150000   12.0115
  282        CA    1  MOL    C282   282  -0.1150000   12.0115
  283        CA    1  MOL    C283   283  -0.1150000   12.0115
  284        CA    1  MOL    C284   284  -0.1150000   12.0115
  285        CA    1  MOL    C285   285  -0.1150000   12.0115
  286         H    1  MOL    H286   286   0.3800000    1.0080
  287        HA    1  MOL    H287   287   0.1150000    1.0080
  288        HA    1  MOL    H288   288   0.1150000    1.0080
  289         H    1  MOL    H289   289   0.3800000    1.0080
  290        HA    1  MOL    H290   290   0.1150000    1.0080
  291        HA    1  MOL    H291   291   0.1150000    1.0080
  292         H    1  MOL    H292   292   0.3800000    1.0080
  293        HA    1  MOL    H293   293   0.1150000    1.0080
  294        HA    1  MOL    H294   294   0.1150000    1.0080
  295         H    1  MOL    H295   295   0.3800000    1.0080
  296        HA    1  MOL    H296   296   0.1150000    1.0080
  297        HA    1  MOL    H297   297   0.1150000    1.0080
  298        HC    1  MOL    H298   298   0.0600000    1.0080
  299        HC    1  MOL    H299   299   0.0600000    1.0080
  300        HA    1  MOL    H300   300   0.1150000    1.0080
  301        HA    1  MOL    H301   301   0.1150000    1.0080
  302        HA    1  MOL    H302   302   0.1150000    1.0080
  303        HA    1  MOL    H303   303   0.1150000    1.0080
  304        HA    1  MOL    H304   304   0.1150000    1.0080
  305        HA    1  MOL    H305   305   0.1150000    1.0080
  306        HA    1  MOL    H306   306   0.1150000    1.0080
  307        HA    1  MOL    H307   307   0.1150000    1.0080
  308        NE    1  MOL    N308   308  -0.7800000   14.0067
  309        CA    1  MOL    C309   309   0.2000000   12.0115
  310        CA    1  MOL    C310   310  -0.1150000   12.0115
  311        CA    1  MOL    C311   311  -0.1150000   12.0115
  312        CA    1  MOL    C312   312   0.2000000   12.0115
  313        NE    1  MOL    N313   313  -0.7800000   14.0067
  314        CA    1  MOL    C314   314   0.2000000   12.0115
  315        CA    1  MOL    C315   315  -0.1150000   12.0115
  316        CA    1  MOL    C316   316  -0.1150000   12.0115
  317        CA    1  MOL    C317   317   0.2000000   12.0115
  318        NE    1  MOL    N318   318  -0.7800000   14.0067
  319        CA    1  MOL    C319   319   0.2000000   12.0115
  320        CA    1  MOL    C320   320  -0.1150000   12.0115
  321        CA    1  MOL    C321   321  -0.1150000   12.0115
  322        CA    1  MOL    C322   322   0.2000000   12.0115
  323        NE    1  MOL    N323   323  -0.7800000   14.0067
  324        CA    1  MOL    C324   324   0.2000000   12.0115
  325        CA    1  MOL    C325   325  -0.1150000   12.0115
  326        CA    1  MOL    C326   326  -0.1150000   12.0115
  327        CA    1  MOL    C327   327  -0.1150000   12.0115
  328        CT    1  MOL    C328   328   0.1950000   12.0115
  329        CA    1  MOL    C329   329  -0.1150000   12.0115
  330        CA    1  MOL    C330   330  -0.1150000   12.0115
  331        CA    1  MOL    C331   331  -0.1150000   12.0115
  332        CA    1  MOL    C332   332  -0.1150000   12.0115
  333        CA    1  MOL    C333   333  -0.1150000   12.0115
  334        CA    1  MOL    C334   334  -0.1150000   12.0115
  335        CA    1  MOL    C335   335  -0.1150000   12.0115
  336        CA    1  MOL    C336   336  -0.1150000   12.0115
  337         H    1  MOL    H337   337   0.3800000    1.0080
  338        HA    1  MOL    H338   338   0.1150000    1.0080
  339        HA    1  MOL    H339   339   0.1150000    1.0080
  340         H    1  MOL    H340   340   0.3800000    1.0080
  341        HA    1  MOL    H341   341   0.1150000    1.0080
  342        HA    1  MOL    H342   342   0.1150000    1.0080
  343         H    1  MOL    H343   343   0.3800000    1.0080
  344        HA    1  MOL    H344   344   0.1150000    1.0080
  345        HA    1  MOL    H345   345   0.1150000    1.0080
  346         H    1  MOL    H346   346   0.3800000    1.0080
  347        HA    1  MOL    H347   347   0.1150000    1.0080
  348        HA    1  MOL    H348   348   0.1150000    1.0080
  349        HC    1  MOL    H349   349   0.0600000    1.0080
  350        HC    1  MOL    H350   350   0.0600000    1.0080
  351        HA    1  MOL    H351   351   0.1150000    1.0080
  352        HA    1  MOL    H352   352   0.1150000    1.0080
  353        HA    1  MOL    H353   353   0.1150000    1.0080
  354        HA    1  MOL    H354   354   0.1150000    1.0080
  355        HA    1  MOL    H355   355   0.1150000    1.0080
  356        HA    1  MOL    H356   356   0.1150000    1.0080
  357        HA    1  MOL    H357   357   0.1150000    1.0080
  358        HA    1  MOL    H358   358   0.1150000    1.0080
  359        NE    1  MOL    N359   359  -0.7800000   14.0067
  360        CA    1  MOL    C360   360   0.2000000   12.0115
  361        CA    1  MOL    C361   361  -0.1150000   12.0115
  362        CA    1  MOL    C362   362  -0.1150000   12.0115
  363        CA    1  MOL    C363   363   0.2000000   12.0115
  364        NE    1  MOL    N364   364  -0.7800000   14.0067
  365        CA    1  MOL    C365   365   0.2000000   12.0115
  366        CA    1  MOL    C366   366  -0.1150000   12.0115
  367        CA    1  MOL    C367   367  -0.1150000   12.0115
  368        CA    1  MOL    C368   368   0.2000000   12.0115
  369        NE    1  MOL    N369   369  -0.7800000   14.0067
  370        CA    1  MOL    C370   370   0.2000000   12.0115
  371        CA    1  MOL    C371   371  -0.1150000   12.0115
  372        CA    1  MOL    C372   372  -0.1150000   12.0115
  373        CA    1  MOL    C373   373   0.2000000   12.0115
  374        NE    1  MOL    N374   374  -0.7800000   14.0067
  375        CA    1  MOL    C375   375   0.2000000   12.0115
  376        CA    1  MOL    C376   376  -0.1150000   12.0115
  377        CA    1  MOL    C377   377  -0.1150000   12.0115
  378        CA    1  MOL    C378   378  -0.1150000   12.0115
  379        CT    1  MOL    C379   379   0.1950000   12.0115
  380        CA    1  MOL    C380   380  -0.1150000   12.0115
  381        CA    1  MOL    C381   381  -0.1150000   12.0115
  382        CA    1  MOL    C382   382  -0.1150000   12.0115
  383        CA    1  MOL    C383   383  -0.1150000   12.0115
  384        CA    1  MOL    C384   384  -0.1150000   12.0115
  385        CA    1  MOL    C385   385  -0.1150000   12.0115
  386        CA    1  MOL    C386   386  -0.1150000   12.0115
  387        CA    1  MOL    C387   387  -0.1150000   12.0115
  388         H    1  MOL    H388   388   0.3800000    1.0080
  389        HA    1  MOL    H389   389   0.1150000    1.0080
  390        HA    1  MOL    H390   390   0.1150000    1.0080
  391         H    1  MOL    H391   391   0.3800000    1.0080
  392        HA    1  MOL    H392   392   0.1150000    1.0080
  393        HA    1  MOL    H393   393   0.1150000    1.0080
  394         H    1  MOL    H394   394   0.3800000    1.0080
  395        HA    1  MOL    H395   395   0.1150000    1.0080
  396        HA    1  MOL    H396   396   0.1150000    1.0080
  397         H    1  MOL    H397   397   0.3800000    1.0080
  398        HA    1  MOL    H398   398   0.1150000    1.0080
  399        HA    1  MOL    H399   399   0.1150000    1.0080
  400        HC    1  MOL    H400   400   0.0600000    1.0080
  401        HC    1  MOL    H401   401   0.0600000    1.0080
  402        HA    1  MOL    H402   402   0.1150000    1.0080
  403        HA    1  MOL    H403   403   0.1150000    1.0080
  404        HA    1  MOL    H404   404   0.1150000    1.0080
  405        HA    1  MOL    H405   405   0.1150000    1.0080
  406        HA    1  MOL    H406   406   0.1150000    1.0080
  407        HA    1  MOL    H407   407   0.1150000    1.0080
  408        HA    1  MOL    H408   408   0.1150000    1.0080
  409        HA    1  MOL    H409   409   0.1150000    1.0080
  410        NE    1  MOL    N410   410  -0.7800000   14.0067
  411        CA    1  MOL    C411   411   0.2000000   12.0115
  412        CA    1  MOL    C412   412  -0.1150000   12.0115
  413        CA    1  MOL    C413   413  -0.1150000   12.0115
  414        CA    1  MOL    C414   414   0.2000000   12.0115
  415        NE    1  MOL    N415   415  -0.7800000   14.0067
  416        CA    1  MOL    C416   416   0.2000000   12.0115
  417        CA    1  MOL    C417   417  -0.1150000   12.0115
  418        CA    1  MOL    C418   418  -0.1150000   12.0115
  419        CA    1  MOL    C419   419   0.2000000   12.0115
  420        NE    1  MOL    N420   420  -0.7800000   14.0067
  421        CA    1  MOL    C421   421   0.2000000   12.0115
  422        CA    1  MOL    C422   422  -0.1150000   12.0115
  423        CA    1  MOL    C423   423  -0.1150000   12.0115
  424        CA    1  MOL    C424   424   0.2000000   12.0115
  425        NE    1  MOL    N425   425  -0.7800000   14.0067
  426        CA    1  MOL    C426   426   0.2000000   12.0115
  427        CA    1  MOL    C427   427  -0.1150000   12.0115
  428        CA    1  MOL    C428   428  -0.1150000   12.0115
  429        CA    1  MOL    C429   429  -0.1150000   12.0115
  430        CT    1  MOL    C430   430   0.1950000   12.0115
  431        CA    1  MOL    C431   431  -0.1150000   12.0115
  432        CA    1  MOL    C432   432  -0.1150000   12.0115
  433        CA    1  MOL    C433   433  -0.1150000   12.0115
  434        CA    1  MOL    C434   434  -0.1150000   12.0115
  435        CA    1  MOL    C435   435  -0.1150000   12.0115
  436        CA    1  MOL    C436   436  -0.1150000   12.0115
  437        CA    1  MOL    C437   437  -0.1150000   12.0115
  438        CA    1  MOL    C438   438  -0.1150000   12.0115
  439         H    1  MOL    H439   439   0.3800000    1.0080
  440        HA    1  MOL    H440   440   0.1150000    1.0080
  441        HA    1  MOL    H441   441   0.1150000    1.0080
  442         H    1  MOL    H442   442   0.3800000    1.0080
  443        HA    1  MOL    H443   443   0.1150000    1.0080
  444        HA    1  MOL    H444   444   0.1150000    1.0080
  445         H    1  MOL    H445   445   0.3800000    1.0080
  446        HA    1  MOL    H446   446   0.1150000    1.0080
  447        HA    1  MOL    H447   447   0.1150000    1.0080
  448         H    1  MOL    H448   448   0.3800000    1.0080
  449        HA    1  MOL    H449   449   0.1150000    1.0080
  450        HA    1  MOL    H450   450   0.1150000    1.0080
  451        HC    1  MOL    H451   451   0.0600000    1.0080
  452        HC    1  MOL    H452   452   0.0600000    1.0080
  453        HA    1  MOL    H453   453   0.1150000    1.0080
  454        HA    1  MOL    H454   454   0.1150000    1.0080
  455        HA    1  MOL    H455   455   0.1150000    1.0080
  456        HA    1  MOL    H456   456   0.1150000    1.0080
  457        HA    1  MOL    H457   457   0.1150000    1.0080
  458        HA    1  MOL    H458   458   0.1150000    1.0080
  459        HA    1  MOL    H459   459   0.1150000    1.0080
  460        HA    1  MOL    H460   460   0.1150000    1.0080
  461        NE    1  MOL    N461   461  -0.7800000   14.0067
  462        CA    1  MOL    C462   462   0.2000000   12.0115
  463        CA    1  MOL    C463   463  -0.1150000   12.0115
  464        CA    1  MOL    C464   464  -0.1150000   12.0115
  465        CA    1  MOL    C465   465   0.2000000   12.0115
  466        NE    1  MOL    N466   466  -0.7800000   14.0067
  467        CA    1  MOL    C467   467   0.2000000   12.0115
  468        CA    1  MOL    C468   468  -0.1150000   12.0115
  469        CA    1  MOL    C469   469  -0.1150000   12.0115
  470        CA    1  MOL    C470   470   0.2000000   12.0115
  471        NE    1  MOL    N471   471  -0.7800000   14.0067
  472        CA    1  MOL    C472   472   0.2000000   12.0115
  473        CA    1  MOL    C473   473  -0.1150000   12.0115
  474        CA    1  MOL    C474   474  -0.1150000   12.0115
  475        CA    1  MOL    C475   475   0.2000000   12.0115
  476        NE    1  MOL    N476   476  -0.7800000   14.0067
  477        CA    1  MOL    C477   477   0.2000000   12.0115
  478        CA    1  MOL    C478   478  -0.1150000   12.0115
  479        CA    1  MOL    C479   479  -0.1150000   12.0115
  480        CA    1  MOL    C480   480  -0.1150000   12.0115
  481        CT    1  MOL    C481   481   0.1950000   12.0115
  482        CA    1  MOL    C482   482  -0.1150000   12.0115
  483        CA    1  MOL    C483   483  -0.1150000   12.0115
  484        CA    1  MOL    C484   484  -0.1150000   12.0115
  485        CA    1  MOL    C485   485  -0.1150000   12.0115
  486        CA    1  MOL    C486   486  -0.1150000   12.0115
  487        CA    1  MOL    C487   487  -0.1150000   12.0115
  488        CA    1  MOL    C488   488  -0.1150000   12.0115
  489        CA    1  MOL    C489   489  -0.1150000   12.0115
  490         H    1  MOL    H490   490   0.3800000    1.0080
  491        HA    1  MOL    H491   491   0.1150000    1.0080
  492        HA    1  MOL    H492   492   0.1150000    1.0080
  493         H    1  MOL    H493   493   0.3800000    1.0080
  494        HA    1  MOL    H494   494   0.1150000    1.0080
  495        HA    1  MOL    H495   495   0.1150000    1.0080
  496         H    1  MOL    H496   496   0.3800000    1.0080
  497        HA    1  MOL    H497   497   0.1150000    1.0080
  498        HA    1  MOL    H498   498   0.1150000    1.0080
  499         H    1  MOL    H499   499   0.3800000    1.0080
  500        HA    1  MOL    H500   500   0.1150000    1.0080
  501        HA    1  MOL    H501   501   0.1150000    1.0080
  502        HC    1  MOL    H502   502   0.0600000    1.0080
  503        HC    1  MOL    H503   503   0.0600000    1.0080
  504        HA    1  MOL    H504   504   0.1150000    1.0080
  505        HA    1  MOL    H505   505   0.1150000    1.0080
  506        HA    1  MOL    H506   506   0.1150000    1.0080
  507        HA    1  MOL    H507   507   0.1150000    1.0080
  508        HA    1  MOL    H508   508   0.1150000    1.0080
  509        HA    1  MOL    H509   509   0.1150000    1.0080
  510        HA    1  MOL    H510   510   0.1150000    1.0080
  511        HA    1  MOL    H511   511   0.1150000    1.0080
  512        NE    1  MOL    N512   512  -0.7800000   14.0067
  513        CA    1  MOL    C513   513   0.2000000   12.0115
  514        CA    1  MOL    C514   514  -0.1150000   12.0115
  515        CA    1  MOL    C515   515  -0.1150000   12.0115
  516        CA    1  MOL    C516   516   0.2000000   12.0115
  517        NE    1  MOL    N517   517  -0.7800000   14.0067
  518        CA    1  MOL    C518   518   0.2000000   12.0115
  519        CA    1  MOL    C519   519  -0.1150000   12.0115
  520        CA    1  MOL    C520   520  -0.1150000   12.0115
  521        CA    1  MOL    C521   521   0.2000000   12.0115
  522        NE    1  MOL    N522   522  -0.7800000   14.0067
  523        CA    1  MOL    C523   523   0.2000000   12.0115
  524        CA    1  MOL    C524   524  -0.1150000   12.0115
  525        CA    1  MOL    C525   525  -0.1150000   12.0115
  526        CA    1  MOL    C526   526   0.2000000   12.0115
  527        NE    1  MOL    N527   527  -0.7800000   14.0067
  528        CA    1  MOL    C528   528   0.2000000   12.0115
  529        CA    1  MOL    C529   529  -0.1150000   12.0115
  530        CA    1  MOL    C530   530  -0.1150000   12.0115
  531        CA    1  MOL    C531   531  -0.1150000   12.0115
  532        CT    1  MOL    C532   532   0.1950000   12.0115
  533        CA    1  MOL    C533   533  -0.1150000   12.0115
  534        CA    1  MOL    C534   534  -0.1150000   12.0115
  535        CA    1  MOL    C535   535  -0.1150000   12.0115
  536        CA    1  MOL    C536   536  -0.1150000   12.0115
  537        CA    1  MOL    C537   537  -0.1150000   12.0115
  538        CA    1  MOL    C538   538  -0.1150000   12.0115
  539        CA    1  MOL    C539   539  -0.1150000   12.0115
  540        CA    1  MOL    C540   540  -0.1150000   12.0115
  541         H    1  MOL    H541   541   0.3800000    1.0080
  542        HA    1  MOL    H542   542   0.1150000    1.0080
  543        HA    1  MOL    H543   543   0.1150000    1.0080
  544         H    1  MOL    H544   544   0.3800000    1.0080
  545        HA    1  MOL    H545   545   0.1150000    1.0080
  546        HA    1  MOL    H546   546   0.1150000    1.0080
  547         H    1  MOL    H547   547   0.3800000    1.0080
  548        HA    1  MOL    H548   548   0.1150000    1.0080
  549        HA    1  MOL    H549   549   0.1150000    1.0080
  550         H    1  MOL    H550   550   0.3800000    1.0080
  551        HA    1  MOL    H551   551   0.1150000    1.0080
  552        HA    1  MOL    H552   552   0.1150000    1.0080
  553        HC    1  MOL    H553   553   0.0600000    1.0080
  554        HC    1  MOL    H554   554   0.0600000    1.0080
  555        HA    1  MOL    H555   555   0.1150000    1.0080
  556        HA    1  MOL    H556   556   0.1150000    1.0080
  557        HA    1  MOL    H557   557   0.1150000    1.0080
  558        HA    1  MOL    H558   558   0.1150000    1.0080
  559        HA    1  MOL    H559   559   0.1150000    1.0080
  560        HA    1  MOL    H560   560   0.1150000    1.0080
  561        HA    1  MOL    H561   561   0.1150000    1.0080
  562        HA    1  MOL    H562   562   0.1150000    1.0080
  563        NE    1  MOL    N563   563  -0.7800000   14.0067
  564        CA    1  MOL    C564   564   0.2000000   12.0115
  565        CA    1  MOL    C565   565  -0.1150000   12.0115
  566        CA    1  MOL    C566   566  -0.1150000   12.0115
  567        CA    1  MOL    C567   567   0.2000000   12.0115
  568        NE    1  MOL    N568   568  -0.7800000   14.0067
  569        CA    1  MOL    C569   569   0.2000000   12.0115
  570        CA    1  MOL    C570   570  -0.1150000   12.0115
  571        CA    1  MOL    C571   571  -0.1150000   12.0115
  572        CA    1  MOL    C572   572   0.2000000   12.0115
  573        NE    1  MOL    N573   573  -0.7800000   14.0067
  574        CA    1  MOL    C574   574   0.2000000   12.0115
  575        CA    1  MOL    C575   575  -0.1150000   12.0115
  576        CA    1  MOL    C576   576  -0.1150000   12.0115
  577        CA    1  MOL    C577   577   0.2000000   12.0115
  578        NE    1  MOL    N578   578  -0.7800000   14.0067
  579        CA    1  MOL    C579   579   0.2000000   12.0115
  580        CA    1  MOL    C580   580  -0.1150000   12.0115
  581        CA    1  MOL    C581   581  -0.1150000   12.0115
  582        CA    1  MOL    C582   582  -0.1150000   12.0115
  583        CT    1  MOL    C583   583   0.1950000   12.0115
  584        CA    1  MOL    C584   584  -0.1150000   12.0115
  585        CA    1  MOL    C585   585  -0.1150000   12.0115
  586        CA    1  MOL    C586   586  -0.1150000   12.0115
  587        CA    1  MOL    C587   587  -0.1150000   12.0115
  588        CA    1  MOL    C588   588  -0.1150000   12.0115
  589        CA    1  MOL    C589   589  -0.1150000   12.0115
  590        CA    1  MOL    C590   590  -0.1150000   12.0115
  591        CA    1  MOL    C591   591  -0.1150000   12.0115
  592         H    1  MOL    H592   592   0.3800000    1.0080
  593        HA    1  MOL    H593   593   0.1150000    1.0080
  594        HA    1  MOL    H594   594   0.1150000    1.0080
  595         H    1  MOL    H595   595   0.3800000    1.0080
  596        HA    1  MOL    H596   596   0.1150000    1.0080
  597        HA    1  MOL    H597   597   0.1150000    1.0080
  598         H    1  MOL    H598   598   0.3800000    1.0080
  599        HA    1  MOL    H599   599   0.1150000    1.0080
  600        HA    1  MOL    H600   600   0.1150000    1.0080
  601         H    1  MOL    H601   601   0.3800000    1.0080
  602        HA    1  MOL    H602   602   0.1150000    1.0080
  603        HA    1  MOL    H603   603   0.1150000    1.0080
  604        HC    1  MOL    H604   604   0.0600000    1.0080
  605        HC    1  MOL    H605   605   0.0600000    1.0080
  606        HA    1  MOL    H606   606   0.1150000    1.0080
  607        HA    1  MOL    H607   607   0.1150000    1.0080
  608        HA    1  MOL    H608   608   0.1150000    1.0080
  609        HA    1  MOL    H609   609   0.1150000    1.0080
  610        HA    1  MOL    H610   610   0.1150000    1.0080
  611        HA    1  MOL    H611   611   0.1150000    1.0080
  612        HA    1  MOL    H612   612   0.1150000    1.0080
  613        HA    1  MOL    H613   613   0.1150000    1.0080
  614        NE    1  MOL    N614   614  -0.7800000   14.0067
  615        CA    1  MOL    C615   615   0.2000000   12.0115
  616        CA    1  MOL    C616   616  -0.1150000   12.0115
  617        CA    1  MOL    C617   617  -0.1150000   12.0115
  618        CA    1  MOL    C618   618   0.2000000   12.0115
  619        NE    1  MOL    N619   619  -0.7800000   14.0067
  620        CA    1  MOL    C620   620   0.2000000   12.0115
  621        CA    1  MOL    C621   621  -0.1150000   12.0115
  622        CA    1  MOL    C622   622  -0.1150000   12.0115
  623        CA    1  MOL    C623   623   0.2000000   12.0115
  624        NE    1  MOL    N624   624  -0.7800000   14.0067
  625        CA    1  MOL    C625   625   0.2000000   12.0115
  626        CA    1  MOL    C626   626  -0.1150000   12.0115
  627        CA    1  MOL    C627   627  -0.1150000   12.0115
  628        CA    1  MOL    C628   628   0.2000000   12.0115
  629        NE    1  MOL    N629   629  -0.7800000   14.0067
  630        CA    1  MOL    C630   630   0.2000000   12.0115
  631        CA    1  MOL    C631   631  -0.1150000   12.0115
  632        CA    1  MOL    C632   632  -0.1150000   12.0115
  633        CA    1  MOL    C633   633  -0.1150000   12.0115
  634        CT    1  MOL    C634   634   0.1950000   12.0115
  635        CA    1  MOL    C635   635  -0.1150000   12.0115
  636        CA    1  MOL    C636   636  -0.1150000   12.0115
  637        CA    1  MOL    C637   637  -0.1150000   12.0115
  638        CA    1  MOL    C638   638  -0.1150000   12.0115
  639        CA    1  MOL    C639   639  -0.1150000   12.0115
  640        CA    1  MOL    C640   640  -0.1150000   12.0115
  641        CA    1  MOL    C641   641  -0.1150000   12.0115
  642        CA    1  MOL    C642   642  -0.1150000   12.0115
  643         H    1  MOL    H643   643   0.3800000    1.0080
  644        HA    1  MOL    H644   644   0.1150000    1.0080
  645        HA    1  MOL    H645   645   0.1150000    1.0080
  646         H    1  MOL    H646   646   0.3800000    1.0080
  647        HA    1  MOL    H647   647   0.1150000    1.0080
  648        HA    1  MOL    H648   648   0.1150000    1.0080
  649         H    1  MOL    H649   649   0.3800000    1.0080
  650        HA    1  MOL    H650   650   0.1150000    1.0080
  651        HA    1  MOL    H651   651   0.1150000    1.0080
  652         H    1  MOL    H652   652   0.3800000    1.0080
  653        HA    1  MOL    H653   653   0.1150000    1.0080
  654        HA    1  MOL    H654   654   0.1150000    1.0080
  655        HC    1  MOL    H655   655   0.0600000    1.0080
  656        HC    1  MOL    H656   656   0.0600000    1.0080
  657        HA    1  MOL    H657   657   0.1150000    1.0080
  658        HA    1  MOL    H658   658   0.1150000    1.0080
  659        HA    1  MOL    H659   659   0.1150000    1.0080
  660        HA    1  MOL    H660   660   0.1150000    1.0080
  661        HA    1  MOL    H661   661   0.1150000    1.0080
  662        HA    1  MOL    H662   662   0.1150000    1.0080
  663        HA    1  MOL    H663   663   0.1150000    1.0080
  664        HA    1  MOL    H664   664   0.1150000    1.0080
  665        NE    1  MOL    N665   665  -0.7800000   14.0067
  666        CA    1  MOL    C666   666   0.2000000   12.0115
  667        CA    1  MOL    C667   667  -0.1150000   12.0115
  668        CA    1  MOL    C668   668  -0.1150000   12.0115
  669        CA    1  MOL    C669   669   0.2000000   12.0115
  670        NE    1  MOL    N670   670  -0.7800000   14.0067
  671        CA    1  MOL    C671   671   0.2000000   12.0115
  672        CA    1  MOL    C672   672  -0.1150000   12.0115
  673        CA    1  MOL    C673   673  -0.1150000   12.0115
  674        CA    1  MOL    C674   674   0.2000000   12.0115
  675        NE    1  MOL    N675   675  -0.7800000   14.0067
  676        CA    1  MOL    C676   676   0.2000000   12.0115
  677        CA    1  MOL    C677   677  -0.1150000   12.0115
  678        CA    1  MOL    C678   678  -0.1150000   12.0115
  679        CA    1  MOL    C679   679   0.2000000   12.0115
  680        NE    1  MOL    N680   680  -0.7800000   14.0067
  681        CA    1  MOL    C681   681   0.2000000   12.0115
  682        CA    1  MOL    C682   682  -0.1150000   12.0115
  683        CA    1  MOL    C683   683  -0.1150000   12.0115
  684        CA    1  MOL    C684   684  -0.1150000   12.0115
  685        CT    1  MOL    C685   685   0.1950000   12.0115
  686        CA    1  MOL    C686   686  -0.1150000   12.0115
  687        CA    1  MOL    C687   687  -0.1150000   12.0115
  688        CA    1  MOL    C688   688  -0.1150000   12.0115
  689        CA    1  MOL    C689   689  -0.1150000   12.0115
  690        CA    1  MOL    C690   690  -0.1150000   12.0115
  691        CA    1  MOL    C691   691  -0.1150000   12.0115
  692        CA    1  MOL    C692   692  -0.1150000   12.0115
  693        CA    1  MOL    C693   693  -0.1150000   12.0115
  694         H    1  MOL    H694   694   0.3800000    1.0080
  695        HA    1  MOL    H695   695   0.1150000    1.0080
  696        HA    1  MOL    H696   696   0.1150000    1.0080
  697         H    1  MOL    H697   697   0.3800000    1.0080
  698        HA    1  MOL    H698   698   0.1150000    1.0080
  699        HA    1  MOL    H699   699   0.1150000    1.0080
  700         H    1  MOL    H700   700   0.3800000    1.0080
  701        HA    1  MOL    H701   701   0.1150000    1.0080
  702        HA    1  MOL    H702   702   0.1150000    1.0080
  703         H    1  MOL    H703   703   0.3800000    1.0080
  704        HA    1  MOL    H704   704   0.1150000    1.0080
  705        HA    1  MOL    H705   705   0.1150000    1.0080
  706        HC    1  MOL    H706   706   0.0600000    1.0080
  707        HC    1  MOL    H707   707   0.0600000    1.0080
  708        HA    1  MOL    H708   708   0.1150000    1.0080
  709        HA    1  MOL    H709   709   0.1150000    1.0080
  710        HA    1  MOL    H710   710   0.1150000    1.0080
  711        HA    1  MOL    H711   711   0.1150000    1.0080
  712        HA    1  MOL    H712   712   0.1150000    1.0080
  713        HA    1  MOL    H713   713   0.1150000    1.0080
  714        HA    1  MOL    H714   714   0.1150000    1.0080
  715        HA    1  MOL    H715   715   0.1150000    1.0080
  716        NE    1  MOL    N716   716  -0.7800000   14.0067
  717        CA    1  MOL    C717   717   0.2000000   12.0115
  718        CA    1  MOL    C718   718  -0.1150000   12.0115
  719        CA    1  MOL    C719   719  -0.1150000   12.0115
  720        CA    1  MOL    C720   720   0.2000000   12.0115
  721        NE    1  MOL    N721   721  -0.7800000   14.0067
  722        CA    1  MOL    C722   722   0.2000000   12.0115
  723        CA    1  MOL    C723   723  -0.1150000   12.0115
  724        CA    1  MOL    C724   724  -0.1150000   12.0115
  725        CA    1  MOL    C725   725   0.2000000   12.0115
  726        NE    1  MOL    N726   726  -0.7800000   14.0067
  727        CA    1  MOL    C727   727   0.2000000   12.0115
  728        CA    1  MOL    C728   728  -0.1150000   12.0115
  729        CA    1  MOL    C729   729  -0.1150000   12.0115
  730        CA    1  MOL    C730   730   0.2000000   12.0115
  731        NE    1  MOL    N731   731  -0.7800000   14.0067
  732        CA    1  MOL    C732   732   0.2000000   12.0115
  733        CA    1  MOL    C733   733  -0.1150000   12.0115
  734        CA    1  MOL    C734   734  -0.1150000   12.0115
  735        CA    1  MOL    C735   735  -0.1150000   12.0115
  736        CT    1  MOL    C736   736   0.1950000   12.0115
  737        CA    1  MOL    C737   737  -0.1150000   12.0115
  738        CA    1  MOL    C738   738  -0.1150000   12.0115
  739        CA    1  MOL    C739   739  -0.1150000   12.0115
  740        CA    1  MOL    C740   740  -0.1150000   12.0115
  741        CA    1  MOL    C741   741  -0.1150000   12.0115
  742        CA    1  MOL    C742   742  -0.1150000   12.0115
  743        CA    1  MOL    C743   743  -0.1150000   12.0115
  744        CA    1  MOL    C744   744  -0.1150000   12.0115
  745         H    1  MOL    H745   745   0.3800000    1.0080
  746        HA    1  MOL    H746   746   0.1150000    1.0080
  747        HA    1  MOL    H747   747   0.1150000    1.0080
  748         H    1  MOL    H748   748   0.3800000    1.0080
  749        HA    1  MOL    H749   749   0.1150000    1.0080
  750        HA    1  MOL    H750   750   0.1150000    1.0080
  751         H    1  MOL    H751   751   0.3800000    1.0080
  752        HA    1  MOL    H752   752   0.1150000    1.0080
  753        HA    1  MOL    H753   753   0.1150000    1.0080
  754         H    1  MOL    H754   754   0.3800000    1.0080
  755        HA    1  MOL    H755   755   0.1150000    1.0080
  756        HA    1  MOL    H756   756   0.1150000    1.0080
  757        HC    1  MOL    H757   757   0.0600000    1.0080
  758        HC    1  MOL    H758   758   0.0600000    1.0080
  759        HA    1  MOL    H759   759   0.1150000    1.0080
  760        HA    1  MOL    H760   760   0.1150000    1.0080
  761        HA    1  MOL    H761   761   0.1150000    1.0080
  762        HA    1  MOL    H762   762   0.1150000    1.0080
  763        HA    1  MOL    H763   763   0.1150000    1.0080
  764        HA    1  MOL    H764   764   0.1150000    1.0080
  765        HA    1  MOL    H765   765   0.1150000    1.0080
  766        HA    1  MOL    H766   766   0.1150000    1.0080
  767        NE    1  MOL    N767   767  -0.7800000   14.0067
  768        CA    1  MOL    C768   768   0.2000000   12.0115
  769        CA    1  MOL    C769   769  -0.1150000   12.0115
  770        CA    1  MOL    C770   770  -0.1150000   12.0115
  771        CA    1  MOL    C771   771   0.2000000   12.0115
  772        NE    1  MOL    N772   772  -0.7800000   14.0067
  773        CA    1  MOL    C773   773   0.2000000   12.0115
  774        CA    1  MOL    C774   774  -0.1150000   12.0115
  775        CA    1  MOL    C775   775  -0.1150000   12.0115
  776        CA    1  MOL    C776   776   0.2000000   12.0115
  777        NE    1  MOL    N777   777  -0.7800000   14.0067
  778        CA    1  MOL    C778   778   0.2000000   12.0115
  779        CA    1  MOL    C779   779  -0.1150000   12.0115
  780        CA    1  MOL    C780   780  -0.1150000   12.0115
  781        CA    1  MOL    C781   781   0.2000000   12.0115
  782        NE    1  MOL    N782   782  -0.7800000   14.0067
  783        CA    1  MOL    C783   783   0.2000000   12.0115
  784        CA    1  MOL    C784   784  -0.1150000   12.0115
  785        CA    1  MOL    C785   785  -0.1150000   12.0115
  786        CA    1  MOL    C786   786  -0.1150000   12.0115
  787        CT    1  MOL    C787   787   0.1950000   12.0115
  788        CA    1  MOL    C788   788  -0.1150000   12.0115
  789        CA    1  MOL    C789   789  -0.1150000   12.0115
  790        CA    1  MOL    C790   790  -0.1150000   12.0115
  791        CA    1  MOL    C791   791  -0.1150000   12.0115
  792        CA    1  MOL    C792   792  -0.1150000   12.0115
  793        CA    1  MOL    C793   793  -0.1150000   12.0115
  794        CA    1  MOL    C794   794  -0.1150000   12.0115
  795        CA    1  MOL    C795   795  -0.1150000   12.0115
  796         H    1  MOL    H796   796   0.3800000    1.0080
  797        HA    1  MOL    H797   797   0.1150000    1.0080
  798        HA    1  MOL    H798   798   0.1150000    1.0080
  799         H    1  MOL    H799   799   0.3800000    1.0080
  800        HA    1  MOL    H800   800   0.1150000    1.0080
  801        HA    1  MOL    H801   801   0.1150000    1.0080
  802         H    1  MOL    H802   802   0.3800000    1.0080
  803        HA    1  MOL    H803   803   0.1150000    1.0080
  804        HA    1  MOL    H804   804   0.1150000    1.0080
  805         H    1  MOL    H805   805   0.3800000    1.0080
  806        HA    1  MOL    H806   806   0.1150000    1.0080
  807        HA    1  MOL    H807   807   0.1150000    1.0080
  808        HC    1  MOL    H808   808   0.0600000    1.0080
  809        HC    1  MOL    H809   809   0.0600000    1.0080
  810        HA    1  MOL    H810   810   0.1150000    1.0080
  811        HA    1  MOL    H811   811   0.1150000    1.0080
  812        HA    1  MOL    H812   812   0.1150000    1.0080
  813        HA    1  MOL    H813   813   0.1150000    1.0080
  814        HA    1  MOL    H814   814   0.1150000    1.0080
  815        HA    1  MOL    H815   815   0.1150000    1.0080
  816        HA    1  MOL    H816   816   0.1150000    1.0080
  817        HA    1  MOL    H817   817   0.1150000    1.0080
  818        NE    1  MOL    N818   818  -0.7800000   14.0067
  819        CA    1  MOL    C819   819   0.2000000   12.0115
  820        CA    1  MOL    C820   820  -0.1150000   12.0115
  821        CA    1  MOL    C821   821  -0.1150000   12.0115
  822        CA    1  MOL    C822   822   0.2000000   12.0115
  823        NE    1  MOL    N823   823  -0.7800000   14.0067
  824        CA    1  MOL    C824   824   0.2000000   12.0115
  825        CA    1  MOL    C825   825  -0.1150000   12.0115
  826        CA    1  MOL    C826   826  -0.1150000   12.0115
  827        CA    1  MOL    C827   827   0.2000000   12.0115
  828        NE    1  MOL    N828   828  -0.7800000   14.0067
  829        CA    1  MOL    C829   829   0.2000000   12.0115
  830        CA    1  MOL    C830   830  -0.1150000   12.0115
  831        CA    1  MOL    C831   831  -0.1150000   12.0115
  832        CA    1  MOL    C832   832   0.2000000   12.0115
  833        NE    1  MOL    N833   833  -0.7800000   14.0067
  834        CA    1  MOL    C834   834   0.2000000   12.0115
  835        CA    1  MOL    C835   835  -0.1150000   12.0115
  836        CA    1  MOL    C836   836  -0.1150000   12.0115
  837        CA    1  MOL    C837   837  -0.1150000   12.0115
  838        CT    1  MOL    C838   838   0.1950000   12.0115
  839        CA    1  MOL    C839   839  -0.1150000   12.0115
  840        CA    1  MOL    C840   840  -0.1150000   12.0115
  841        CA    1  MOL    C841   841  -0.1150000   12.0115
  842        CA    1  MOL    C842   842  -0.1150000   12.0115
  843        CA    1  MOL    C843   843  -0.1150000   12.0115
  844        CA    1  MOL    C844   844  -0.1150000   12.0115
  845        CA    1  MOL    C845   845  -0.1150000   12.0115
  846        CA    1  MOL    C846   846  -0.1150000   12.0115
  847         H    1  MOL    H847   847   0.3800000    1.0080
  848        HA    1  MOL    H848   848   0.1150000    1.0080
  849        HA    1  MOL    H849   849   0.1150000    1.0080
  850         H    1  MOL    H850   850   0.3800000    1.0080
  851        HA    1  MOL    H851   851   0.1150000    1.0080
  852        HA    1  MOL    H852   852   0.1150000    1.0080
  853         H    1  MOL    H853   853   0.3800000    1.0080
  854        HA    1  MOL    H854   854   0.1150000    1.0080
  855        HA    1  MOL    H855   855   0.1150000    1.0080
  856         H    1  MOL    H856   856   0.3800000    1.0080
  857        HA    1  MOL    H857   857   0.1150000    1.0080
  858        HA    1  MOL    H858   858   0.1150000    1.0080
  859        HC    1  MOL    H859   859   0.0600000    1.0080
  860        HC    1  MOL    H860   860   0.0600000    1.0080
  861        HA    1  MOL    H861   861   0.1150000    1.0080
  862        HA    1  MOL    H862   862   0.1150000    1.0080
  863        HA    1  MOL    H863   863   0.1150000    1.0080
  864        HA    1  MOL    H864   864   0.1150000    1.0080
  865        HA    1  MOL    H865   865   0.1150000    1.0080
  866        HA    1  MOL    H866   866   0.1150000    1.0080
  867        HA    1  MOL    H867   867   0.1150000    1.0080
  868        HA    1  MOL    H868   868   0.1150000    1.0080
  869        NE    1  MOL    N869   869  -0.7800000   14.0067
  870        CA    1  MOL    C870   870   0.2000000   12.0115
  871        CA    1  MOL    C871   871  -0.1150000   12.0115
  872        CA    1  MOL    C872   872  -0.1150000   12.0115
  873        CA    1  MOL    C873   873   0.2000000   12.0115
  874        NE    1  MOL    N874   874  -0.7800000   14.0067
  875        CA    1  MOL    C875   875   0.2000000   12.0115
  876        CA    1  MOL    C876   876  -0.1150000   12.0115
  877        CA    1  MOL    C877   877  -0.1150000   12.0115
  878        CA    1  MOL    C878   878   0.2000000   12.0115
  879        NE    1  MOL    N879   879  -0.7800000   14.0067
  880        CA    1  MOL    C880   880   0.2000000   12.0115
  881        CA    1  MOL    C881   881  -0.1150000   12.0115
  882        CA    1  MOL    C882   882  -0.1150000   12.0115
  883        CA    1  MOL    C883   883   0.2000000   12.0115
  884        NE    1  MOL    N884   884  -0.7800000   14.0067
  885        CA    1  MOL    C885   885   0.2000000   12.0115
  886        CA    1  MOL    C886   886  -0.1150000   12.0115
  887        CA    1  MOL    C887   887  -0.1150000   12.0115
  888        CA    1  MOL    C888   888  -0.1150000   12.0115
  889        CT    1  MOL    C889   889   0.1950000   12.0115
  890        CA    1  MOL    C890   890  -0.1150000   12.0115
  891        CA    1  MOL    C891   891  -0.1150000   12.0115
  892        CA    1  MOL    C892   892  -0.1150000   12.0115
  893        CA    1  MOL    C893   893  -0.1150000   12.0115
  894        CA    1  MOL    C894   894  -0.1150000   12.0115
  895        CA    1  MOL    C895   895  -0.1150000   12.0115
  896        CA    1  MOL    C896   896  -0.1150000   12.0115
  897        CA    1  MOL    C897   897  -0.1150000   12.0115
  898         H    1  MOL    H898   898   0.3800000    1.0080
  899        HA    1  MOL    H899   899   0.1150000    1.0080
  900        HA    1  MOL    H900   900   0.1150000    1.0080
  901         H    1  MOL    H901   901   0.3800000    1.0080
  902        HA    1  MOL    H902   902   0.1150000    1.0080
  903        HA    1  MOL    H903   903   0.1150000    1.0080
  904         H    1  MOL    H904   904   0.3800000    1.0080
  905        HA    1  MOL    H905   905   0.1150000    1.0080
  906        HA    1  MOL    H906   906   0.1150000    1.0080
  907         H    1  MOL    H907   907   0.3800000    1.0080
  908        HA    1  MOL    H908   908   0.1150000    1.0080
  909        HA    1  MOL    H909   909   0.1150000    1.0080
  910        HC    1  MOL    H910   910   0.0600000    1.0080
  911        HC    1  MOL    H911   911   0.0600000    1.0080
  912        HA    1  MOL    H912   912   0.1150000    1.0080
  913        HA    1  MOL    H913   913   0.1150000    1.0080
  914        HA    1  MOL    H914   914   0.1150000    1.0080
  915        HA    1  MOL    H915   915   0.1150000    1.0080
  916        HA    1  MOL    H916   916   0.1150000    1.0080
  917        HA    1  MOL    H917   917   0.1150000    1.0080
  918        HA    1  MOL    H918   918   0.1150000    1.0080
  919        HA    1  MOL    H919   919   0.1150000    1.0080
  920        NE    1  MOL    N920   920  -0.7800000   14.0067
  921        CA    1  MOL    C921   921   0.2000000   12.0115
  922        CA    1  MOL    C922   922  -0.1150000   12.0115
  923        CA    1  MOL    C923   923  -0.1150000   12.0115
  924        CA    1  MOL    C924   924   0.2000000   12.0115
  925        NE    1  MOL    N925   925  -0.7800000   14.0067
  926        CA    1  MOL    C926   926   0.2000000   12.0115
  927        CA    1  MOL    C927   927  -0.1150000   12.0115
  928        CA    1  MOL    C928   928  -0.1150000   12.0115
  929        CA    1  MOL    C929   929   0.2000000   12.0115
  930        NE    1  MOL    N930   930  -0.7800000   14.0067
  931        CA    1  MOL    C931   931   0.2000000   12.0115
  932        CA    1  MOL    C932   932  -0.1150000   12.0115
  933        CA    1  MOL    C933   933  -0.1150000   12.0115
  934        CA    1  MOL    C934   934   0.2000000   12.0115
  935        NE    1  MOL    N935   935  -0.7800000   14.0067
  936        CA    1  MOL    C936   936   0.2000000   12.0115
  937        CA    1  MOL    C937   937  -0.1150000   12.0115
  938        CA    1  MOL    C938   938  -0.1150000   12.0115
  939        CA    1  MOL    C939   939  -0.1150000   12.0115
  940        CT    1  MOL    C940   940   0.1950000   12.0115
  941        CA    1  MOL    C941   941  -0.1150000   12.0115
  942        CA    1  MOL    C942   942  -0.1150000   12.0115
  943        CA    1  MOL    C943   943  -0.1150000   12.0115
  944        CA    1  MOL    C944   944  -0.1150000   12.0115
  945        CA    1  MOL    C945   945  -0.1150000   12.0115
  946        CA    1  MOL    C946   946  -0.1150000   12.0115
  947        CA    1  MOL    C947   947  -0.1150000   12.0115
  948        CA    1  MOL    C948   948  -0.1150000   12.0115
  949         H    1  MOL    H949   949   0.3800000    1.0080
  950        HA    1  MOL    H950   950   0.1150000    1.0080
  951        HA    1  MOL    H951   951   0.1150000    1.0080
  952         H    1  MOL    H952   952   0.3800000    1.0080
  953        HA    1  MOL    H953   953   0.1150000    1.0080
  954        HA    1  MOL    H954   954   0.1150000    1.0080
  955         H    1  MOL    H955   955   0.3800000    1.0080
  956        HA    1  MOL    H956   956   0.1150000    1.0080
  957        HA    1  MOL    H957   957   0.1150000    1.0080
  958         H    1  MOL    H958   958   0.3800000    1.0080
  959        HA    1  MOL    H959   959   0.1150000    1.0080
  960        HA    1  MOL    H960   960   0.1150000    1.0080
  961        HC    1  MOL    H961   961   0.0600000    1.0080
  962        HC    1  MOL    H962   962   0.0600000    1.0080
  963        HA    1  MOL    H963   963   0.1150000    1.0080
  964        HA    1  MOL    H964   964   0.1150000    1.0080
  965        HA    1  MOL    H965   965   0.1150000    1.0080
  966        HA    1  MOL    H966   966   0.1150000    1.0080
  967        HA    1  MOL    H967   967   0.1150000    1.0080
  968        HA    1  MOL    H968   968   0.1150000    1.0080
  969        HA    1  MOL    H969   969   0.1150000    1.0080
  970        HA    1  MOL    H970   970   0.1150000    1.0080
  971        NE    1  MOL    N971   971  -0.7800000   14.0067
  972        CA    1  MOL    C972   972   0.2000000   12.0115
  973        CA    1  MOL    C973   973  -0.1150000   12.0115
  974        CA    1  MOL    C974   974  -0.1150000   12.0115
  975        CA    1  MOL    C975   975   0.2000000   12.0115
  976        NE    1  MOL    N976   976  -0.7800000   14.0067
  977        CA    1  MOL    C977   977   0.2000000   12.0115
  978        CA    1  MOL    C978   978  -0.1150000   12.0115
  979        CA    1  MOL    C979   979  -0.1150000   12.0115
  980        CA    1  MOL    C980   980   0.2000000   12.0115
  981        NE    1  MOL    N981   981  -0.7800000   14.0067
  982        CA    1  MOL    C982   982   0.2000000   12.0115
  983        CA    1  MOL    C983   983  -0.1150000   12.0115
  984        CA    1  MOL    C984   984  -0.1150000   12.0115
  985        CA    1  MOL    C985   985   0.2000000   12.0115
  986        NE    1  MOL    N986   986  -0.7800000   14.0067
  987        CA    1  MOL    C987   987   0.2000000   12.0115
  988        CA    1  MOL    C988   988  -0.1150000   12.0115
  989        CA    1  MOL    C989   989  -0.1150000   12.0115
  990        CA    1  MOL    C990   990  -0.1150000   12.0115
  991        CT    1  MOL    C991   991  -0.0650000   12.0115
  992        CA    1  MOL    C992   992  -0.1150000   12.0115
  993        CA    1  MOL    C993   993  -0.1150000   12.0115
  994        CA    1  MOL    C994   994  -0.1150000   12.0115
  995        CA    1  MOL    C995   995  -0.1150000   12.0115
  996        CA    1  MOL    C996   996  -0.1150000   12.0115
  997        CA    1  MOL    C997   997  -0.1150000   12.0115
  998        CA    1  MOL    C998   998  -0.1150000   12.0115
  999        CA    1  MOL    C999   999  -0.1150000   12.0115
 1000         H    1  MOL      H1  1000   0.3800000    1.0080
 1001        HA    1  MOL      H2  1001   0.1150000    1.0080
 1002        HA    1  MOL      H3  1002   0.1150000    1.0080
 1003         H    1  MOL      H4  1003   0.3800000    1.0080
 1004        HA    1  MOL      H5  1004   0.1150000    1.0080
 1005        HA    1  MOL      H6  1005   0.1150000    1.0080
 1006         H    1  MOL      H7  1006   0.3800000    1.0080
 1007        HA    1  MOL      H8  1007   0.1150000    1.0080
 1008        HA    1  MOL      H9  1008   0.1150000    1.0080
 1009         H    1  MOL     H10  1009   0.3800000    1.0080
 1010        HA    1  MOL     H11  1010   0.1150000    1.0080
 1011        HA    1  MOL     H12  1011   0.1150000    1.0080
 1012        HC    1  MOL     H13  1012   0.0600000    1.0080
 1013        HC    1  MOL     H14  1013   0.0600000    1.0080
 1014        HA    1  MOL     H15  1014   0.1150000    1.0080
 1015        HA    1  MOL     H16  1015   0.1150000    1.0080
 1016        HA    1  MOL     H17  1016   0.1150000    1.0080
 1017        HA    1  MOL     H18  1017   0.1150000    1.0080
 1018        HA    1  MOL     H19  1018   0.1150000    1.0080
 1019        HA    1  MOL     H20  1019   0.1150000    1.0080
 1020        HA    1  MOL     H21  1020   0.1150000    1.0080
 1021        HA    1  MOL     H22  1021   0.1150000    1.0080
 1022        HC    1  MOL     H23  1022   0.0600000    1.0080

[ bonds ]
      1      2   1      0.1393 402500.8000
      1     30   1      0.1010 363171.2000
      1     52   1      0.1010 363171.2000
      2      3   1      0.1400 392459.2000
      2     29   1      0.1400 392459.2000
      3      4   1      0.1400 392459.2000
      3     31   1      0.1080 307105.6000
      4      5   1      0.1400 392459.2000
      4     32   1      0.1080 307105.6000
      5      6   1      0.1393 402500.8000
      5     28   1      0.1400 392459.2000
      6      7   1      0.1393 402500.8000
      6     33   1      0.1010 363171.2000
      7      8   1      0.1400 392459.2000
      7     27   1      0.1400 392459.2000
      8      9   1      0.1400 392459.2000
      8     34   1      0.1080 307105.6000
      9     10   1      0.1400 392459.2000
      9     35   1      0.1080 307105.6000
     10     11   1      0.1393 402500.8000
     10     26   1      0.1400 392459.2000
     11     12   1      0.1393 402500.8000
     11     36   1      0.1010 363171.2000
     12     13   1      0.1400 392459.2000
     12     25   1      0.1400 392459.2000
     13     14   1      0.1400 392459.2000
     13     37   1      0.1080 307105.6000
     14     15   1      0.1400 392459.2000
     14     38   1      0.1080 307105.6000
     15     16   1      0.1393 402500.8000
     15     24   1      0.1400 392459.2000
     16     17   1      0.1393 402500.8000
     16     39   1      0.1010 363171.2000
     17     18   1      0.1400 392459.2000
     17     23   1      0.1400 392459.2000
     18     19   1      0.1400 392459.2000
     18     40   1      0.1080 307105.6000
     19     20   1      0.1400 392459.2000
     19     41   1      0.1080 307105.6000
     20     21   1      0.1510 265265.6000
     20     22   1      0.1400 392459.2000
     21     42   1      0.1090 284512.0000
     21     43   1      0.1090 284512.0000
     21     53   1      0.1448 319657.6000
     22     23   1      0.1400 392459.2000
     22     44   1      0.1080 307105.6000
     23     45   1      0.1080 307105.6000
     24     25   1      0.1400 392459.2000
     24     46   1      0.1080 307105.6000
     25     47   1      0.1080 307105.6000
     26     27   1      0.1400 392459.2000
     26     48   1      0.1080 307105.6000
     27     49   1      0.1080 307105.6000
     28     29   1      0.1400 392459.2000
     28     50   1      0.1080 307105.6000
     29     51   1      0.1080 307105.6000
     53     54   1      0.1393 402500.8000
     53     82   1      0.1010 363171.2000
     54     55   1      0.1400 392459.2000
     54     81   1      0.1400 392459.2000
     55     56   1      0.1400 392459.2000
     55     83   1      0.1080 307105.6000
     56     57   1      0.1400 392459.2000
     56     84   1      0.1080 307105.6000
     57     58   1      0.1393 402500.8000
     57     80   1      0.1400 392459.2000
     58     59   1      0.1393 402500.8000
     58     85   1      0.1010 363171.2000
     59     60   1      0.1400 392459.2000
     59     79   1      0.1400 392459.2000
     60     61   1      0.1400 392459.2000
     60     86   1      0.1080 307105.6000
     61     62   1      0.1400 392459.2000
     61     87   1      0.1080 307105.6000
     62     63   1      0.1393 402500.8000
     62     78   1      0.1400 392459.2000
     63     64   1      0.1393 402500.8000
     63     88   1      0.1010 363171.2000
     64     65   1      0.1400 392459.2000
     64     77   1      0.1400 392459.2000
     65     66   1      0.1400 392459.2000
     65     89   1      0.1080 307105.6000
     66     67   1      0.1400 392459.2000
     66     90   1      0.1080 307105.6000
     67     68   1      0.1393 402500.8000
     67     76   1      0.1400 392459.2000
     68     69   1      0.1393 402500.8000
     68     91   1      0.1010 363171.2000
     69     70   1      0.1400 392459.2000
     69     75   1      0.1400 392459.2000
     70     71   1      0.1400 392459.2000
     70     92   1      0.1080 307105.6000
     71     72   1      0.1400 392459.2000
     71     93   1      0.1080 307105.6000
     72     73   1      0.1510 265265.6000
     72     74   1      0.1400 392459.2000
     73     94   1      0.1090 284512.0000
     73     95   1      0.1090 284512.0000
     73    104   1      0.1448 319657.6000
     74     75   1      0.1400 392459.2000
     74     96   1      0.1080 307105.6000
     75     97   1      0.1080 307105.6000
     76     77   1      0.1400 392459.2000
     76     98   1      0.1080 307105.6000
     77     99   1      0.1080 307105.6000
     78     79   1      0.1400 392459.2000
     78    100   1      0.1080 307105.6000
     79    101   1      0.1080 307105.6000
     80     81   1      0.1400 392459.2000
     80    102   1      0.1080 307105.6000
     81    103   1      0.1080 307105.6000
    104    105   1      0.1393 402500.8000
    104    133   1      0.1010 363171.2000
    105    106   1      0.1400 392459.2000
    105    132   1      0.1400 392459.2000
    106    107   1      0.1400 392459.2000
    106    134   1      0.1080 307105.6000
    107    108   1      0.1400 392459.2000
    107    135   1      0.1080 307105.6000
    108    109   1      0.1393 402500.8000
    108    131   1      0.1400 392459.2000
    109    110   1      0.1393 402500.8000
    109    136   1      0.1010 363171.2000
    110    111   1      0.1400 392459.2000
    110    130   1      0.1400 392459.2000
    111    112   1      0.1400 392459.2000
    111    137   1      0.1080 307105.6000
    112    113   1      0.1400 392459.2000
    112    138   1      0.1080 307105.6000
    113    114   1      0.1393 402500.8000
    113    129   1      0.1400 392459.2000
    114    115   1      0.1393 402500.8000
    114    139   1      0.1010 363171.2000
    115    116   1      0.1400 392459.2000
    115    128   1      0.1400 392459.2000
    116    117   1      0.1400 392459.2000
    116    140   1      0.1080 307105.6000
    117    118   1      0.1400 392459.2000
    117    141   1      0.1080 307105.6000
    118    119   1      0.1393 402500.8000
    118    127   1      0.1400 392459.2000
    119    120   1      0.1393 402500.8000
    119    142   1      0.1010 363171.2000
    120    121   1      0.1400 392459.2000
    120    126   1      0.1400 392459.2000
    121    122   1      0.1400 392459.2000
    121    143   1      0.1080 307105.6000
    122    123   1      0.1400 392459.2000
    122    144   1      0.1080 307105.6000
    123    124   1      0.1510 265265.6000
    123    125   1      0.1400 392459.2000
    124    145   1      0.1090 284512.0000
    124    146   1      0.1090 284512.0000
    124    155   1      0.1448 319657.6000
    125    126   1      0.1400 392459.2000
    125    147   1      0.1080 307105.6000
    126    148   1      0.1080 307105.6000
    127    128   1      0.1400 392459.2000
    127    149   1      0.1080 307105.6000
    128    150   1      0.1080 307105.6000
    129    130   1      0.1400 392459.2000
    129    151   1      0.1080 307105.6000
    130    152   1      0.1080 307105.6000
    131    132   1      0.1400 392459.2000
    131    153   1      0.1080 307105.6000
    132    154   1      0.1080 307105.6000
    155    156   1      0.1393 402500.8000
    155    184   1      0.1010 363171.2000
    156    157   1      0.1400 392459.2000
    156    183   1      0.1400 392459.2000
    157    158   1      0.1400 392459.2000
    157    185   1      0.1080 307105.6000
    158    159   1      0.1400 392459.2000
    158    186   1      0.1080 307105.6000
    159    160   1      0.1393 402500.8000
    159    182   1      0.1400 392459.2000
    160    161   1      0.1393 402500.8000
    160    187   1      0.1010 363171.2000
    161    162   1      0.1400 392459.2000
    161    181   1      0.1400 392459.2000
    162    163   1      0.1400 392459.2000
    162    188   1      0.1080 307105.6000
    163    164   1      0.1400 392459.2000
    163    189   1      0.1080 307105.6000
    164    165   1      0.1393 402500.8000
    164    180   1      0.1400 392459.2000
    165    166   1      0.1393 402500.8000
    165    190   1      0.1010 363171.2000
    166    167   1      0.1400 392459.2000
    166    179   1      0.1400 392459.2000
    167    168   1      0.1400 392459.2000
    167    191   1      0.1080 307105.6000
    168    169   1      0.1400 392459.2000
    168    192   1      0.1080 307105.6000
    169    170   1      0.1393 402500.8000
    169    178   1      0.1400 392459.2000
    170    171   1      0.1393 402500.8000
    170    193   1      0.1010 363171.2000
    171    172   1      0.1400 392459.2000
    171    177   1      0.1400 392459.2000
    172    173   1      0.1400 392459.2000
    172    194   1      0.1080 307105.6000
    173    174   1      0.1400 392459.2000
    173    195   1      0.1080 307105.6000
    174    175   1      0.1510 265265.6000
    174    176   1      0.1400 392459.2000
    175    196   1      0.1090 284512.0000
    175    197   1      0.1090 284512.0000
    175    206   1      0.1448 319657.6000
    176    177   1      0.1400 392459.2000
    176    198   1      0.1080 307105.6000
    177    199   1      0.1080 307105.6000
    178    179   1      0.1400 392459.2000
    178    200   1      0.1080 307105.6000
    179    201   1      0.1080 307105.6000
    180    181   1      0.1400 392459.2000
    180    202   1      0.1080 307105.6000
    181    203   1      0.1080 307105.6000
    182    183   1      0.1400 392459.2000
    182    204   1      0.1080 307105.6000
    183    205   1      0.1080 307105.6000
    206    207   1      0.1393 402500.8000
    206    235   1      0.1010 363171.2000
    207    208   1      0.1400 392459.2000
    207    234   1      0.1400 392459.2000
    208    209   1      0.1400 392459.2000
    208    236   1      0.1080 307105.6000
    209    210   1      0.1400 392459.2000
    209    237   1      0.1080 307105.6000
    210    211   1      0.1393 402500.8000
    210    233   1      0.1400 392459.2000
    211    212   1      0.1393 402500.8000
    211    238   1      0.1010 363171.2000
    212    213   1      0.1400 392459.2000
    212    232   1      0.1400 392459.2000
    213    214   1      0.1400 392459.2000
    213    239   1      0.1080 307105.6000
    214    215   1      0.1400 392459.2000
    214    240   1      0.1080 307105.6000
    215    216   1      0.1393 402500.8000
    215    231   1      0.1400 392459.2000
    216    217   1      0.1393 402500.8000
    216    241   1      0.1010 363171.2000
    217    218   1      0.1400 392459.2000
    217    230   1      0.1400 392459.2000
    218    219   1      0.1400 392459.2000
    218    242   1      0.1080 307105.6000
    219    220   1      0.1400 392459.2000
    219    243   1      0.1080 307105.6000
    220    221   1      0.1393 402500.8000
    220    229   1      0.1400 392459.2000
    221    222   1      0.1393 402500.8000
    221    244   1      0.1010 363171.2000
    222    223   1      0.1400 392459.2000
    222    228   1      0.1400 392459.2000
    223    224   1      0.1400 392459.2000
    223    245   1      0.1080 307105.6000
    224    225   1      0.1400 392459.2000
    224    246   1      0.1080 307105.6000
    225    226   1      0.1510 265265.6000
    225    227   1      0.1400 392459.2000
    226    247   1      0.1090 284512.0000
    226    248   1      0.1090 284512.0000
    226    257   1      0.1448 319657.6000
    227    228   1      0.1400 392459.2000
    227    249   1      0.1080 307105.6000
    228    250   1      0.1080 307105.6000
    229    230   1      0.1400 392459.2000
    229    251   1      0.1080 307105.6000
    230    252   1      0.1080 307105.6000
    231    232   1      0.1400 392459.2000
    231    253   1      0.1080 307105.6000
    232    254   1      0.1080 307105.6000
    233    234   1      0.1400 392459.2000
    233    255   1      0.1080 307105.6000
    234    256   1      0.1080 307105.6000
    257    258   1      0.1393 402500.8000
    257    286   1      0.1010 363171.2000
    258    259   1      0.1400 392459.2000
    258    285   1      0.1400 392459.2000
    259    260   1      0.1400 392459.2000
    259    287   1      0.1080 307105.6000
    260    261   1      0.1400 392459.2000
    260    288   1      0.1080 307105.6000
    261    262   1      0.1393 402500.8000
    261    284   1      0.1400 392459.2000
    262    263   1      0.1393 402500.8000
    262    289   1      0.1010 363171.2000
    263    264   1      0.1400 392459.2000
    263    283   1      0.1400 392459.2000
    264    265   1      0.1400 392459.2000
    264    290   1      0.1080 307105.6000
    265    266   1      0.1400 392459.2000
    265    291   1      0.1080 307105.6000
    266    267   1      0.1393 402500.8000
    266    282   1      0.1400 392459.2000
    267    268   1      0.1393 402500.8000
    267    292   1      0.1010 363171.2000
    268    269   1      0.1400 392459.2000
    268    281   1      0.1400 392459.2000
    269    270   1      0.1400 392459.2000
    269    293   1      0.1080 307105.6000
    270    271   1      0.1400 392459.2000
    270    294   1      0.1080 307105.6000
    271    272   1      0.1393 402500.8000
    271    280   1      0.1400 392459.2000
    272    273   1      0.1393 402500.8000
    272    295   1      0.1010 363171.2000
    273    274   1      0.1400 392459.2000
    273    279   1      0.1400 392459.2000
    274    275   1      0.1400 392459.2000
    274    296   1      0.1080 307105.6000
    275    276   1      0.1400 392459.2000
    275    297   1      0.1080 307105.6000
    276    277   1      0.1510 265265.6000
    276    278   1      0.1400 392459.2000
    277    298   1      0.1090 284512.0000
    277    299   1      0.1090 284512.0000
    277    308   1      0.1448 319657.6000
    278    279   1      0.1400 392459.2000
    278    300   1      0.1080 307105.6000
    279    301   1      0.1080 307105.6000
    280    281   1      0.1400 392459.2000
    280    302   1      0.1080 307105.6000
    281    303   1      0.1080 307105.6000
    282    283   1      0.1400 392459.2000
    282    304   1      0.1080 307105.6000
    283    305   1      0.1080 307105.6000
    284    285   1      0.1400 392459.2000
    284    306   1      0.1080 307105.6000
    285    307   1      0.1080 307105.6000
    308    309   1      0.1393 402500.8000
    308    337   1      0.1010 363171.2000
    309    310   1      0.1400 392459.2000
    309    336   1      0.1400 392459.2000
    310    311   1      0.1400 392459.2000
    310    338   1      0.1080 307105.6000
    311    312   1      0.1400 392459.2000
    311    339   1      0.1080 307105.6000
    312    313   1      0.1393 402500.8000
    312    335   1      0.1400 392459.2000
    313    314   1      0.1393 402500.8000
    313    340   1      0.1010 363171.2000
    314    315   1      0.1400 392459.2000
    314    334   1      0.1400 392459.2000
    315    316   1      0.1400 392459.2000
    315    341   1      0.1080 307105.6000
    316    317   1      0.1400 392459.2000
    316    342   1      0.1080 307105.6000
    317    318   1      0.1393 402500.8000
    317    333   1      0.1400 392459.2000
    318    319   1      0.1393 402500.8000
    318    343   1      0.1010 363171.2000
    319    320   1      0.1400 392459.2000
    319    332   1      0.1400 392459.2000
    320    321   1      0.1400 392459.2000
    320    344   1      0.1080 307105.6000
    321    322   1      0.1400 392459.2000
    321    345   1      0.1080 307105.6000
    322    323   1      0.1393 402500.8000
    322    331   1      0.1400 392459.2000
    323    324   1      0.1393 402500.8000
    323    346   1      0.1010 363171.2000
    324    325   1      0.1400 392459.2000
    324    330   1      0.1400 392459.2000
    325    326   1      0.1400 392459.2000
    325    347   1      0.1080 307105.6000
    326    327   1      0.1400 392459.2000
    326    348   1      0.1080 307105.6000
    327    328   1      0.1510 265265.6000
    327    329   1      0.1400 392459.2000
    328    349   1      0.1090 284512.0000
    328    350   1      0.1090 284512.0000
    328    359   1      0.1448 319657.6000
    329    330   1      0.1400 392459.2000
    329    351   1      0.1080 307105.6000
    330    352   1      0.1080 307105.6000
    331    332   1      0.1400 392459.2000
    331    353   1      0.1080 307105.6000
    332    354   1      0.1080 307105.6000
    333    334   1      0.1400 392459.2000
    333    355   1      0.1080 307105.6000
    334    356   1      0.1080 307105.6000
    335    336   1      0.1400 392459.2000
    335    357   1      0.1080 307105.6000
    336    358   1      0.1080 307105.6000
    359    360   1      0.1393 402500.8000
    359    388   1      0.1010 363171.2000
    360    361   1      0.1400 392459.2000
    360    387   1      0.1400 392459.2000
    361    362   1      0.1400 392459.2000
    361    389   1      0.1080 307105.6000
    362    363   1      0.1400 392459.2000
    362    390   1      0.1080 307105.6000
    363    364   1      0.1393 402500.8000
    363    386   1      0.1400 392459.2000
    364    365   1      0.1393 402500.8000
    364    391   1      0.1010 363171.2000
    365    366   1      0.1400 392459.2000
    365    385   1      0.1400 392459.2000
    366    367   1      0.1400 392459.2000
    366    392   1      0.1080 307105.6000
    367    368   1      0.1400 392459.2000
    367    393   1      0.1080 307105.6000
    368    369   1      0.1393 402500.8000
    368    384   1      0.1400 392459.2000
    369    370   1      0.1393 402500.8000
    369    394   1      0.1010 363171.2000
    370    371   1      0.1400 392459.2000
    370    383   1      0.1400 392459.2000
    371    372   1      0.1400 392459.2000
    371    395   1      0.1080 307105.6000
    372    373   1      0.1400 392459.2000
    372    396   1      0.1080 307105.6000
    373    374   1      0.1393 402500.8000
    373    382   1      0.1400 392459.2000
    374    375   1      0.1393 402500.8000
    374    397   1      0.1010 363171.2000
    375    376   1      0.1400 392459.2000
    375    381   1      0.1400 392459.2000
    376    377   1      0.1400 392459.2000
    376    398   1      0.1080 307105.6000
    377    378   1      0.1400 392459.2000
    377    399   1      0.1080 307105.6000
    378    379   1      0.1510 265265.6000
    378    380   1      0.1400 392459.2000
    379    400   1      0.1090 284512.0000
    379    401   1      0.1090 284512.0000
    379    410   1      0.1448 319657.6000
    380    381   1      0.1400 392459.2000
    380    402   1      0.1080 307105.6000
    381    403   1      0.1080 307105.6000
    382    383   1      0.1400 392459.2000
    382    404   1      0.1080 307105.6000
    383    405   1      0.1080 307105.6000
    384    385   1      0.1400 392459.2000
    384    406   1      0.1080 307105.6000
    385    407   1      0.1080 307105.6000
    386    387   1      0.1400 392459.2000
    386    408   1      0.1080 307105.6000
    387    409   1      0.1080 307105.6000
    410    411   1      0.1393 402500.8000
    410    439   1      0.1010 363171.2000
    411    412   1      0.1400 392459.2000
    411    438   1      0.1400 392459.2000
    412    413   1      0.1400 392459.2000
    412    440   1      0.1080 307105.6000
    413    414   1      0.1400 392459.2000
    413    441   1      0.1080 307105.6000
    414    415   1      0.1393 402500.8000
    414    437   1      0.1400 392459.2000
    415    416   1      0.1393 402500.8000
    415    442   1      0.1010 363171.2000
    416    417   1      0.1400 392459.2000
    416    436   1      0.1400 392459.2000
    417    418   1      0.1400 392459.2000
    417    443   1      0.1080 307105.6000
    418    419   1      0.1400 392459.2000
    418    444   1      0.1080 307105.6000
    419    420   1      0.1393 402500.8000
    419    435   1      0.1400 392459.2000
    420    421   1      0.1393 402500.8000
    420    445   1      0.1010 363171.2000
    421    422   1      0.1400 392459.2000
    421    434   1      0.1400 392459.2000
    422    423   1      0.1400 392459.2000
    422    446   1      0.1080 307105.6000
    423    424   1      0.1400 392459.2000
    423    447   1      0.1080 307105.6000
    424    425   1      0.1393 402500.8000
    424    433   1      0.1400 392459.2000
    425    426   1      0.1393 402500.8000
    425    448   1      0.1010 363171.2000
    426    427   1      0.1400 392459.2000
    426    432   1      0.1400 392459.2000
    427    428   1      0.1400 392459.2000
    427    449   1      0.1080 307105.6000
    428    429   1      0.1400 392459.2000
    428    450   1      0.1080 307105.6000
    429    430   1      0.1510 265265.6000
    429    431   1      0.1400 392459.2000
    430    451   1      0.1090 284512.0000
    430    452   1      0.1090 284512.0000
    430    461   1      0.1448 319657.6000
    431    432   1      0.1400 392459.2000
    431    453   1      0.1080 307105.6000
    432    454   1      0.1080 307105.6000
    433    434   1      0.1400 392459.2000
    433    455   1      0.1080 307105.6000
    434    456   1      0.1080 307105.6000
    435    436   1      0.1400 392459.2000
    435    457   1      0.1080 307105.6000
    436    458   1      0.1080 307105.6000
    437    438   1      0.1400 392459.2000
    437    459   1      0.1080 307105.6000
    438    460   1      0.1080 307105.6000
    461    462   1      0.1393 402500.8000
    461    490   1      0.1010 363171.2000
    462    463   1      0.1400 392459.2000
    462    489   1      0.1400 392459.2000
    463    464   1      0.1400 392459.2000
    463    491   1      0.1080 307105.6000
    464    465   1      0.1400 392459.2000
    464    492   1      0.1080 307105.6000
    465    466   1      0.1393 402500.8000
    465    488   1      0.1400 392459.2000
    466    467   1      0.1393 402500.8000
    466    493   1      0.1010 363171.2000
    467    468   1      0.1400 392459.2000
    467    487   1      0.1400 392459.2000
    468    469   1      0.1400 392459.2000
    468    494   1      0.1080 307105.6000
    469    470   1      0.1400 392459.2000
    469    495   1      0.1080 307105.6000
    470    471   1      0.1393 402500.8000
    470    486   1      0.1400 392459.2000
    471    472   1      0.1393 402500.8000
    471    496   1      0.1010 363171.2000
    472    473   1      0.1400 392459.2000
    472    485   1      0.1400 392459.2000
    473    474   1      0.1400 392459.2000
    473    497   1      0.1080 307105.6000
    474    475   1      0.1400 392459.2000
    474    498   1      0.1080 307105.6000
    475    476   1      0.1393 402500.8000
    475    484   1      0.1400 392459.2000
    476    477   1      0.1393 402500.8000
    476    499   1      0.1010 363171.2000
    477    478   1      0.1400 392459.2000
    477    483   1      0.1400 392459.2000
    478    479   1      0.1400 392459.2000
    478    500   1      0.1080 307105.6000
    479    480   1      0.1400 392459.2000
    479    501   1      0.1080 307105.6000
    480    481   1      0.1510 265265.6000
    480    482   1      0.1400 392459.2000
    481    502   1      0.1090 284512.0000
    481    503   1      0.1090 284512.0000
    481    512   1      0.1448 319657.6000
    482    483   1      0.1400 392459.2000
    482    504   1      0.1080 307105.6000
    483    505   1      0.1080 307105.6000
    484    485   1      0.1400 392459.2000
    484    506   1      0.1080 307105.6000
    485    507   1      0.1080 307105.6000
    486    487   1      0.1400 392459.2000
    486    508   1      0.1080 307105.6000
    487    509   1      0.1080 307105.6000
    488    489   1      0.1400 392459.2000
    488    510   1      0.1080 307105.6000
    489    511   1      0.1080 307105.6000
    512    513   1      0.1393 402500.8000
    512    541   1      0.1010 363171.2000
    513    514   1      0.1400 392459.2000
    513    540   1      0.1400 392459.2000
    514    515   1      0.1400 392459.2000
    514    542   1      0.1080 307105.6000
    515    516   1      0.1400 392459.2000
    515    543   1      0.1080 307105.6000
    516    517   1      0.1393 402500.8000
    516    539   1      0.1400 392459.2000
    517    518   1      0.1393 402500.8000
    517    544   1      0.1010 363171.2000
    518    519   1      0.1400 392459.2000
    518    538   1      0.1400 392459.2000
    519    520   1      0.1400 392459.2000
    519    545   1      0.1080 307105.6000
    520    521   1      0.1400 392459.2000
    520    546   1      0.1080 307105.6000
    521    522   1      0.1393 402500.8000
    521    537   1      0.1400 392459.2000
    522    523   1      0.1393 402500.8000
    522    547   1      0.1010 363171.2000
    523    524   1      0.1400 392459.2000
    523    536   1      0.1400 392459.2000
    524    525   1      0.1400 392459.2000
    524    548   1      0.1080 307105.6000
    525    526   1      0.1400 392459.2000
    525    549   1      0.1080 307105.6000
    526    527   1      0.1393 402500.8000
    526    535   1      0.1400 392459.2000
    527    528   1      0.1393 402500.8000
    527    550   1      0.1010 363171.2000
    528    529   1      0.1400 392459.2000
    528    534   1      0.1400 392459.2000
    529    530   1      0.1400 392459.2000
    529    551   1      0.1080 307105.6000
    530    531   1      0.1400 392459.2000
    530    552   1      0.1080 307105.6000
    531    532   1      0.1510 265265.6000
    531    533   1      0.1400 392459.2000
    532    553   1      0.1090 284512.0000
    532    554   1      0.1090 284512.0000
    532    563   1      0.1448 319657.6000
    533    534   1      0.1400 392459.2000
    533    555   1      0.1080 307105.6000
    534    556   1      0.1080 307105.6000
    535    536   1      0.1400 392459.2000
    535    557   1      0.1080 307105.6000
    536    558   1      0.1080 307105.6000
    537    538   1      0.1400 392459.2000
    537    559   1      0.1080 307105.6000
    538    560   1      0.1080 307105.6000
    539    540   1      0.1400 392459.2000
    539    561   1      0.1080 307105.6000
    540    562   1      0.1080 307105.6000
    563    564   1      0.1393 402500.8000
    563    592   1      0.1010 363171.2000
    564    565   1      0.1400 392459.2000
    564    591   1      0.1400 392459.2000
    565    566   1      0.1400 392459.2000
    565    593   1      0.1080 307105.6000
    566    567   1      0.1400 392459.2000
    566    594   1      0.1080 307105.6000
    567    568   1      0.1393 402500.8000
    567    590   1      0.1400 392459.2000
    568    569   1      0.1393 402500.8000
    568    595   1      0.1010 363171.2000
    569    570   1      0.1400 392459.2000
    569    589   1      0.1400 392459.2000
    570    571   1      0.1400 392459.2000
    570    596   1      0.1080 307105.6000
    571    572   1      0.1400 392459.2000
    571    597   1      0.1080 307105.6000
    572    573   1      0.1393 402500.8000
    572    588   1      0.1400 392459.2000
    573    574   1      0.1393 402500.8000
    573    598   1      0.1010 363171.2000
    574    575   1      0.1400 392459.2000
    574    587   1      0.1400 392459.2000
    575    576   1      0.1400 392459.2000
    575    599   1      0.1080 307105.6000
    576    577   1      0.1400 392459.2000
    576    600   1      0.1080 307105.6000
    577    578   1      0.1393 402500.8000
    577    586   1      0.1400 392459.2000
    578    579   1      0.1393 402500.8000
    578    601   1      0.1010 363171.2000
    579    580   1      0.1400 392459.2000
    579    585   1      0.1400 392459.2000
    580    581   1      0.1400 392459.2000
    580    602   1      0.1080 307105.6000
    581    582   1      0.1400 392459.2000
    581    603   1      0.1080 307105.6000
    582    583   1      0.1510 265265.6000
    582    584   1      0.1400 392459.2000
    583    604   1      0.1090 284512.0000
    583    605   1      0.1090 284512.0000
    583    614   1      0.1448 319657.6000
    584    585   1      0.1400 392459.2000
    584    606   1      0.1080 307105.6000
    585    607   1      0.1080 307105.6000
    586    587   1      0.1400 392459.2000
    586    608   1      0.1080 307105.6000
    587    609   1      0.1080 307105.6000
    588    589   1      0.1400 392459.2000
    588    610   1      0.1080 307105.6000
    589    611   1      0.1080 307105.6000
    590    591   1      0.1400 392459.2000
    590    612   1      0.1080 307105.6000
    591    613   1      0.1080 307105.6000
    614    615   1      0.1393 402500.8000
    614    643   1      0.1010 363171.2000
    615    616   1      0.1400 392459.2000
    615    642   1      0.1400 392459.2000
    616    617   1      0.1400 392459.2000
    616    644   1      0.1080 307105.6000
    617    618   1      0.1400 392459.2000
    617    645   1      0.1080 307105.6000
    618    619   1      0.1393 402500.8000
    618    641   1      0.1400 392459.2000
    619    620   1      0.1393 402500.8000
    619    646   1      0.1010 363171.2000
    620    621   1      0.1400 392459.2000
    620    640   1      0.1400 392459.2000
    621    622   1      0.1400 392459.2000
    621    647   1      0.1080 307105.6000
    622    623   1      0.1400 392459.2000
    622    648   1      0.1080 307105.6000
    623    624   1      0.1393 402500.8000
    623    639   1      0.1400 392459.2000
    624    625   1      0.1393 402500.8000
    624    649   1      0.1010 363171.2000
    625    626   1      0.1400 392459.2000
    625    638   1      0.1400 392459.2000
    626    627   1      0.1400 392459.2000
    626    650   1      0.1080 307105.6000
    627    628   1      0.1400 392459.2000
    627    651   1      0.1080 307105.6000
    628    629   1      0.1393 402500.8000
    628    637   1      0.1400 392459.2000
    629    630   1      0.1393 402500.8000
    629    652   1      0.1010 363171.2000
    630    631   1      0.1400 392459.2000
    630    636   1      0.1400 392459.2000
    631    632   1      0.1400 392459.2000
    631    653   1      0.1080 307105.6000
    632    633   1      0.1400 392459.2000
    632    654   1      0.1080 307105.6000
    633    634   1      0.1510 265265.6000
    633    635   1      0.1400 392459.2000
    634    655   1      0.1090 284512.0000
    634    656   1      0.1090 284512.0000
    634    665   1      0.1448 319657.6000
    635    636   1      0.1400 392459.2000
    635    657   1      0.1080 307105.6000
    636    658   1      0.1080 307105.6000
    637    638   1      0.1400 392459.2000
    637    659   1      0.1080 307105.6000
    638    660   1      0.1080 307105.6000
    639    640   1      0.1400 392459.2000
    639    661   1      0.1080 307105.6000
    640    662   1      0.1080 307105.6000
    641    642   1      0.1400 392459.2000
    641    663   1      0.1080 307105.6000
    642    664   1      0.1080 307105.6000
    665    666   1      0.1393 402500.8000
    665    694   1      0.1010 363171.2000
    666    667   1      0.1400 392459.2000
    666    693   1      0.1400 392459.2000
    667    668   1      0.1400 392459.2000
    667    695   1      0.1080 307105.6000
    668    669   1      0.1400 392459.2000
    668    696   1      0.1080 307105.6000
    669    670   1      0.1393 402500.8000
    669    692   1      0.1400 392459.2000
    670    671   1      0.1393 402500.8000
    670    697   1      0.1010 363171.2000
    671    672   1      0.1400 392459.2000
    671    691   1      0.1400 392459.2000
    672    673   1      0.1400 392459.2000
    672    698   1      0.1080 307105.6000
    673    674   1      0.1400 392459.2000
    673    699   1      0.1080 307105.6000
    674    675   1      0.1393 402500.8000
    674    690   1      0.1400 392459.2000
    675    676   1      0.1393 402500.8000
    675    700   1      0.1010 363171.2000
    676    677   1      0.1400 392459.2000
    676    689   1      0.1400 392459.2000
    677    678   1      0.1400 392459.2000
    677    701   1      0.1080 307105.6000
    678    679   1      0.1400 392459.2000
    678    702   1      0.1080 307105.6000
    679    680   1      0.1393 402500.8000
    679    688   1      0.1400 392459.2000
    680    681   1      0.1393 402500.8000
    680    703   1      0.1010 363171.2000
    681    682   1      0.1400 392459.2000
    681    687   1      0.1400 392459.2000
    682    683   1      0.1400 392459.2000
    682    704   1      0.1080 307105.6000
    683    684   1      0.1400 392459.2000
    683    705   1      0.1080 307105.6000
    684    685   1      0.1510 265265.6000
    684    686   1      0.1400 392459.2000
    685    706   1      0.1090 284512.0000
    685    707   1      0.1090 284512.0000
    685    716   1      0.1448 319657.6000
    686    687   1      0.1400 392459.2000
    686    708   1      0.1080 307105.6000
    687    709   1      0.1080 307105.6000
    688    689   1      0.1400 392459.2000
    688    710   1      0.1080 307105.6000
    689    711   1      0.1080 307105.6000
    690    691   1      0.1400 392459.2000
    690    712   1      0.1080 307105.6000
    691    713   1      0.1080 307105.6000
    692    693   1      0.1400 392459.2000
    692    714   1      0.1080 307105.6000
    693    715   1      0.1080 307105.6000
    716    717   1      0.1393 402500.8000
    716    745   1      0.1010 363171.2000
    717    718   1      0.1400 392459.2000
    717    744   1      0.1400 392459.2000
    718    719   1      0.1400 392459.2000
    718    746   1      0.1080 307105.6000
    719    720   1      0.1400 392459.2000
    719    747   1      0.1080 307105.6000
    720    721   1      0.1393 402500.8000
    720    743   1      0.1400 392459.2000
    721    722   1      0.1393 402500.8000
    721    748   1      0.1010 363171.2000
    722    723   1      0.1400 392459.2000
    722    742   1      0.1400 392459.2000
    723    724   1      0.1400 392459.2000
    723    749   1      0.1080 307105.6000
    724    725   1      0.1400 392459.2000
    724    750   1      0.1080 307105.6000
    725    726   1      0.1393 402500.8000
    725    741   1      0.1400 392459.2000
    726    727   1      0.1393 402500.8000
    726    751   1      0.1010 363171.2000
    727    728   1      0.1400 392459.2000
    727    740   1      0.1400 392459.2000
    728    729   1      0.1400 392459.2000
    728    752   1      0.1080 307105.6000
    729    730   1      0.1400 392459.2000
    729    753   1      0.1080 307105.6000
    730    731   1      0.1393 402500.8000
    730    739   1      0.1400 392459.2000
    731    732   1      0.1393 402500.8000
    731    754   1      0.1010 363171.2000
    732    733   1      0.1400 392459.2000
    732    738   1      0.1400 392459.2000
    733    734   1      0.1400 392459.2000
    733    755   1      0.1080 307105.6000
    734    735   1      0.1400 392459.2000
    734    756   1      0.1080 307105.6000
    735    736   1      0.1510 265265.6000
    735    737   1      0.1400 392459.2000
    736    757   1      0.1090 284512.0000
    736    758   1      0.1090 284512.0000
    736    767   1      0.1448 319657.6000
    737    738   1      0.1400 392459.2000
    737    759   1      0.1080 307105.6000
    738    760   1      0.1080 307105.6000
    739    740   1      0.1400 392459.2000
    739    761   1      0.1080 307105.6000
    740    762   1      0.1080 307105.6000
    741    742   1      0.1400 392459.2000
    741    763   1      0.1080 307105.6000
    742    764   1      0.1080 307105.6000
    743    744   1      0.1400 392459.2000
    743    765   1      0.1080 307105.6000
    744    766   1      0.1080 307105.6000
    767    768   1      0.1393 402500.8000
    767    796   1      0.1010 363171.2000
    768    769   1      0.1400 392459.2000
    768    795   1      0.1400 392459.2000
    769    770   1      0.1400 392459.2000
    769    797   1      0.1080 307105.6000
    770    771   1      0.1400 392459.2000
    770    798   1      0.1080 307105.6000
    771    772   1      0.1393 402500.8000
    771    794   1      0.1400 392459.2000
    772    773   1      0.1393 402500.8000
    772    799   1      0.1010 363171.2000
    773    774   1      0.1400 392459.2000
    773    793   1      0.1400 392459.2000
    774    775   1      0.1400 392459.2000
    774    800   1      0.1080 307105.6000
    775    776   1      0.1400 392459.2000
    775    801   1      0.1080 307105.6000
    776    777   1      0.1393 402500.8000
    776    792   1      0.1400 392459.2000
    777    778   1      0.1393 402500.8000
    777    802   1      0.1010 363171.2000
    778    779   1      0.1400 392459.2000
    778    791   1      0.1400 392459.2000
    779    780   1      0.1400 392459.2000
    779    803   1      0.1080 307105.6000
    780    781   1      0.1400 392459.2000
    780    804   1      0.1080 307105.6000
    781    782   1      0.1393 402500.8000
    781    790   1      0.1400 392459.2000
    782    783   1      0.1393 402500.8000
    782    805   1      0.1010 363171.2000
    783    784   1      0.1400 392459.2000
    783    789   1      0.1400 392459.2000
    784    785   1      0.1400 392459.2000
    784    806   1      0.1080 307105.6000
    785    786   1      0.1400 392459.2000
    785    807   1      0.1080 307105.6000
    786    787   1      0.1510 265265.6000
    786    788   1      0.1400 392459.2000
    787    808   1      0.1090 284512.0000
    787    809   1      0.1090 284512.0000
    787    818   1      0.1448 319657.6000
    788    789   1      0.1400 392459.2000
    788    810   1      0.1080 307105.6000
    789    811   1      0.1080 307105.6000
    790    791   1      0.1400 392459.2000
    790    812   1      0.1080 307105.6000
    791    813   1      0.1080 307105.6000
    792    793   1      0.1400 392459.2000
    792    814   1      0.1080 307105.6000
    793    815   1      0.1080 307105.6000
    794    795   1      0.1400 392459.2000
    794    816   1      0.1080 307105.6000
    795    817   1      0.1080 307105.6000
    818    819   1      0.1393 402500.8000
    818    847   1      0.1010 363171.2000
    819    820   1      0.1400 392459.2000
    819    846   1      0.1400 392459.2000
    820    821   1      0.1400 392459.2000
    820    848   1      0.1080 307105.6000
    821    822   1      0.1400 392459.2000
    821    849   1      0.1080 307105.6000
    822    823   1      0.1393 402500.8000
    822    845   1      0.1400 392459.2000
    823    824   1      0.1393 402500.8000
    823    850   1      0.1010 363171.2000
    824    825   1      0.1400 392459.2000
    824    844   1      0.1400 392459.2000
    825    826   1      0.1400 392459.2000
    825    851   1      0.1080 307105.6000
    826    827   1      0.1400 392459.2000
    826    852   1      0.1080 307105.6000
    827    828   1      0.1393 402500.8000
    827    843   1      0.1400 392459.2000
    828    829   1      0.1393 402500.8000
    828    853   1      0.1010 363171.2000
    829    830   1      0.1400 392459.2000
    829    842   1      0.1400 392459.2000
    830    831   1      0.1400 392459.2000
    830    854   1      0.1080 307105.6000
    831    832   1      0.1400 392459.2000
    831    855   1      0.1080 307105.6000
    832    833   1      0.1393 402500.8000
    832    841   1      0.1400 392459.2000
    833    834   1      0.1393 402500.8000
    833    856   1      0.1010 363171.2000
    834    835   1      0.1400 392459.2000
    834    840   1      0.1400 392459.2000
    835    836   1      0.1400 392459.2000
    835    857   1      0.1080 307105.6000
    836    837   1      0.1400 392459.2000
    836    858   1      0.1080 307105.6000
    837    838   1      0.1510 265265.6000
    837    839   1      0.1400 392459.2000
    838    859   1      0.1090 284512.0000
    838    860   1      0.1090 284512.0000
    838    869   1      0.1448 319657.6000
    839    840   1      0.1400 392459.2000
    839    861   1      0.1080 307105.6000
    840    862   1      0.1080 307105.6000
    841    842   1      0.1400 392459.2000
    841    863   1      0.1080 307105.6000
    842    864   1      0.1080 307105.6000
    843    844   1      0.1400 392459.2000
    843    865   1      0.1080 307105.6000
    844    866   1      0.1080 307105.6000
    845    846   1      0.1400 392459.2000
    845    867   1      0.1080 307105.6000
    846    868   1      0.1080 307105.6000
    869    870   1      0.1393 402500.8000
    869    898   1      0.1010 363171.2000
    870    871   1      0.1400 392459.2000
    870    897   1      0.1400 392459.2000
    871    872   1      0.1400 392459.2000
    871    899   1      0.1080 307105.6000
    872    873   1      0.1400 392459.2000
    872    900   1      0.1080 307105.6000
    873    874   1      0.1393 402500.8000
    873    896   1      0.1400 392459.2000
    874    875   1      0.1393 402500.8000
    874    901   1      0.1010 363171.2000
    875    876   1      0.1400 392459.2000
    875    895   1      0.1400 392459.2000
    876    877   1      0.1400 392459.2000
    876    902   1      0.1080 307105.6000
    877    878   1      0.1400 392459.2000
    877    903   1      0.1080 307105.6000
    878    879   1      0.1393 402500.8000
    878    894   1      0.1400 392459.2000
    879    880   1      0.1393 402500.8000
    879    904   1      0.1010 363171.2000
    880    881   1      0.1400 392459.2000
    880    893   1      0.1400 392459.2000
    881    882   1      0.1400 392459.2000
    881    905   1      0.1080 307105.6000
    882    883   1      0.1400 392459.2000
    882    906   1      0.1080 307105.6000
    883    884   1      0.1393 402500.8000
    883    892   1      0.1400 392459.2000
    884    885   1      0.1393 402500.8000
    884    907   1      0.1010 363171.2000
    885    886   1      0.1400 392459.2000
    885    891   1      0.1400 392459.2000
    886    887   1      0.1400 392459.2000
    886    908   1      0.1080 307105.6000
    887    888   1      0.1400 392459.2000
    887    909   1      0.1080 307105.6000
    888    889   1      0.1510 265265.6000
    888    890   1      0.1400 392459.2000
    889    910   1      0.1090 284512.0000
    889    911   1      0.1090 284512.0000
    889    920   1      0.1448 319657.6000
    890    891   1      0.1400 392459.2000
    890    912   1      0.1080 307105.6000
    891    913   1      0.1080 307105.6000
    892    893   1      0.1400 392459.2000
    892    914   1      0.1080 307105.6000
    893    915   1      0.1080 307105.6000
    894    895   1      0.1400 392459.2000
    894    916   1      0.1080 307105.6000
    895    917   1      0.1080 307105.6000
    896    897   1      0.1400 392459.2000
    896    918   1      0.1080 307105.6000
    897    919   1      0.1080 307105.6000
    920    921   1      0.1393 402500.8000
    920    949   1      0.1010 363171.2000
    921    922   1      0.1400 392459.2000
    921    948   1      0.1400 392459.2000
    922    923   1      0.1400 392459.2000
    922    950   1      0.1080 307105.6000
    923    924   1      0.1400 392459.2000
    923    951   1      0.1080 307105.6000
    924    925   1      0.1393 402500.8000
    924    947   1      0.1400 392459.2000
    925    926   1      0.1393 402500.8000
    925    952   1      0.1010 363171.2000
    926    927   1      0.1400 392459.2000
    926    946   1      0.1400 392459.2000
    927    928   1      0.1400 392459.2000
    927    953   1      0.1080 307105.6000
    928    929   1      0.1400 392459.2000
    928    954   1      0.1080 307105.6000
    929    930   1      0.1393 402500.8000
    929    945   1      0.1400 392459.2000
    930    931   1      0.1393 402500.8000
    930    955   1      0.1010 363171.2000
    931    932   1      0.1400 392459.2000
    931    944   1      0.1400 392459.2000
    932    933   1      0.1400 392459.2000
    932    956   1      0.1080 307105.6000
    933    934   1      0.1400 392459.2000
    933    957   1      0.1080 307105.6000
    934    935   1      0.1393 402500.8000
    934    943   1      0.1400 392459.2000
    935    936   1      0.1393 402500.8000
    935    958   1      0.1010 363171.2000
    936    937   1      0.1400 392459.2000
    936    942   1      0.1400 392459.2000
    937    938   1      0.1400 392459.2000
    937    959   1      0.1080 307105.6000
    938    939   1      0.1400 392459.2000
    938    960   1      0.1080 307105.6000
    939    940   1      0.1510 265265.6000
    939    941   1      0.1400 392459.2000
    940    961   1      0.1090 284512.0000
    940    962   1      0.1090 284512.0000
    940    971   1      0.1448 319657.6000
    941    942   1      0.1400 392459.2000
    941    963   1      0.1080 307105.6000
    942    964   1      0.1080 307105.6000
    943    944   1      0.1400 392459.2000
    943    965   1      0.1080 307105.6000
    944    966   1      0.1080 307105.6000
    945    946   1      0.1400 392459.2000
    945    967   1      0.1080 307105.6000
    946    968   1      0.1080 307105.6000
    947    948   1      0.1400 392459.2000
    947    969   1      0.1080 307105.6000
    948    970   1      0.1080 307105.6000
    971    972   1      0.1393 402500.8000
    971   1000   1      0.1010 363171.2000
    972    973   1      0.1400 392459.2000
    972    999   1      0.1400 392459.2000
    973    974   1      0.1400 392459.2000
    973   1001   1      0.1080 307105.6000
    974    975   1      0.1400 392459.2000
    974   1002   1      0.1080 307105.6000
    975    976   1      0.1393 402500.8000
    975    998   1      0.1400 392459.2000
    976    977   1      0.1393 402500.8000
    976   1003   1      0.1010 363171.2000
    977    978   1      0.1400 392459.2000
    977    997   1      0.1400 392459.2000
    978    979   1      0.1400 392459.2000
    978   1004   1      0.1080 307105.6000
    979    980   1      0.1400 392459.2000
    979   1005   1      0.1080 307105.6000
    980    981   1      0.1393 402500.8000
    980    996   1      0.1400 392459.2000
    981    982   1      0.1393 402500.8000
    981   1006   1      0.1010 363171.2000
    982    983   1      0.1400 392459.2000
    982    995   1      0.1400 392459.2000
    983    984   1      0.1400 392459.2000
    983   1007   1      0.1080 307105.6000
    984    985   1      0.1400 392459.2000
    984   1008   1      0.1080 307105.6000
    985    986   1      0.1393 402500.8000
    985    994   1      0.1400 392459.2000
    986    987   1      0.1393 402500.8000
    986   1009   1      0.1010 363171.2000
    987    988   1      0.1400 392459.2000
    987    993   1      0.1400 392459.2000
    988    989   1      0.1400 392459.2000
    988   1010   1      0.1080 307105.6000
    989    990   1      0.1400 392459.2000
    989   1011   1      0.1080 307105.6000
    990    991   1      0.1510 265265.6000
    990    992   1      0.1400 392459.2000
    991   1012   1      0.1090 284512.0000
    991   1013   1      0.1090 284512.0000
    991   1022   1      0.1090 284512.0000
    992    993   1      0.1400 392459.2000
    992   1014   1      0.1080 307105.6000
    993   1015   1      0.1080 307105.6000
    994    995   1      0.1400 392459.2000
    994   1016   1      0.1080 307105.6000
    995   1017   1      0.1080 307105.6000
    996    997   1      0.1400 392459.2000
    996   1018   1      0.1080 307105.6000
    997   1019   1      0.1080 307105.6000
    998    999   1      0.1400 392459.2000
    998   1020   1      0.1080 307105.6000
    999   1021   1      0.1080 307105.6000

[ pairs ]
; ai   aj   funct   fudge_QQ  charge_i   charge_j   c6    c12
     30      3   2   0.50000     0.3600000   -0.1150000   2.144502e-06  1.199282e-11
     30     29   2   0.50000     0.3600000   -0.1150000   2.144502e-06  1.199282e-11
     52      3   2   0.50000     0.3600000   -0.1150000   2.144502e-06  1.199282e-11
     52     29   2   0.50000     0.3600000   -0.1150000   2.144502e-06  1.199282e-11
      1      4   2   0.50000    -0.9000000   -0.1150000   1.467648e-03  2.359657e-06
      1     31   2   0.50000    -0.9000000    0.1150000   3.043650e-04  1.550182e-07
     29      4   2   0.50000    -0.1150000   -0.1150000   1.172438e-03  2.346713e-06
     29     31   2   0.50000    -0.1150000    0.1150000   2.431434e-04  1.541678e-07
      1     28   2   0.50000    -0.9000000   -0.1150000   1.467648e-03  2.359657e-06
      1     51   2   0.50000    -0.9000000    0.1150000   3.043650e-04  1.550182e-07
      3     28   2   0.50000    -0.1150000   -0.1150000   1.172438e-03  2.346713e-06
      3     51   2   0.50000    -0.1150000    0.1150000   2.431434e-04  1.541678e-07
      2      5   2   0.50000     0.1800000    0.2000000   1.172438e-03  2.346713e-06
      2     32   2   0.50000     0.1800000    0.1150000   2.431434e-04  1.541678e-07
     31      5   2   0.50000     0.1150000    0.2000000   2.431434e-04  1.541678e-07
     31     32   2   0.50000     0.1150000    0.1150000   5.042375e-05  1.012808e-08
      3      6   2   0.50000    -0.1150000   -0.7800000   1.467648e-03  2.359657e-06
     32      6   2   0.50000     0.1150000   -0.7800000   3.043650e-04  1.550182e-07
     32     28   2   0.50000     0.1150000   -0.1150000   2.431434e-04  1.541678e-07
      4      7   2   0.50000    -0.1150000    0.2000000   1.172438e-03  2.346713e-06
      4     33   2   0.50000    -0.1150000    0.3800000   2.144502e-06  1.199282e-11
     28      7   2   0.50000    -0.1150000    0.2000000   1.172438e-03  2.346713e-06
     28     33   2   0.50000    -0.1150000    0.3800000   2.144502e-06  1.199282e-11
      4     50   2   0.50000    -0.1150000    0.1150000   2.431434e-04  1.541678e-07
      6     29   2   0.50000    -0.7800000   -0.1150000   1.467648e-03  2.359657e-06
      6     50   2   0.50000    -0.7800000    0.1150000   3.043650e-04  1.550182e-07
      5      8   2   0.50000     0.2000000   -0.1150000   1.172438e-03  2.346713e-06
      5     27   2   0.50000     0.2000000   -0.1150000   1.172438e-03  2.346713e-06
     33      8   2   0.50000     0.3800000   -0.1150000   2.144502e-06  1.199282e-11
     33     27   2   0.50000     0.3800000   -0.1150000   2.144502e-06  1.199282e-11
      6      9   2   0.50000    -0.7800000   -0.1150000   1.467648e-03  2.359657e-06
      6     34   2   0.50000    -0.7800000    0.1150000   3.043650e-04  1.550182e-07
     27      9   2   0.50000    -0.1150000   -0.1150000   1.172438e-03  2.346713e-06
     27     34   2   0.50000    -0.1150000    0.1150000   2.431434e-04  1.541678e-07
      6     26   2   0.50000    -0.7800000   -0.1150000   1.467648e-03  2.359657e-06
      6     49   2   0.50000    -0.7800000    0.1150000   3.043650e-04  1.550182e-07
      8     26   2   0.50000    -0.1150000   -0.1150000   1.172438e-03  2.346713e-06
      8     49   2   0.50000    -0.1150000    0.1150000   2.431434e-04  1.541678e-07
      7     10   2   0.50000     0.2000000    0.2000000   1.172438e-03  2.346713e-06
      7     35   2   0.50000     0.2000000    0.1150000   2.431434e-04  1.541678e-07
     34     10   2   0.50000     0.1150000    0.2000000   2.431434e-04  1.541678e-07
     34     35   2   0.50000     0.1150000    0.1150000   5.042375e-05  1.012808e-08
      8     11   2   0.50000    -0.1150000   -0.7800000   1.467648e-03  2.359657e-06
     35     11   2   0.50000     0.1150000   -0.7800000   3.043650e-04  1.550182e-07
     35     26   2   0.50000     0.1150000   -0.1150000   2.431434e-04  1.541678e-07
      9     12   2   0.50000    -0.1150000    0.2000000   1.172438e-03  2.346713e-06
      9     36   2   0.50000    -0.1150000    0.3800000   2.144502e-06  1.199282e-11
     26     12   2   0.50000    -0.1150000    0.2000000   1.172438e-03  2.346713e-06
     26     36   2   0.50000    -0.1150000    0.3800000   2.144502e-06  1.199282e-11
      9     48   2   0.50000    -0.1150000    0.1150000   2.431434e-04  1.541678e-07
     11     27   2   0.50000    -0.7800000   -0.1150000   1.467648e-03  2.359657e-06
     11     48   2   0.50000    -0.7800000    0.1150000   3.043650e-04  1.550182e-07
     10     13   2   0.50000     0.2000000   -0.1150000   1.172438e-03  2.346713e-06
     10     25   2   0.50000     0.2000000   -0.1150000   1.172438e-03  2.346713e-06
     36     13   2   0.50000     0.3800000   -0.1150000   2.144502e-06  1.199282e-11
     36     25   2   0.50000     0.3800000   -0.1150000   2.144502e-06  1.199282e-11
     11     14   2   0.50000    -0.7800000   -0.1150000   1.467648e-03  2.359657e-06
     11     37   2   0.50000    -0.7800000    0.1150000   3.043650e-04  1.550182e-07
     25     14   2   0.50000    -0.1150000   -0.1150000   1.172438e-03  2.346713e-06
     25     37   2   0.50000    -0.1150000    0.1150000   2.431434e-04  1.541678e-07
     11     24   2   0.50000    -0.7800000   -0.1150000   1.467648e-03  2.359657e-06
     11     47   2   0.50000    -0.7800000    0.1150000   3.043650e-04  1.550182e-07
     13     24   2   0.50000    -0.1150000   -0.1150000   1.172438e-03  2.346713e-06
     13     47   2   0.50000    -0.1150000    0.1150000   2.431434e-04  1.541678e-07
     12     15   2   0.50000     0.2000000    0.2000000   1.172438e-03  2.346713e-06
     12     38   2   0.50000     0.2000000    0.1150000   2.431434e-04  1.541678e-07
     37     15   2   0.50000     0.1150000    0.2000000   2.431434e-04  1.541678e-07
     37     38   2   0.50000     0.1150000    0.1150000   5.042375e-05  1.012808e-08
     13     16   2   0.50000    -0.1150000   -0.7800000   1.467648e-03  2.359657e-06
     38     16   2   0.50000     0.1150000   -0.7800000   3.043650e-04  1.550182e-07
     38     24   2   0.50000     0.1150000   -0.1150000   2.431434e-04  1.541678e-07
     14     17   2   0.50000    -0.1150000    0.2000000   1.172438e-03  2.346713e-06
     14     39   2   0.50000    -0.1150000    0.3800000   2.144502e-06  1.199282e-11
     24     17   2   0.50000    -0.1150000    0.2000000   1.172438e-03  2.346713e-06
     24     39   2   0.50000    -0.1150000    0.3800000   2.144502e-06  1.199282e-11
     14     46   2   0.50000    -0.1150000    0.1150000   2.431434e-04  1.541678e-07
     16     25   2   0.50000    -0.7800000   -0.1150000   1.467648e-03  2.359657e-06
     16     46   2   0.50000    -0.7800000    0.1150000   3.043650e-04  1.550182e-07
     15     18   2   0.50000     0.2000000   -0.1150000   1.172438e-03  2.346713e-06
     15     23   2   0.50000     0.2000000   -0.1150000   1.172438e-03  2.346713e-06
     39     18   2   0.50000     0.3800000   -0.1150000   2.144502e-06  1.199282e-11
     39     23   2   0.50000     0.3800000   -0.1150000   2.144502e-06  1.199282e-11
     16     19   2   0.50000    -0.7800000   -0.1150000   1.467648e-03  2.359657e-06
     16     40   2   0.50000    -0.7800000    0.1150000   3.043650e-04  1.550182e-07
     23     19   2   0.50000    -0.1150000   -0.1150000   1.172438e-03  2.346713e-06
     23     40   2   0.50000    -0.1150000    0.1150000   2.431434e-04  1.541678e-07
     16     22   2   0.50000    -0.7800000   -0.1150000   1.467648e-03  2.359657e-06
     16     45   2   0.50000    -0.7800000    0.1150000   3.043650e-04  1.550182e-07
     18     22   2   0.50000    -0.1150000   -0.1150000   1.172438e-03  2.346713e-06
     18     45   2   0.50000    -0.1150000    0.1150000   2.431434e-04  1.541678e-07
     17     20   2   0.50000     0.2000000   -0.1150000   1.172438e-03  2.346713e-06
     17     41   2   0.50000     0.2000000    0.1150000   2.431434e-04  1.541678e-07
     40     20   2   0.50000     0.1150000   -0.1150000   2.431434e-04  1.541678e-07
     40     41   2   0.50000     0.1150000    0.1150000   5.042375e-05  1.012808e-08
     18     21   2   0.50000    -0.1150000    0.1950000   1.091018e-03  2.092768e-06
     41     21   2   0.50000     0.1150000    0.1950000   2.262583e-04  1.374848e-07
     41     22   2   0.50000     0.1150000   -0.1150000   2.431434e-04  1.541678e-07
     19     42   2   0.50000    -0.1150000    0.0600000   2.680627e-04  1.873879e-07
     19     43   2   0.50000    -0.1150000    0.0600000   2.680627e-04  1.873879e-07
     19     53   2   0.50000    -0.1150000   -0.7800000   1.467648e-03  2.359657e-06
     22     42   2   0.50000    -0.1150000    0.0600000   2.680627e-04  1.873879e-07
     22     43   2   0.50000    -0.1150000    0.0600000   2.680627e-04  1.873879e-07
     22     53   2   0.50000    -0.1150000   -0.7800000   1.467648e-03  2.359657e-06
     19     44   2   0.50000    -0.1150000    0.1150000   2.431434e-04  1.541678e-07
     21     23   2   0.50000     0.1950000   -0.1150000   1.091018e-03  2.092768e-06
     21     44   2   0.50000     0.1950000    0.1150000   2.262583e-04  1.374848e-07
     20     54   2   0.50000    -0.1150000    0.2000000   1.172438e-03  2.346713e-06
     20     82   2   0.50000    -0.1150000    0.3800000   2.144502e-06  1.199282e-11
     42     54   2   0.50000     0.0600000    0.2000000   2.680627e-04  1.873879e-07
     42     82   2   0.50000     0.0600000    0.3800000   4.903125e-07  9.576416e-13
     43     54   2   0.50000     0.0600000    0.2000000   2.680627e-04  1.873879e-07
     43     82   2   0.50000     0.0600000    0.3800000   4.903125e-07  9.576416e-13
     20     45   2   0.50000    -0.1150000    0.1150000   2.431434e-04  1.541678e-07
     44     17   2   0.50000     0.1150000    0.2000000   2.431434e-04  1.541678e-07
     44     45   2   0.50000     0.1150000    0.1150000   5.042375e-05  1.012808e-08
     15     47   2   0.50000     0.2000000    0.1150000   2.431434e-04  1.541678e-07
     46     12   2   0.50000     0.1150000    0.2000000   2.431434e-04  1.541678e-07
     46     47   2   0.50000     0.1150000    0.1150000   5.042375e-05  1.012808e-08
     10     49   2   0.50000     0.2000000    0.1150000   2.431434e-04  1.541678e-07
     48      7   2   0.50000     0.1150000    0.2000000   2.431434e-04  1.541678e-07
     48     49   2   0.50000     0.1150000    0.1150000   5.042375e-05  1.012808e-08
      5     51   2   0.50000     0.2000000    0.1150000   2.431434e-04  1.541678e-07
     50      2   2   0.50000     0.1150000    0.1800000   2.431434e-04  1.541678e-07
     50     51   2   0.50000     0.1150000    0.1150000   5.042375e-05  1.012808e-08
     21     55   2   0.50000     0.1950000   -0.1150000   1.091018e-03  2.092768e-06
     21     81   2   0.50000     0.1950000   -0.1150000   1.091018e-03  2.092768e-06
     82     55   2   0.50000     0.3800000   -0.1150000   2.144502e-06  1.199282e-11
     82     81   2   0.50000     0.3800000   -0.1150000   2.144502e-06  1.199282e-11
     53     56   2   0.50000    -0.7800000   -0.1150000   1.467648e-03  2.359657e-06
     53     83   2   0.50000    -0.7800000    0.1150000   3.043650e-04  1.550182e-07
     81     56   2   0.50000    -0.1150000   -0.1150000   1.172438e-03  2.346713e-06
     81     83   2   0.50000    -0.1150000    0.1150000   2.431434e-04  1.541678e-07
     53     80   2   0.50000    -0.7800000   -0.1150000   1.467648e-03  2.359657e-06
     53    103   2   0.50000    -0.7800000    0.1150000   3.043650e-04  1.550182e-07
     55     80   2   0.50000    -0.1150000   -0.1150000   1.172438e-03  2.346713e-06
     55    103   2   0.50000    -0.1150000    0.1150000   2.431434e-04  1.541678e-07
     54     57   2   0.50000     0.2000000    0.2000000   1.172438e-03  2.346713e-06
     54     84   2   0.50000     0.2000000    0.1150000   2.431434e-04  1.541678e-07
     83     57   2   0.50000     0.1150000    0.2000000   2.431434e-04  1.541678e-07
     83     84   2   0.50000     0.1150000    0.1150000   5.042375e-05  1.012808e-08
     55     58   2   0.50000    -0.1150000   -0.7800000   1.467648e-03  2.359657e-06
     84     58   2   0.50000     0.1150000   -0.7800000   3.043650e-04  1.550182e-07
     84     80   2   0.50000     0.1150000   -0.1150000   2.431434e-04  1.541678e-07
     56     59   2   0.50000    -0.1150000    0.2000000   1.172438e-03  2.346713e-06
     56     85   2   0.50000    -0.1150000    0.3800000   2.144502e-06  1.199282e-11
     80     59   2   0.50000    -0.1150000    0.2000000   1.172438e-03  2.346713e-06
     80     85   2   0.50000    -0.1150000    0.3800000   2.144502e-06  1.199282e-11
     56    102   2   0.50000    -0.1150000    0.1150000   2.431434e-04  1.541678e-07
     58     81   2   0.50000    -0.7800000   -0.1150000   1.467648e-03  2.359657e-06
     58    102   2   0.50000    -0.7800000    0.1150000   3.043650e-04  1.550182e-07
     57     60   2   0.50000     0.2000000   -0.1150000   1.172438e-03  2.346713e-06
     57     79   2   0.50000     0.2000000   -0.1150000   1.172438e-03  2.346713e-06
     85     60   2   0.50000     0.3800000   -0.1150000   2.144502e-06  1.199282e-11
     85     79   2   0.50000     0.3800000   -0.1150000   2.144502e-06  1.199282e-11
     58     61   2   0.50000    -0.7800000   -0.1150000   1.467648e-03  2.359657e-06
     58     86   2   0.50000    -0.7800000    0.1150000   3.043650e-04  1.550182e-07
     79     61   2   0.50000    -0.1150000   -0.1150000   1.172438e-03  2.346713e-06
     79     86   2   0.50000    -0.1150000    0.1150000   2.431434e-04  1.541678e-07
     58     78   2   0.50000    -0.7800000   -0.1150000   1.467648e-03  2.359657e-06
     58    101   2   0.50000    -0.7800000    0.1150000   3.043650e-04  1.550182e-07
     60     78   2   0.50000    -0.1150000   -0.1150000   1.172438e-03  2.346713e-06
     60    101   2   0.50000    -0.1150000    0.1150000   2.431434e-04  1.541678e-07
     59     62   2   0.50000     0.2000000    0.2000000   1.172438e-03  2.346713e-06
     59     87   2   0.50000     0.2000000    0.1150000   2.431434e-04  1.541678e-07
     86     62   2   0.50000     0.1150000    0.2000000   2.431434e-04  1.541678e-07
     86     87   2   0.50000     0.1150000    0.1150000   5.042375e-05  1.012808e-08
     60     63   2   0.50000    -0.1150000   -0.7800000   1.467648e-03  2.359657e-06
     87     63   2   0.50000     0.1150000   -0.7800000   3.043650e-04  1.550182e-07
     87     78   2   0.50000     0.1150000   -0.1150000   2.431434e-04  1.541678e-07
     61     64   2   0.50000    -0.1150000    0.2000000   1.172438e-03  2.346713e-06
     61     88   2   0.50000    -0.1150000    0.3800000   2.144502e-06  1.199282e-11
     78     64   2   0.50000    -0.1150000    0.2000000   1.172438e-03  2.346713e-06
     78     88   2   0.50000    -0.1150000    0.3800000   2.144502e-06  1.199282e-11
     61    100   2   0.50000    -0.1150000    0.1150000   2.431434e-04  1.541678e-07
     63     79   2   0.50000    -0.7800000   -0.1150000   1.467648e-03  2.359657e-06
     63    100   2   0.50000    -0.7800000    0.1150000   3.043650e-04  1.550182e-07
     62     65   2   0.50000     0.2000000   -0.1150000   1.172438e-03  2.346713e-06
     62     77   2   0.50000     0.2000000   -0.1150000   1.172438e-03  2.346713e-06
     88     65   2   0.50000     0.3800000   -0.1150000   2.144502e-06  1.199282e-11
     88     77   2   0.50000     0.3800000   -0.1150000   2.144502e-06  1.199282e-11
     63     66   2   0.50000    -0.7800000   -0.1150000   1.467648e-03  2.359657e-06
     63     89   2   0.50000    -0.7800000    0.1150000   3.043650e-04  1.550182e-07
     77     66   2   0.50000    -0.1150000   -0.1150000   1.172438e-03  2.346713e-06
     77     89   2   0.50000    -0.1150000    0.1150000   2.431434e-04  1.541678e-07
     63     76   2   0.50000    -0.7800000   -0.1150000   1.467648e-03  2.359657e-06
     63     99   2   0.50000    -0.7800000    0.1150000   3.043650e-04  1.550182e-07
     65     76   2   0.50000    -0.1150000   -0.1150000   1.172438e-03  2.346713e-06
     65     99   2   0.50000    -0.1150000    0.1150000   2.431434e-04  1.541678e-07
     64     67   2   0.50000     0.2000000    0.2000000   1.172438e-03  2.346713e-06
     64     90   2   0.50000     0.2000000    0.1150000   2.431434e-04  1.541678e-07
     89     67   2   0.50000     0.1150000    0.2000000   2.431434e-04  1.541678e-07
     89     90   2   0.50000     0.1150000    0.1150000   5.042375e-05  1.012808e-08
     65     68   2   0.50000    -0.1150000   -0.7800000   1.467648e-03  2.359657e-06
     90     68   2   0.50000     0.1150000   -0.7800000   3.043650e-04  1.550182e-07
     90     76   2   0.50000     0.1150000   -0.1150000   2.431434e-04  1.541678e-07
     66     69   2   0.50000    -0.1150000    0.2000000   1.172438e-03  2.346713e-06
     66     91   2   0.50000    -0.1150000    0.3800000   2.144502e-06  1.199282e-11
     76     69   2   0.50000    -0.1150000    0.2000000   1.172438e-03  2.346713e-06
     76     91   2   0.50000    -0.1150000    0.3800000   2.144502e-06  1.199282e-11
     66     98   2   0.50000    -0.1150000    0.1150000   2.431434e-04  1.541678e-07
     68     77   2   0.50000    -0.7800000   -0.1150000   1.467648e-03  2.359657e-06
     68     98   2   0.50000    -0.7800000    0.1150000   3.043650e-04  1.550182e-07
     67     70   2   0.50000     0.2000000   -0.1150000   1.172438e-03  2.346713e-06
     67     75   2   0.50000     0.2000000   -0.1150000   1.172438e-03  2.346713e-06
     91     70   2   0.50000     0.3800000   -0.1150000   2.144502e-06  1.199282e-11
     91     75   2   0.50000     0.3800000   -0.1150000   2.144502e-06  1.199282e-11
     68     71   2   0.50000    -0.7800000   -0.1150000   1.467648e-03  2.359657e-06
     68     92   2   0.50000    -0.7800000    0.1150000   3.043650e-04  1.550182e-07
     75     71   2   0.50000    -0.1150000   -0.1150000   1.172438e-03  2.346713e-06
     75     92   2   0.50000    -0.1150000    0.1150000   2.431434e-04  1.541678e-07
     68     74   2   0.50000    -0.7800000   -0.1150000   1.467648e-03  2.359657e-06
     68     97   2   0.50000    -0.7800000    0.1150000   3.043650e-04  1.550182e-07
     70     74   2   0.50000    -0.1150000   -0.1150000   1.172438e-03  2.346713e-06
     70     97   2   0.50000    -0.1150000    0.1150000   2.431434e-04  1.541678e-07
     69     72   2   0.50000     0.2000000   -0.1150000   1.172438e-03  2.346713e-06
     69     93   2   0.50000     0.2000000    0.1150000   2.431434e-04  1.541678e-07
     92     72   2   0.50000     0.1150000   -0.1150000   2.431434e-04  1.541678e-07
     92     93   2   0.50000     0.1150000    0.1150000   5.042375e-05  1.012808e-08
     70     73   2   0.50000    -0.1150000    0.1950000   1.091018e-03  2.092768e-06
     93     73   2   0.50000     0.1150000    0.1950000   2.262583e-04  1.374848e-07
     93     74   2   0.50000     0.1150000   -0.1150000   2.431434e-04  1.541678e-07
     71     94   2   0.50000    -0.1150000    0.0600000   2.680627e-04  1.873879e-07
     71     95   2   0.50000    -0.1150000    0.0600000   2.680627e-04  1.873879e-07
     71    104   2   0.50000    -0.1150000   -0.7800000   1.467648e-03  2.359657e-06
     74     94   2   0.50000    -0.1150000    0.0600000   2.680627e-04  1.873879e-07
     74     95   2   0.50000    -0.1150000    0.0600000   2.680627e-04  1.873879e-07
     74    104   2   0.50000    -0.1150000   -0.7800000   1.467648e-03  2.359657e-06
     71     96   2   0.50000    -0.1150000    0.1150000   2.431434e-04  1.541678e-07
     73     75   2   0.50000     0.1950000   -0.1150000   1.091018e-03  2.092768e-06
     73     96   2   0.50000     0.1950000    0.1150000   2.262583e-04  1.374848e-07
     72    105   2   0.50000    -0.1150000    0.2000000   1.172438e-03  2.346713e-06
     72    133   2   0.50000    -0.1150000    0.3800000   2.144502e-06  1.199282e-11
     94    105   2   0.50000     0.0600000    0.2000000   2.680627e-04  1.873879e-07
     94    133   2   0.50000     0.0600000    0.3800000   4.903125e-07  9.576416e-13
     95    105   2   0.50000     0.0600000    0.2000000   2.680627e-04  1.873879e-07
     95    133   2   0.50000     0.0600000    0.3800000   4.903125e-07  9.576416e-13
     72     97   2   0.50000    -0.1150000    0.1150000   2.431434e-04  1.541678e-07
     96     69   2   0.50000     0.1150000    0.2000000   2.431434e-04  1.541678e-07
     96     97   2   0.50000     0.1150000    0.1150000   5.042375e-05  1.012808e-08
     67     99   2   0.50000     0.2000000    0.1150000   2.431434e-04  1.541678e-07
     98     64   2   0.50000     0.1150000    0.2000000   2.431434e-04  1.541678e-07
     98     99   2   0.50000     0.1150000    0.1150000   5.042375e-05  1.012808e-08
     62    101   2   0.50000     0.2000000    0.1150000   2.431434e-04  1.541678e-07
    100     59   2   0.50000     0.1150000    0.2000000   2.431434e-04  1.541678e-07
    100    101   2   0.50000     0.1150000    0.1150000   5.042375e-05  1.012808e-08
     57    103   2   0.50000     0.2000000    0.1150000   2.431434e-04  1.541678e-07
    102     54   2   0.50000     0.1150000    0.2000000   2.431434e-04  1.541678e-07
    102    103   2   0.50000     0.1150000    0.1150000   5.042375e-05  1.012808e-08
     73    106   2   0.50000     0.1950000   -0.1150000   1.091018e-03  2.092768e-06
     73    132   2   0.50000     0.1950000   -0.1150000   1.091018e-03  2.092768e-06
    133    106   2   0.50000     0.3800000   -0.1150000   2.144502e-06  1.199282e-11
    133    132   2   0.50000     0.3800000   -0.1150000   2.144502e-06  1.199282e-11
    104    107   2   0.50000    -0.7800000   -0.1150000   1.467648e-03  2.359657e-06
    104    134   2   0.50000    -0.7800000    0.1150000   3.043650e-04  1.550182e-07
    132    107   2   0.50000    -0.1150000   -0.1150000   1.172438e-03  2.346713e-06
    132    134   2   0.50000    -0.1150000    0.1150000   2.431434e-04  1.541678e-07
    104    131   2   0.50000    -0.7800000   -0.1150000   1.467648e-03  2.359657e-06
    104    154   2   0.50000    -0.7800000    0.1150000   3.043650e-04  1.550182e-07
    106    131   2   0.50000    -0.1150000   -0.1150000   1.172438e-03  2.346713e-06
    106    154   2   0.50000    -0.1150000    0.1150000   2.431434e-04  1.541678e-07
    105    108   2   0.50000     0.2000000    0.2000000   1.172438e-03  2.346713e-06
    105    135   2   0.50000     0.2000000    0.1150000   2.431434e-04  1.541678e-07
    134    108   2   0.50000     0.1150000    0.2000000   2.431434e-04  1.541678e-07
    134    135   2   0.50000     0.1150000    0.1150000   5.042375e-05  1.012808e-08
    106    109   2   0.50000    -0.1150000   -0.7800000   1.467648e-03  2.359657e-06
    135    109   2   0.50000     0.1150000   -0.7800000   3.043650e-04  1.550182e-07
    135    131   2   0.50000     0.1150000   -0.1150000   2.431434e-04  1.541678e-07
    107    110   2   0.50000    -0.1150000    0.2000000   1.172438e-03  2.346713e-06
    107    136   2   0.50000    -0.1150000    0.3800000   2.144502e-06  1.199282e-11
    131    110   2   0.50000    -0.1150000    0.2000000   1.172438e-03  2.346713e-06
    131    136   2   0.50000    -0.1150000    0.3800000   2.144502e-06  1.199282e-11
    107    153   2   0.50000    -0.1150000    0.1150000   2.431434e-04  1.541678e-07
    109    132   2   0.50000    -0.7800000   -0.1150000   1.467648e-03  2.359657e-06
    109    153   2   0.50000    -0.7800000    0.1150000   3.043650e-04  1.550182e-07
    108    111   2   0.50000     0.2000000   -0.1150000   1.172438e-03  2.346713e-06
    108    130   2   0.50000     0.2000000   -0.1150000   1.172438e-03  2.346713e-06
    136    111   2   0.50000     0.3800000   -0.1150000   2.144502e-06  1.199282e-11
    136    130   2   0.50000     0.3800000   -0.1150000   2.144502e-06  1.199282e-11
    109    112   2   0.50000    -0.7800000   -0.1150000   1.467648e-03  2.359657e-06
    109    137   2   0.50000    -0.7800000    0.1150000   3.043650e-04  1.550182e-07
    130    112   2   0.50000    -0.1150000   -0.1150000   1.172438e-03  2.346713e-06
    130    137   2   0.50000    -0.1150000    0.1150000   2.431434e-04  1.541678e-07
    109    129   2   0.50000    -0.7800000   -0.1150000   1.467648e-03  2.359657e-06
    109    152   2   0.50000    -0.7800000    0.1150000   3.043650e-04  1.550182e-07
    111    129   2   0.50000    -0.1150000   -0.1150000   1.172438e-03  2.346713e-06
    111    152   2   0.50000    -0.1150000    0.1150000   2.431434e-04  1.541678e-07
    110    113   2   0.50000     0.2000000    0.2000000   1.172438e-03  2.346713e-06
    110    138   2   0.50000     0.2000000    0.1150000   2.431434e-04  1.541678e-07
    137    113   2   0.50000     0.1150000    0.2000000   2.431434e-04  1.541678e-07
    137    138   2   0.50000     0.1150000    0.1150000   5.042375e-05  1.012808e-08
    111    114   2   0.50000    -0.1150000   -0.7800000   1.467648e-03  2.359657e-06
    138    114   2   0.50000     0.1150000   -0.7800000   3.043650e-04  1.550182e-07
    138    129   2   0.50000     0.1150000   -0.1150000   2.431434e-04  1.541678e-07
    112    115   2   0.50000    -0.1150000    0.2000000   1.172438e-03  2.346713e-06
    112    139   2   0.50000    -0.1150000    0.3800000   2.144502e-06  1.199282e-11
    129    115   2   0.50000    -0.1150000    0.2000000   1.172438e-03  2.346713e-06
    129    139   2   0.50000    -0.1150000    0.3800000   2.144502e-06  1.199282e-11
    112    151   2   0.50000    -0.1150000    0.1150000   2.431434e-04  1.541678e-07
    114    130   2   0.50000    -0.7800000   -0.1150000   1.467648e-03  2.359657e-06
    114    151   2   0.50000    -0.7800000    0.1150000   3.043650e-04  1.550182e-07
    113    116   2   0.50000     0.2000000   -0.1150000   1.172438e-03  2.346713e-06
    113    128   2   0.50000     0.2000000   -0.1150000   1.172438e-03  2.346713e-06
    139    116   2   0.50000     0.3800000   -0.1150000   2.144502e-06  1.199282e-11
    139    128   2   0.50000     0.3800000   -0.1150000   2.144502e-06  1.199282e-11
    114    117   2   0.50000    -0.7800000   -0.1150000   1.467648e-03  2.359657e-06
    114    140   2   0.50000    -0.7800000    0.1150000   3.043650e-04  1.550182e-07
    128    117   2   0.50000    -0.1150000   -0.1150000   1.172438e-03  2.346713e-06
    128    140   2   0.50000    -0.1150000    0.1150000   2.431434e-04  1.541678e-07
    114    127   2   0.50000    -0.7800000   -0.1150000   1.467648e-03  2.359657e-06
    114    150   2   0.50000    -0.7800000    0.1150000   3.043650e-04  1.550182e-07
    116    127   2   0.50000    -0.1150000   -0.1150000   1.172438e-03  2.346713e-06
    116    150   2   0.50000    -0.1150000    0.1150000   2.431434e-04  1.541678e-07
    115    118   2   0.50000     0.2000000    0.2000000   1.172438e-03  2.346713e-06
    115    141   2   0.50000     0.2000000    0.1150000   2.431434e-04  1.541678e-07
    140    118   2   0.50000     0.1150000    0.2000000   2.431434e-04  1.541678e-07
    140    141   2   0.50000     0.1150000    0.1150000   5.042375e-05  1.012808e-08
    116    119   2   0.50000    -0.1150000   -0.7800000   1.467648e-03  2.359657e-06
    141    119   2   0.50000     0.1150000   -0.7800000   3.043650e-04  1.550182e-07
    141    127   2   0.50000     0.1150000   -0.1150000   2.431434e-04  1.541678e-07
    117    120   2   0.50000    -0.1150000    0.2000000   1.172438e-03  2.346713e-06
    117    142   2   0.50000    -0.1150000    0.3800000   2.144502e-06  1.199282e-11
    127    120   2   0.50000    -0.1150000    0.2000000   1.172438e-03  2.346713e-06
    127    142   2   0.50000    -0.1150000    0.3800000   2.144502e-06  1.199282e-11
    117    149   2   0.50000    -0.1150000    0.1150000   2.431434e-04  1.541678e-07
    119    128   2   0.50000    -0.7800000   -0.1150000   1.467648e-03  2.359657e-06
    119    149   2   0.50000    -0.7800000    0.1150000   3.043650e-04  1.550182e-07
    118    121   2   0.50000     0.2000000   -0.1150000   1.172438e-03  2.346713e-06
    118    126   2   0.50000     0.2000000   -0.1150000   1.172438e-03  2.346713e-06
    142    121   2   0.50000     0.3800000   -0.1150000   2.144502e-06  1.199282e-11
    142    126   2   0.50000     0.3800000   -0.1150000   2.144502e-06  1.199282e-11
    119    122   2   0.50000    -0.7800000   -0.1150000   1.467648e-03  2.359657e-06
    119    143   2   0.50000    -0.7800000    0.1150000   3.043650e-04  1.550182e-07
    126    122   2   0.50000    -0.1150000   -0.1150000   1.172438e-03  2.346713e-06
    126    143   2   0.50000    -0.1150000    0.1150000   2.431434e-04  1.541678e-07
    119    125   2   0.50000    -0.7800000   -0.1150000   1.467648e-03  2.359657e-06
    119    148   2   0.50000    -0.7800000    0.1150000   3.043650e-04  1.550182e-07
    121    125   2   0.50000    -0.1150000   -0.1150000   1.172438e-03  2.346713e-06
    121    148   2   0.50000    -0.1150000    0.1150000   2.431434e-04  1.541678e-07
    120    123   2   0.50000     0.2000000   -0.1150000   1.172438e-03  2.346713e-06
    120    144   2   0.50000     0.2000000    0.1150000   2.431434e-04  1.541678e-07
    143    123   2   0.50000     0.1150000   -0.1150000   2.431434e-04  1.541678e-07
    143    144   2   0.50000     0.1150000    0.1150000   5.042375e-05  1.012808e-08
    121    124   2   0.50000    -0.1150000    0.1950000   1.091018e-03  2.092768e-06
    144    124   2   0.50000     0.1150000    0.1950000   2.262583e-04  1.374848e-07
    144    125   2   0.50000     0.1150000   -0.1150000   2.431434e-04  1.541678e-07
    122    145   2   0.50000    -0.1150000    0.0600000   2.680627e-04  1.873879e-07
    122    146   2   0.50000    -0.1150000    0.0600000   2.680627e-04  1.873879e-07
    122    155   2   0.50000    -0.1150000   -0.7800000   1.467648e-03  2.359657e-06
    125    145   2   0.50000    -0.1150000    0.0600000   2.680627e-04  1.873879e-07
    125    146   2   0.50000    -0.1150000    0.0600000   2.680627e-04  1.873879e-07
    125    155   2   0.50000    -0.1150000   -0.7800000   1.467648e-03  2.359657e-06
    122    147   2   0.50000    -0.1150000    0.1150000   2.431434e-04  1.541678e-07
    124    126   2   0.50000     0.1950000   -0.1150000   1.091018e-03  2.092768e-06
    124    147   2   0.50000     0.1950000    0.1150000   2.262583e-04  1.374848e-07
    123    156   2   0.50000    -0.1150000    0.2000000   1.172438e-03  2.346713e-06
    123    184   2   0.50000    -0.1150000    0.3800000   2.144502e-06  1.199282e-11
    145    156   2   0.50000     0.0600000    0.2000000   2.680627e-04  1.873879e-07
    145    184   2   0.50000     0.0600000    0.3800000   4.903125e-07  9.576416e-13
    146    156   2   0.50000     0.0600000    0.2000000   2.680627e-04  1.873879e-07
    146    184   2   0.50000     0.0600000    0.3800000   4.903125e-07  9.576416e-13
    123    148   2   0.50000    -0.1150000    0.1150000   2.431434e-04  1.541678e-07
    147    120   2   0.50000     0.1150000    0.2000000   2.431434e-04  1.541678e-07
    147    148   2   0.50000     0.1150000    0.1150000   5.042375e-05  1.012808e-08
    118    150   2   0.50000     0.2000000    0.1150000   2.431434e-04  1.541678e-07
    149    115   2   0.50000     0.1150000    0.2000000   2.431434e-04  1.541678e-07
    149    150   2   0.50000     0.1150000    0.1150000   5.042375e-05  1.012808e-08
    113    152   2   0.50000     0.2000000    0.1150000   2.431434e-04  1.541678e-07
    151    110   2   0.50000     0.1150000    0.2000000   2.431434e-04  1.541678e-07
    151    152   2   0.50000     0.1150000    0.1150000   5.042375e-05  1.012808e-08
    108    154   2   0.50000     0.2000000    0.1150000   2.431434e-04  1.541678e-07
    153    105   2   0.50000     0.1150000    0.2000000   2.431434e-04  1.541678e-07
    153    154   2   0.50000     0.1150000    0.1150000   5.042375e-05  1.012808e-08
    124    157   2   0.50000     0.1950000   -0.1150000   1.091018e-03  2.092768e-06
    124    183   2   0.50000     0.1950000   -0.1150000   1.091018e-03  2.092768e-06
    184    157   2   0.50000     0.3800000   -0.1150000   2.144502e-06  1.199282e-11
    184    183   2   0.50000     0.3800000   -0.1150000   2.144502e-06  1.199282e-11
    155    158   2   0.50000    -0.7800000   -0.1150000   1.467648e-03  2.359657e-06
    155    185   2   0.50000    -0.7800000    0.1150000   3.043650e-04  1.550182e-07
    183    158   2   0.50000    -0.1150000   -0.1150000   1.172438e-03  2.346713e-06
    183    185   2   0.50000    -0.1150000    0.1150000   2.431434e-04  1.541678e-07
    155    182   2   0.50000    -0.7800000   -0.1150000   1.467648e-03  2.359657e-06
    155    205   2   0.50000    -0.7800000    0.1150000   3.043650e-04  1.550182e-07
    157    182   2   0.50000    -0.1150000   -0.1150000   1.172438e-03  2.346713e-06
    157    205   2   0.50000    -0.1150000    0.1150000   2.431434e-04  1.541678e-07
    156    159   2   0.50000     0.2000000    0.2000000   1.172438e-03  2.346713e-06
    156    186   2   0.50000     0.2000000    0.1150000   2.431434e-04  1.541678e-07
    185    159   2   0.50000     0.1150000    0.2000000   2.431434e-04  1.541678e-07
    185    186   2   0.50000     0.1150000    0.1150000   5.042375e-05  1.012808e-08
    157    160   2   0.50000    -0.1150000   -0.7800000   1.467648e-03  2.359657e-06
    186    160   2   0.50000     0.1150000   -0.7800000   3.043650e-04  1.550182e-07
    186    182   2   0.50000     0.1150000   -0.1150000   2.431434e-04  1.541678e-07
    158    161   2   0.50000    -0.1150000    0.2000000   1.172438e-03  2.346713e-06
    158    187   2   0.50000    -0.1150000    0.3800000   2.144502e-06  1.199282e-11
    182    161   2   0.50000    -0.1150000    0.2000000   1.172438e-03  2.346713e-06
    182    187   2   0.50000    -0.1150000    0.3800000   2.144502e-06  1.199282e-11
    158    204   2   0.50000    -0.1150000    0.1150000   2.431434e-04  1.541678e-07
    160    183   2   0.50000    -0.7800000   -0.1150000   1.467648e-03  2.359657e-06
    160    204   2   0.50000    -0.7800000    0.1150000   3.043650e-04  1.550182e-07
    159    162   2   0.50000     0.2000000   -0.1150000   1.172438e-03  2.346713e-06
    159    181   2   0.50000     0.2000000   -0.1150000   1.172438e-03  2.346713e-06
    187    162   2   0.50000     0.3800000   -0.1150000   2.144502e-06  1.199282e-11
    187    181   2   0.50000     0.3800000   -0.1150000   2.144502e-06  1.199282e-11
    160    163   2   0.50000    -0.7800000   -0.1150000   1.467648e-03  2.359657e-06
    160    188   2   0.50000    -0.7800000    0.1150000   3.043650e-04  1.550182e-07
    181    163   2   0.50000    -0.1150000   -0.1150000   1.172438e-03  2.346713e-06
    181    188   2   0.50000    -0.1150000    0.1150000   2.431434e-04  1.541678e-07
    160    180   2   0.50000    -0.7800000   -0.1150000   1.467648e-03  2.359657e-06
    160    203   2   0.50000    -0.7800000    0.1150000   3.043650e-04  1.550182e-07
    162    180   2   0.50000    -0.1150000   -0.1150000   1.172438e-03  2.346713e-06
    162    203   2   0.50000    -0.1150000    0.1150000   2.431434e-04  1.541678e-07
    161    164   2   0.50000     0.2000000    0.2000000   1.172438e-03  2.346713e-06
    161    189   2   0.50000     0.2000000    0.1150000   2.431434e-04  1.541678e-07
    188    164   2   0.50000     0.1150000    0.2000000   2.431434e-04  1.541678e-07
    188    189   2   0.50000     0.1150000    0.1150000   5.042375e-05  1.012808e-08
    162    165   2   0.50000    -0.1150000   -0.7800000   1.467648e-03  2.359657e-06
    189    165   2   0.50000     0.1150000   -0.7800000   3.043650e-04  1.550182e-07
    189    180   2   0.50000     0.1150000   -0.1150000   2.431434e-04  1.541678e-07
    163    166   2   0.50000    -0.1150000    0.2000000   1.172438e-03  2.346713e-06
    163    190   2   0.50000    -0.1150000    0.3800000   2.144502e-06  1.199282e-11
    180    166   2   0.50000    -0.1150000    0.2000000   1.172438e-03  2.346713e-06
    180    190   2   0.50000    -0.1150000    0.3800000   2.144502e-06  1.199282e-11
    163    202   2   0.50000    -0.1150000    0.1150000   2.431434e-04  1.541678e-07
    165    181   2   0.50000    -0.7800000   -0.1150000   1.467648e-03  2.359657e-06
    165    202   2   0.50000    -0.7800000    0.1150000   3.043650e-04  1.550182e-07
    164    167   2   0.50000     0.2000000   -0.1150000   1.172438e-03  2.346713e-06
    164    179   2   0.50000     0.2000000   -0.1150000   1.172438e-03  2.346713e-06
    190    167   2   0.50000     0.3800000   -0.1150000   2.144502e-06  1.199282e-11
    190    179   2   0.50000     0.3800000   -0.1150000   2.144502e-06  1.199282e-11
    165    168   2   0.50000    -0.7800000   -0.1150000   1.467648e-03  2.359657e-06
    165    191   2   0.50000    -0.7800000    0.1150000   3.043650e-04  1.550182e-07
    179    168   2   0.50000    -0.1150000   -0.1150000   1.172438e-03  2.346713e-06
    179    191   2   0.50000    -0.1150000    0.1150000   2.431434e-04  1.541678e-07
    165    178   2   0.50000    -0.7800000   -0.1150000   1.467648e-03  2.359657e-06
    165    201   2   0.50000    -0.7800000    0.1150000   3.043650e-04  1.550182e-07
    167    178   2   0.50000    -0.1150000   -0.1150000   1.172438e-03  2.346713e-06
    167    201   2   0.50000    -0.1150000    0.1150000   2.431434e-04  1.541678e-07
    166    169   2   0.50000     0.2000000    0.2000000   1.172438e-03  2.346713e-06
    166    192   2   0.50000     0.2000000    0.1150000   2.431434e-04  1.541678e-07
    191    169   2   0.50000     0.1150000    0.2000000   2.431434e-04  1.541678e-07
    191    192   2   0.50000     0.1150000    0.1150000   5.042375e-05  1.012808e-08
    167    170   2   0.50000    -0.1150000   -0.7800000   1.467648e-03  2.359657e-06
    192    170   2   0.50000     0.1150000   -0.7800000   3.043650e-04  1.550182e-07
    192    178   2   0.50000     0.1150000   -0.1150000   2.431434e-04  1.541678e-07
    168    171   2   0.50000    -0.1150000    0.2000000   1.172438e-03  2.346713e-06
    168    193   2   0.50000    -0.1150000    0.3800000   2.144502e-06  1.199282e-11
    178    171   2   0.50000    -0.1150000    0.2000000   1.172438e-03  2.346713e-06
    178    193   2   0.50000    -0.1150000    0.3800000   2.144502e-06  1.199282e-11
    168    200   2   0.50000    -0.1150000    0.1150000   2.431434e-04  1.541678e-07
    170    179   2   0.50000    -0.7800000   -0.1150000   1.467648e-03  2.359657e-06
    170    200   2   0.50000    -0.7800000    0.1150000   3.043650e-04  1.550182e-07
    169    172   2   0.50000     0.2000000   -0.1150000   1.172438e-03  2.346713e-06
    169    177   2   0.50000     0.2000000   -0.1150000   1.172438e-03  2.346713e-06
    193    172   2   0.50000     0.3800000   -0.1150000   2.144502e-06  1.199282e-11
    193    177   2   0.50000     0.3800000   -0.1150000   2.144502e-06  1.199282e-11
    170    173   2   0.50000    -0.7800000   -0.1150000   1.467648e-03  2.359657e-06
    170    194   2   0.50000    -0.7800000    0.1150000   3.043650e-04  1.550182e-07
    177    173   2   0.50000    -0.1150000   -0.1150000   1.172438e-03  2.346713e-06
    177    194   2   0.50000    -0.1150000    0.1150000   2.431434e-04  1.541678e-07
    170    176   2   0.50000    -0.7800000   -0.1150000   1.467648e-03  2.359657e-06
    170    199   2   0.50000    -0.7800000    0.1150000   3.043650e-04  1.550182e-07
    172    176   2   0.50000    -0.1150000   -0.1150000   1.172438e-03  2.346713e-06
    172    199   2   0.50000    -0.1150000    0.1150000   2.431434e-04  1.541678e-07
    171    174   2   0.50000     0.2000000   -0.1150000   1.172438e-03  2.346713e-06
    171    195   2   0.50000     0.2000000    0.1150000   2.431434e-04  1.541678e-07
    194    174   2   0.50000     0.1150000   -0.1150000   2.431434e-04  1.541678e-07
    194    195   2   0.50000     0.1150000    0.1150000   5.042375e-05  1.012808e-08
    172    175   2   0.50000    -0.1150000    0.1950000   1.091018e-03  2.092768e-06
    195    175   2   0.50000     0.1150000    0.1950000   2.262583e-04  1.374848e-07
    195    176   2   0.50000     0.1150000   -0.1150000   2.431434e-04  1.541678e-07
    173    196   2   0.50000    -0.1150000    0.0600000   2.680627e-04  1.873879e-07
    173    197   2   0.50000    -0.1150000    0.0600000   2.680627e-04  1.873879e-07
    173    206   2   0.50000    -0.1150000   -0.7800000   1.467648e-03  2.359657e-06
    176    196   2   0.50000    -0.1150000    0.0600000   2.680627e-04  1.873879e-07
    176    197   2   0.50000    -0.1150000    0.0600000   2.680627e-04  1.873879e-07
    176    206   2   0.50000    -0.1150000   -0.7800000   1.467648e-03  2.359657e-06
    173    198   2   0.50000    -0.1150000    0.1150000   2.431434e-04  1.541678e-07
    175    177   2   0.50000     0.1950000   -0.1150000   1.091018e-03  2.092768e-06
    175    198   2   0.50000     0.1950000    0.1150000   2.262583e-04  1.374848e-07
    174    207   2   0.50000    -0.1150000    0.2000000   1.172438e-03  2.346713e-06
    174    235   2   0.50000    -0.1150000    0.3800000   2.144502e-06  1.199282e-11
    196    207   2   0.50000     0.0600000    0.2000000   2.680627e-04  1.873879e-07
    196    235   2   0.50000     0.0600000    0.3800000   4.903125e-07  9.576416e-13
    197    207   2   0.50000     0.0600000    0.2000000   2.680627e-04  1.873879e-07
    197    235   2   0.50000     0.0600000    0.3800000   4.903125e-07  9.576416e-13
    174    199   2   0.50000    -0.1150000    0.1150000   2.431434e-04  1.541678e-07
    198    171   2   0.50000     0.1150000    0.2000000   2.431434e-04  1.541678e-07
    198    199   2   0.50000     0.1150000    0.1150000   5.042375e-05  1.012808e-08
    169    201   2   0.50000     0.2000000    0.1150000   2.431434e-04  1.541678e-07
    200    166   2   0.50000     0.1150000    0.2000000   2.431434e-04  1.541678e-07
    200    201   2   0.50000     0.1150000    0.1150000   5.042375e-05  1.012808e-08
    164    203   2   0.50000     0.2000000    0.1150000   2.431434e-04  1.541678e-07
    202    161   2   0.50000     0.1150000    0.2000000   2.431434e-04  1.541678e-07
    202    203   2   0.50000     0.1150000    0.1150000   5.042375e-05  1.012808e-08
    159    205   2   0.50000     0.2000000    0.1150000   2.431434e-04  1.541678e-07
    204    156   2   0.50000     0.1150000    0.2000000   2.431434e-04  1.541678e-07
    204    205   2   0.50000     0.1150000    0.1150000   5.042375e-05  1.012808e-08
    175    208   2   0.50000     0.1950000   -0.1150000   1.091018e-03  2.092768e-06
    175    234   2   0.50000     0.1950000   -0.1150000   1.091018e-03  2.092768e-06
    235    208   2   0.50000     0.3800000   -0.1150000   2.144502e-06  1.199282e-11
    235    234   2   0.50000     0.3800000   -0.1150000   2.144502e-06  1.199282e-11
    206    209   2   0.50000    -0.7800000   -0.1150000   1.467648e-03  2.359657e-06
    206    236   2   0.50000    -0.7800000    0.1150000   3.043650e-04  1.550182e-07
    234    209   2   0.50000    -0.1150000   -0.1150000   1.172438e-03  2.346713e-06
    234    236   2   0.50000    -0.1150000    0.1150000   2.431434e-04  1.541678e-07
    206    233   2   0.50000    -0.7800000   -0.1150000   1.467648e-03  2.359657e-06
    206    256   2   0.50000    -0.7800000    0.1150000   3.043650e-04  1.550182e-07
    208    233   2   0.50000    -0.1150000   -0.1150000   1.172438e-03  2.346713e-06
    208    256   2   0.50000    -0.1150000    0.1150000   2.431434e-04  1.541678e-07
    207    210   2   0.50000     0.2000000    0.2000000   1.172438e-03  2.346713e-06
    207    237   2   0.50000     0.2000000    0.1150000   2.431434e-04  1.541678e-07
    236    210   2   0.50000     0.1150000    0.2000000   2.431434e-04  1.541678e-07
    236    237   2   0.50000     0.1150000    0.1150000   5.042375e-05  1.012808e-08
    208    211   2   0.50000    -0.1150000   -0.7800000   1.467648e-03  2.359657e-06
    237    211   2   0.50000     0.1150000   -0.7800000   3.043650e-04  1.550182e-07
    237    233   2   0.50000     0.1150000   -0.1150000   2.431434e-04  1.541678e-07
    209    212   2   0.50000    -0.1150000    0.2000000   1.172438e-03  2.346713e-06
    209    238   2   0.50000    -0.1150000    0.3800000   2.144502e-06  1.199282e-11
    233    212   2   0.50000    -0.1150000    0.2000000   1.172438e-03  2.346713e-06
    233    238   2   0.50000    -0.1150000    0.3800000   2.144502e-06  1.199282e-11
    209    255   2   0.50000    -0.1150000    0.1150000   2.431434e-04  1.541678e-07
    211    234   2   0.50000    -0.7800000   -0.1150000   1.467648e-03  2.359657e-06
    211    255   2   0.50000    -0.7800000    0.1150000   3.043650e-04  1.550182e-07
    210    213   2   0.50000     0.2000000   -0.1150000   1.172438e-03  2.346713e-06
    210    232   2   0.50000     0.2000000   -0.1150000   1.172438e-03  2.346713e-06
    238    213   2   0.50000     0.3800000   -0.1150000   2.144502e-06  1.199282e-11
    238    232   2   0.50000     0.3800000   -0.1150000   2.144502e-06  1.199282e-11
    211    214   2   0.50000    -0.7800000   -0.1150000   1.467648e-03  2.359657e-06
    211    239   2   0.50000    -0.7800000    0.1150000   3.043650e-04  1.550182e-07
    232    214   2   0.50000    -0.1150000   -0.1150000   1.172438e-03  2.346713e-06
    232    239   2   0.50000    -0.1150000    0.1150000   2.431434e-04  1.541678e-07
    211    231   2   0.50000    -0.7800000   -0.1150000   1.467648e-03  2.359657e-06
    211    254   2   0.50000    -0.7800000    0.1150000   3.043650e-04  1.550182e-07
    213    231   2   0.50000    -0.1150000   -0.1150000   1.172438e-03  2.346713e-06
    213    254   2   0.50000    -0.1150000    0.1150000   2.431434e-04  1.541678e-07
    212    215   2   0.50000     0.2000000    0.2000000   1.172438e-03  2.346713e-06
    212    240   2   0.50000     0.2000000    0.1150000   2.431434e-04  1.541678e-07
    239    215   2   0.50000     0.1150000    0.2000000   2.431434e-04  1.541678e-07
    239    240   2   0.50000     0.1150000    0.1150000   5.042375e-05  1.012808e-08
    213    216   2   0.50000    -0.1150000   -0.7800000   1.467648e-03  2.359657e-06
    240    216   2   0.50000     0.1150000   -0.7800000   3.043650e-04  1.550182e-07
    240    231   2   0.50000     0.1150000   -0.1150000   2.431434e-04  1.541678e-07
    214    217   2   0.50000    -0.1150000    0.2000000   1.172438e-03  2.346713e-06
    214    241   2   0.50000    -0.1150000    0.3800000   2.144502e-06  1.199282e-11
    231    217   2   0.50000    -0.1150000    0.2000000   1.172438e-03  2.346713e-06
    231    241   2   0.50000    -0.1150000    0.3800000   2.144502e-06  1.199282e-11
    214    253   2   0.50000    -0.1150000    0.1150000   2.431434e-04  1.541678e-07
    216    232   2   0.50000    -0.7800000   -0.1150000   1.467648e-03  2.359657e-06
    216    253   2   0.50000    -0.7800000    0.1150000   3.043650e-04  1.550182e-07
    215    218   2   0.50000     0.2000000   -0.1150000   1.172438e-03  2.346713e-06
    215    230   2   0.50000     0.2000000   -0.1150000   1.172438e-03  2.346713e-06
    241    218   2   0.50000     0.3800000   -0.1150000   2.144502e-06  1.199282e-11
    241    230   2   0.50000     0.3800000   -0.1150000   2.144502e-06  1.199282e-11
    216    219   2   0.50000    -0.7800000   -0.1150000   1.467648e-03  2.359657e-06
    216    242   2   0.50000    -0.7800000    0.1150000   3.043650e-04  1.550182e-07
    230    219   2   0.50000    -0.1150000   -0.1150000   1.172438e-03  2.346713e-06
    230    242   2   0.50000    -0.1150000    0.1150000   2.431434e-04  1.541678e-07
    216    229   2   0.50000    -0.7800000   -0.1150000   1.467648e-03  2.359657e-06
    216    252   2   0.50000    -0.7800000    0.1150000   3.043650e-04  1.550182e-07
    218    229   2   0.50000    -0.1150000   -0.1150000   1.172438e-03  2.346713e-06
    218    252   2   0.50000    -0.1150000    0.1150000   2.431434e-04  1.541678e-07
    217    220   2   0.50000     0.2000000    0.2000000   1.172438e-03  2.346713e-06
    217    243   2   0.50000     0.2000000    0.1150000   2.431434e-04  1.541678e-07
    242    220   2   0.50000     0.1150000    0.2000000   2.431434e-04  1.541678e-07
    242    243   2   0.50000     0.1150000    0.1150000   5.042375e-05  1.012808e-08
    218    221   2   0.50000    -0.1150000   -0.7800000   1.467648e-03  2.359657e-06
    243    221   2   0.50000     0.1150000   -0.7800000   3.043650e-04  1.550182e-07
    243    229   2   0.50000     0.1150000   -0.1150000   2.431434e-04  1.541678e-07
    219    222   2   0.50000    -0.1150000    0.2000000   1.172438e-03  2.346713e-06
    219    244   2   0.50000    -0.1150000    0.3800000   2.144502e-06  1.199282e-11
    229    222   2   0.50000    -0.1150000    0.2000000   1.172438e-03  2.346713e-06
    229    244   2   0.50000    -0.1150000    0.3800000   2.144502e-06  1.199282e-11
    219    251   2   0.50000    -0.1150000    0.1150000   2.431434e-04  1.541678e-07
    221    230   2   0.50000    -0.7800000   -0.1150000   1.467648e-03  2.359657e-06
    221    251   2   0.50000    -0.7800000    0.1150000   3.043650e-04  1.550182e-07
    220    223   2   0.50000     0.2000000   -0.1150000   1.172438e-03  2.346713e-06
    220    228   2   0.50000     0.2000000   -0.1150000   1.172438e-03  2.346713e-06
    244    223   2   0.50000     0.3800000   -0.1150000   2.144502e-06  1.199282e-11
    244    228   2   0.50000     0.3800000   -0.1150000   2.144502e-06  1.199282e-11
    221    224   2   0.50000    -0.7800000   -0.1150000   1.467648e-03  2.359657e-06
    221    245   2   0.50000    -0.7800000    0.1150000   3.043650e-04  1.550182e-07
    228    224   2   0.50000    -0.1150000   -0.1150000   1.172438e-03  2.346713e-06
    228    245   2   0.50000    -0.1150000    0.1150000   2.431434e-04  1.541678e-07
    221    227   2   0.50000    -0.7800000   -0.1150000   1.467648e-03  2.359657e-06
    221    250   2   0.50000    -0.7800000    0.1150000   3.043650e-04  1.550182e-07
    223    227   2   0.50000    -0.1150000   -0.1150000   1.172438e-03  2.346713e-06
    223    250   2   0.50000    -0.1150000    0.1150000   2.431434e-04  1.541678e-07
    222    225   2   0.50000     0.2000000   -0.1150000   1.172438e-03  2.346713e-06
    222    246   2   0.50000     0.2000000    0.1150000   2.431434e-04  1.541678e-07
    245    225   2   0.50000     0.1150000   -0.1150000   2.431434e-04  1.541678e-07
    245    246   2   0.50000     0.1150000    0.1150000   5.042375e-05  1.012808e-08
    223    226   2   0.50000    -0.1150000    0.1950000   1.091018e-03  2.092768e-06
    246    226   2   0.50000     0.1150000    0.1950000   2.262583e-04  1.374848e-07
    246    227   2   0.50000     0.1150000   -0.1150000   2.431434e-04  1.541678e-07
    224    247   2   0.50000    -0.1150000    0.0600000   2.680627e-04  1.873879e-07
    224    248   2   0.50000    -0.1150000    0.0600000   2.680627e-04  1.873879e-07
    224    257   2   0.50000    -0.1150000   -0.7800000   1.467648e-03  2.359657e-06
    227    247   2   0.50000    -0.1150000    0.0600000   2.680627e-04  1.873879e-07
    227    248   2   0.50000    -0.1150000    0.0600000   2.680627e-04  1.873879e-07
    227    257   2   0.50000    -0.1150000   -0.7800000   1.467648e-03  2.359657e-06
    224    249   2   0.50000    -0.1150000    0.1150000   2.431434e-04  1.541678e-07
    226    228   2   0.50000     0.1950000   -0.1150000   1.091018e-03  2.092768e-06
    226    249   2   0.50000     0.1950000    0.1150000   2.262583e-04  1.374848e-07
    225    258   2   0.50000    -0.1150000    0.2000000   1.172438e-03  2.346713e-06
    225    286   2   0.50000    -0.1150000    0.3800000   2.144502e-06  1.199282e-11
    247    258   2   0.50000     0.0600000    0.2000000   2.680627e-04  1.873879e-07
    247    286   2   0.50000     0.0600000    0.3800000   4.903125e-07  9.576416e-13
    248    258   2   0.50000     0.0600000    0.2000000   2.680627e-04  1.873879e-07
    248    286   2   0.50000     0.0600000    0.3800000   4.903125e-07  9.576416e-13
    225    250   2   0.50000    -0.1150000    0.1150000   2.431434e-04  1.541678e-07
    249    222   2   0.50000     0.1150000    0.2000000   2.431434e-04  1.541678e-07
    249    250   2   0.50000     0.1150000    0.1150000   5.042375e-05  1.012808e-08
    220    252   2   0.50000     0.2000000    0.1150000   2.431434e-04  1.541678e-07
    251    217   2   0.50000     0.1150000    0.2000000   2.431434e-04  1.541678e-07
    251    252   2   0.50000     0.1150000    0.1150000   5.042375e-05  1.012808e-08
    215    254   2   0.50000     0.2000000    0.1150000   2.431434e-04  1.541678e-07
    253    212   2   0.50000     0.1150000    0.2000000   2.431434e-04  1.541678e-07
    253    254   2   0.50000     0.1150000    0.1150000   5.042375e-05  1.012808e-08
    210    256   2   0.50000     0.2000000    0.1150000   2.431434e-04  1.541678e-07
    255    207   2   0.50000     0.1150000    0.2000000   2.431434e-04  1.541678e-07
    255    256   2   0.50000     0.1150000    0.1150000   5.042375e-05  1.012808e-08
    226    259   2   0.50000     0.1950000   -0.1150000   1.091018e-03  2.092768e-06
    226    285   2   0.50000     0.1950000   -0.1150000   1.091018e-03  2.092768e-06
    286    259   2   0.50000     0.3800000   -0.1150000   2.144502e-06  1.199282e-11
    286    285   2   0.50000     0.3800000   -0.1150000   2.144502e-06  1.199282e-11
    257    260   2   0.50000    -0.7800000   -0.1150000   1.467648e-03  2.359657e-06
    257    287   2   0.50000    -0.7800000    0.1150000   3.043650e-04  1.550182e-07
    285    260   2   0.50000    -0.1150000   -0.1150000   1.172438e-03  2.346713e-06
    285    287   2   0.50000    -0.1150000    0.1150000   2.431434e-04  1.541678e-07
    257    284   2   0.50000    -0.7800000   -0.1150000   1.467648e-03  2.359657e-06
    257    307   2   0.50000    -0.7800000    0.1150000   3.043650e-04  1.550182e-07
    259    284   2   0.50000    -0.1150000   -0.1150000   1.172438e-03  2.346713e-06
    259    307   2   0.50000    -0.1150000    0.1150000   2.431434e-04  1.541678e-07
    258    261   2   0.50000     0.2000000    0.2000000   1.172438e-03  2.346713e-06
    258    288   2   0.50000     0.2000000    0.1150000   2.431434e-04  1.541678e-07
    287    261   2   0.50000     0.1150000    0.2000000   2.431434e-04  1.541678e-07
    287    288   2   0.50000     0.1150000    0.1150000   5.042375e-05  1.012808e-08
    259    262   2   0.50000    -0.1150000   -0.7800000   1.467648e-03  2.359657e-06
    288    262   2   0.50000     0.1150000   -0.7800000   3.043650e-04  1.550182e-07
    288    284   2   0.50000     0.1150000   -0.1150000   2.431434e-04  1.541678e-07
    260    263   2   0.50000    -0.1150000    0.2000000   1.172438e-03  2.346713e-06
    260    289   2   0.50000    -0.1150000    0.3800000   2.144502e-06  1.199282e-11
    284    263   2   0.50000    -0.1150000    0.2000000   1.172438e-03  2.346713e-06
    284    289   2   0.50000    -0.1150000    0.3800000   2.144502e-06  1.199282e-11
    260    306   2   0.50000    -0.1150000    0.1150000   2.431434e-04  1.541678e-07
    262    285   2   0.50000    -0.7800000   -0.1150000   1.467648e-03  2.359657e-06
    262    306   2   0.50000    -0.7800000    0.1150000   3.043650e-04  1.550182e-07
    261    264   2   0.50000     0.2000000   -0.1150000   1.172438e-03  2.346713e-06
    261    283   2   0.50000     0.2000000   -0.1150000   1.172438e-03  2.346713e-06
    289    264   2   0.50000     0.3800000   -0.1150000   2.144502e-06  1.199282e-11
    289    283   2   0.50000     0.3800000   -0.1150000   2.144502e-06  1.199282e-11
    262    265   2   0.50000    -0.7800000   -0.1150000   1.467648e-03  2.359657e-06
    262    290   2   0.50000    -0.7800000    0.1150000   3.043650e-04  1.550182e-07
    283    265   2   0.50000    -0.1150000   -0.1150000   1.172438e-03  2.346713e-06
    283    290   2   0.50000    -0.1150000    0.1150000   2.431434e-04  1.541678e-07
    262    282   2   0.50000    -0.7800000   -0.1150000   1.467648e-03  2.359657e-06
    262    305   2   0.50000    -0.7800000    0.1150000   3.043650e-04  1.550182e-07
    264    282   2   0.50000    -0.1150000   -0.1150000   1.172438e-03  2.346713e-06
    264    305   2   0.50000    -0.1150000    0.1150000   2.431434e-04  1.541678e-07
    263    266   2   0.50000     0.2000000    0.2000000   1.172438e-03  2.346713e-06
    263    291   2   0.50000     0.2000000    0.1150000   2.431434e-04  1.541678e-07
    290    266   2   0.50000     0.1150000    0.2000000   2.431434e-04  1.541678e-07
    290    291   2   0.50000     0.1150000    0.1150000   5.042375e-05  1.012808e-08
    264    267   2   0.50000    -0.1150000   -0.7800000   1.467648e-03  2.359657e-06
    291    267   2   0.50000     0.1150000   -0.7800000   3.043650e-04  1.550182e-07
    291    282   2   0.50000     0.1150000   -0.1150000   2.431434e-04  1.541678e-07
    265    268   2   0.50000    -0.1150000    0.2000000   1.172438e-03  2.346713e-06
    265    292   2   0.50000    -0.1150000    0.3800000   2.144502e-06  1.199282e-11
    282    268   2   0.50000    -0.1150000    0.2000000   1.172438e-03  2.346713e-06
    282    292   2   0.50000    -0.1150000    0.3800000   2.144502e-06  1.199282e-11
    265    304   2   0.50000    -0.1150000    0.1150000   2.431434e-04  1.541678e-07
    267    283   2   0.50000    -0.7800000   -0.1150000   1.467648e-03  2.359657e-06
    267    304   2   0.50000    -0.7800000    0.1150000   3.043650e-04  1.550182e-07
    266    269   2   0.50000     0.2000000   -0.1150000   1.172438e-03  2.346713e-06
    266    281   2   0.50000     0.2000000   -0.1150000   1.172438e-03  2.346713e-06
    292    269   2   0.50000     0.3800000   -0.1150000   2.144502e-06  1.199282e-11
    292    281   2   0.50000     0.3800000   -0.1150000   2.144502e-06  1.199282e-11
    267    270   2   0.50000    -0.7800000   -0.1150000   1.467648e-03  2.359657e-06
    267    293   2   0.50000    -0.7800000    0.1150000   3.043650e-04  1.550182e-07
    281    270   2   0.50000    -0.1150000   -0.1150000   1.172438e-03  2.346713e-06
    281    293   2   0.50000    -0.1150000    0.1150000   2.431434e-04  1.541678e-07
    267    280   2   0.50000    -0.7800000   -0.1150000   1.467648e-03  2.359657e-06
    267    303   2   0.50000    -0.7800000    0.1150000   3.043650e-04  1.550182e-07
    269    280   2   0.50000    -0.1150000   -0.1150000   1.172438e-03  2.346713e-06
    269    303   2   0.50000    -0.1150000    0.1150000   2.431434e-04  1.541678e-07
    268    271   2   0.50000     0.2000000    0.2000000   1.172438e-03  2.346713e-06
    268    294   2   0.50000     0.2000000    0.1150000   2.431434e-04  1.541678e-07
    293    271   2   0.50000     0.1150000    0.2000000   2.431434e-04  1.541678e-07
    293    294   2   0.50000     0.1150000    0.1150000   5.042375e-05  1.012808e-08
    269    272   2   0.50000    -0.1150000   -0.7800000   1.467648e-03  2.359657e-06
    294    272   2   0.50000     0.1150000   -0.7800000   3.043650e-04  1.550182e-07
    294    280   2   0.50000     0.1150000   -0.1150000   2.431434e-04  1.541678e-07
    270    273   2   0.50000    -0.1150000    0.2000000   1.172438e-03  2.346713e-06
    270    295   2   0.50000    -0.1150000    0.3800000   2.144502e-06  1.199282e-11
    280    273   2   0.50000    -0.1150000    0.2000000   1.172438e-03  2.346713e-06
    280    295   2   0.50000    -0.1150000    0.3800000   2.144502e-06  1.199282e-11
    270    302   2   0.50000    -0.1150000    0.1150000   2.431434e-04  1.541678e-07
    272    281   2   0.50000    -0.7800000   -0.1150000   1.467648e-03  2.359657e-06
    272    302   2   0.50000    -0.7800000    0.1150000   3.043650e-04  1.550182e-07
    271    274   2   0.50000     0.2000000   -0.1150000   1.172438e-03  2.346713e-06
    271    279   2   0.50000     0.2000000   -0.1150000   1.172438e-03  2.346713e-06
    295    274   2   0.50000     0.3800000   -0.1150000   2.144502e-06  1.199282e-11
    295    279   2   0.50000     0.3800000   -0.1150000   2.144502e-06  1.199282e-11
    272    275   2   0.50000    -0.7800000   -0.1150000   1.467648e-03  2.359657e-06
    272    296   2   0.50000    -0.7800000    0.1150000   3.043650e-04  1.550182e-07
    279    275   2   0.50000    -0.1150000   -0.1150000   1.172438e-03  2.346713e-06
    279    296   2   0.50000    -0.1150000    0.1150000   2.431434e-04  1.541678e-07
    272    278   2   0.50000    -0.7800000   -0.1150000   1.467648e-03  2.359657e-06
    272    301   2   0.50000    -0.7800000    0.1150000   3.043650e-04  1.550182e-07
    274    278   2   0.50000    -0.1150000   -0.1150000   1.172438e-03  2.346713e-06
    274    301   2   0.50000    -0.1150000    0.1150000   2.431434e-04  1.541678e-07
    273    276   2   0.50000     0.2000000   -0.1150000   1.172438e-03  2.346713e-06
    273    297   2   0.50000     0.2000000    0.1150000   2.431434e-04  1.541678e-07
    296    276   2   0.50000     0.1150000   -0.1150000   2.431434e-04  1.541678e-07
    296    297   2   0.50000     0.1150000    0.1150000   5.042375e-05  1.012808e-08
    274    277   2   0.50000    -0.1150000    0.1950000   1.091018e-03  2.092768e-06
    297    277   2   0.50000     0.1150000    0.1950000   2.262583e-04  1.374848e-07
    297    278   2   0.50000     0.1150000   -0.1150000   2.431434e-04  1.541678e-07
    275    298   2   0.50000    -0.1150000    0.0600000   2.680627e-04  1.873879e-07
    275    299   2   0.50000    -0.1150000    0.0600000   2.680627e-04  1.873879e-07
    275    308   2   0.50000    -0.1150000   -0.7800000   1.467648e-03  2.359657e-06
    278    298   2   0.50000    -0.1150000    0.0600000   2.680627e-04  1.873879e-07
    278    299   2   0.50000    -0.1150000    0.0600000   2.680627e-04  1.873879e-07
    278    308   2   0.50000    -0.1150000   -0.7800000   1.467648e-03  2.359657e-06
    275    300   2   0.50000    -0.1150000    0.1150000   2.431434e-04  1.541678e-07
    277    279   2   0.50000     0.1950000   -0.1150000   1.091018e-03  2.092768e-06
    277    300   2   0.50000     0.1950000    0.1150000   2.262583e-04  1.374848e-07
    276    309   2   0.50000    -0.1150000    0.2000000   1.172438e-03  2.346713e-06
    276    337   2   0.50000    -0.1150000    0.3800000   2.144502e-06  1.199282e-11
    298    309   2   0.50000     0.0600000    0.2000000   2.680627e-04  1.873879e-07
    298    337   2   0.50000     0.0600000    0.3800000   4.903125e-07  9.576416e-13
    299    309   2   0.50000     0.0600000    0.2000000   2.680627e-04  1.873879e-07
    299    337   2   0.50000     0.0600000    0.3800000   4.903125e-07  9.576416e-13
    276    301   2   0.50000    -0.1150000    0.1150000   2.431434e-04  1.541678e-07
    300    273   2   0.50000     0.1150000    0.2000000   2.431434e-04  1.541678e-07
    300    301   2   0.50000     0.1150000    0.1150000   5.042375e-05  1.012808e-08
    271    303   2   0.50000     0.2000000    0.1150000   2.431434e-04  1.541678e-07
    302    268   2   0.50000     0.1150000    0.2000000   2.431434e-04  1.541678e-07
    302    303   2   0.50000     0.1150000    0.1150000   5.042375e-05  1.012808e-08
    266    305   2   0.50000     0.2000000    0.1150000   2.431434e-04  1.541678e-07
    304    263   2   0.50000     0.1150000    0.2000000   2.431434e-04  1.541678e-07
    304    305   2   0.50000     0.1150000    0.1150000   5.042375e-05  1.012808e-08
    261    307   2   0.50000     0.2000000    0.1150000   2.431434e-04  1.541678e-07
    306    258   2   0.50000     0.1150000    0.2000000   2.431434e-04  1.541678e-07
    306    307   2   0.50000     0.1150000    0.1150000   5.042375e-05  1.012808e-08
    277    310   2   0.50000     0.1950000   -0.1150000   1.091018e-03  2.092768e-06
    277    336   2   0.50000     0.1950000   -0.1150000   1.091018e-03  2.092768e-06
    337    310   2   0.50000     0.3800000   -0.1150000   2.144502e-06  1.199282e-11
    337    336   2   0.50000     0.3800000   -0.1150000   2.144502e-06  1.199282e-11
    308    311   2   0.50000    -0.7800000   -0.1150000   1.467648e-03  2.359657e-06
    308    338   2   0.50000    -0.7800000    0.1150000   3.043650e-04  1.550182e-07
    336    311   2   0.50000    -0.1150000   -0.1150000   1.172438e-03  2.346713e-06
    336    338   2   0.50000    -0.1150000    0.1150000   2.431434e-04  1.541678e-07
    308    335   2   0.50000    -0.7800000   -0.1150000   1.467648e-03  2.359657e-06
    308    358   2   0.50000    -0.7800000    0.1150000   3.043650e-04  1.550182e-07
    310    335   2   0.50000    -0.1150000   -0.1150000   1.172438e-03  2.346713e-06
    310    358   2   0.50000    -0.1150000    0.1150000   2.431434e-04  1.541678e-07
    309    312   2   0.50000     0.2000000    0.2000000   1.172438e-03  2.346713e-06
    309    339   2   0.50000     0.2000000    0.1150000   2.431434e-04  1.541678e-07
    338    312   2   0.50000     0.1150000    0.2000000   2.431434e-04  1.541678e-07
    338    339   2   0.50000     0.1150000    0.1150000   5.042375e-05  1.012808e-08
    310    313   2   0.50000    -0.1150000   -0.7800000   1.467648e-03  2.359657e-06
    339    313   2   0.50000     0.1150000   -0.7800000   3.043650e-04  1.550182e-07
    339    335   2   0.50000     0.1150000   -0.1150000   2.431434e-04  1.541678e-07
    311    314   2   0.50000    -0.1150000    0.2000000   1.172438e-03  2.346713e-06
    311    340   2   0.50000    -0.1150000    0.3800000   2.144502e-06  1.199282e-11
    335    314   2   0.50000    -0.1150000    0.2000000   1.172438e-03  2.346713e-06
    335    340   2   0.50000    -0.1150000    0.3800000   2.144502e-06  1.199282e-11
    311    357   2   0.50000    -0.1150000    0.1150000   2.431434e-04  1.541678e-07
    313    336   2   0.50000    -0.7800000   -0.1150000   1.467648e-03  2.359657e-06
    313    357   2   0.50000    -0.7800000    0.1150000   3.043650e-04  1.550182e-07
    312    315   2   0.50000     0.2000000   -0.1150000   1.172438e-03  2.346713e-06
    312    334   2   0.50000     0.2000000   -0.1150000   1.172438e-03  2.346713e-06
    340    315   2   0.50000     0.3800000   -0.1150000   2.144502e-06  1.199282e-11
    340    334   2   0.50000     0.3800000   -0.1150000   2.144502e-06  1.199282e-11
    313    316   2   0.50000    -0.7800000   -0.1150000   1.467648e-03  2.359657e-06
    313    341   2   0.50000    -0.7800000    0.1150000   3.043650e-04  1.550182e-07
    334    316   2   0.50000    -0.1150000   -0.1150000   1.172438e-03  2.346713e-06
    334    341   2   0.50000    -0.1150000    0.1150000   2.431434e-04  1.541678e-07
    313    333   2   0.50000    -0.7800000   -0.1150000   1.467648e-03  2.359657e-06
    313    356   2   0.50000    -0.7800000    0.1150000   3.043650e-04  1.550182e-07
    315    333   2   0.50000    -0.1150000   -0.1150000   1.172438e-03  2.346713e-06
    315    356   2   0.50000    -0.1150000    0.1150000   2.431434e-04  1.541678e-07
    314    317   2   0.50000     0.2000000    0.2000000   1.172438e-03  2.346713e-06
    314    342   2   0.50000     0.2000000    0.1150000   2.431434e-04  1.541678e-07
    341    317   2   0.50000     0.1150000    0.2000000   2.431434e-04  1.541678e-07
    341    342   2   0.50000     0.1150000    0.1150000   5.042375e-05  1.012808e-08
    315    318   2   0.50000    -0.1150000   -0.7800000   1.467648e-03  2.359657e-06
    342    318   2   0.50000     0.1150000   -0.7800000   3.043650e-04  1.550182e-07
    342    333   2   0.50000     0.1150000   -0.1150000   2.431434e-04  1.541678e-07
    316    319   2   0.50000    -0.1150000    0.2000000   1.172438e-03  2.346713e-06
    316    343   2   0.50000    -0.1150000    0.3800000   2.144502e-06  1.199282e-11
    333    319   2   0.50000    -0.1150000    0.2000000   1.172438e-03  2.346713e-06
    333    343   2   0.50000    -0.1150000    0.3800000   2.144502e-06  1.199282e-11
    316    355   2   0.50000    -0.1150000    0.1150000   2.431434e-04  1.541678e-07
    318    334   2   0.50000    -0.7800000   -0.1150000   1.467648e-03  2.359657e-06
    318    355   2   0.50000    -0.7800000    0.1150000   3.043650e-04  1.550182e-07
    317    320   2   0.50000     0.2000000   -0.1150000   1.172438e-03  2.346713e-06
    317    332   2   0.50000     0.2000000   -0.1150000   1.172438e-03  2.346713e-06
    343    320   2   0.50000     0.3800000   -0.1150000   2.144502e-06  1.199282e-11
    343    332   2   0.50000     0.3800000   -0.1150000   2.144502e-06  1.199282e-11
    318    321   2   0.50000    -0.7800000   -0.1150000   1.467648e-03  2.359657e-06
    318    344   2   0.50000    -0.7800000    0.1150000   3.043650e-04  1.550182e-07
    332    321   2   0.50000    -0.1150000   -0.1150000   1.172438e-03  2.346713e-06
    332    344   2   0.50000    -0.1150000    0.1150000   2.431434e-04  1.541678e-07
    318    331   2   0.50000    -0.7800000   -0.1150000   1.467648e-03  2.359657e-06
    318    354   2   0.50000    -0.7800000    0.1150000   3.043650e-04  1.550182e-07
    320    331   2   0.50000    -0.1150000   -0.1150000   1.172438e-03  2.346713e-06
    320    354   2   0.50000    -0.1150000    0.1150000   2.431434e-04  1.541678e-07
    319    322   2   0.50000     0.2000000    0.2000000   1.172438e-03  2.346713e-06
    319    345   2   0.50000     0.2000000    0.1150000   2.431434e-04  1.541678e-07
    344    322   2   0.50000     0.1150000    0.2000000   2.431434e-04  1.541678e-07
    344    345   2   0.50000     0.1150000    0.1150000   5.042375e-05  1.012808e-08
    320    323   2   0.50000    -0.1150000   -0.7800000   1.467648e-03  2.359657e-06
    345    323   2   0.50000     0.1150000   -0.7800000   3.043650e-04  1.550182e-07
    345    331   2   0.50000     0.1150000   -0.1150000   2.431434e-04  1.541678e-07
    321    324   2   0.50000    -0.1150000    0.2000000   1.172438e-03  2.346713e-06
    321    346   2   0.50000    -0.1150000    0.3800000   2.144502e-06  1.199282e-11
    331    324   2   0.50000    -0.1150000    0.2000000   1.172438e-03  2.346713e-06
    331    346   2   0.50000    -0.1150000    0.3800000   2.144502e-06  1.199282e-11
    321    353   2   0.50000    -0.1150000    0.1150000   2.431434e-04  1.541678e-07
    323    332   2   0.50000    -0.7800000   -0.1150000   1.467648e-03  2.359657e-06
    323    353   2   0.50000    -0.7800000    0.1150000   3.043650e-04  1.550182e-07
    322    325   2   0.50000     0.2000000   -0.1150000   1.172438e-03  2.346713e-06
    322    330   2   0.50000     0.2000000   -0.1150000   1.172438e-03  2.346713e-06
    346    325   2   0.50000     0.3800000   -0.1150000   2.144502e-06  1.199282e-11
    346    330   2   0.50000     0.3800000   -0.1150000   2.144502e-06  1.199282e-11
    323    326   2   0.50000    -0.7800000   -0.1150000   1.467648e-03  2.359657e-06
    323    347   2   0.50000    -0.7800000    0.1150000   3.043650e-04  1.550182e-07
    330    326   2   0.50000    -0.1150000   -0.1150000   1.172438e-03  2.346713e-06
    330    347   2   0.50000    -0.1150000    0.1150000   2.431434e-04  1.541678e-07
    323    329   2   0.50000    -0.7800000   -0.1150000   1.467648e-03  2.359657e-06
    323    352   2   0.50000    -0.7800000    0.1150000   3.043650e-04  1.550182e-07
    325    329   2   0.50000    -0.1150000   -0.1150000   1.172438e-03  2.346713e-06
    325    352   2   0.50000    -0.1150000    0.1150000   2.431434e-04  1.541678e-07
    324    327   2   0.50000     0.2000000   -0.1150000   1.172438e-03  2.346713e-06
    324    348   2   0.50000     0.2000000    0.1150000   2.431434e-04  1.541678e-07
    347    327   2   0.50000     0.1150000   -0.1150000   2.431434e-04  1.541678e-07
    347    348   2   0.50000     0.1150000    0.1150000   5.042375e-05  1.012808e-08
    325    328   2   0.50000    -0.1150000    0.1950000   1.091018e-03  2.092768e-06
    348    328   2   0.50000     0.1150000    0.1950000   2.262583e-04  1.374848e-07
    348    329   2   0.50000     0.1150000   -0.1150000   2.431434e-04  1.541678e-07
    326    349   2   0.50000    -0.1150000    0.0600000   2.680627e-04  1.873879e-07
    326    350   2   0.50000    -0.1150000    0.0600000   2.680627e-04  1.873879e-07
    326    359   2   0.50000    -0.1150000   -0.7800000   1.467648e-03  2.359657e-06
    329    349   2   0.50000    -0.1150000    0.0600000   2.680627e-04  1.873879e-07
    329    350   2   0.50000    -0.1150000    0.0600000   2.680627e-04  1.873879e-07
    329    359   2   0.50000    -0.1150000   -0.7800000   1.467648e-03  2.359657e-06
    326    351   2   0.50000    -0.1150000    0.1150000   2.431434e-04  1.541678e-07
    328    330   2   0.50000     0.1950000   -0.1150000   1.091018e-03  2.092768e-06
    328    351   2   0.50000     0.1950000    0.1150000   2.262583e-04  1.374848e-07
    327    360   2   0.50000    -0.1150000    0.2000000   1.172438e-03  2.346713e-06
    327    388   2   0.50000    -0.1150000    0.3800000   2.144502e-06  1.199282e-11
    349    360   2   0.50000     0.0600000    0.2000000   2.680627e-04  1.873879e-07
    349    388   2   0.50000     0.0600000    0.3800000   4.903125e-07  9.576416e-13
    350    360   2   0.50000     0.0600000    0.2000000   2.680627e-04  1.873879e-07
    350    388   2   0.50000     0.0600000    0.3800000   4.903125e-07  9.576416e-13
    327    352   2   0.50000    -0.1150000    0.1150000   2.431434e-04  1.541678e-07
    351    324   2   0.50000     0.1150000    0.2000000   2.431434e-04  1.541678e-07
    351    352   2   0.50000     0.1150000    0.1150000   5.042375e-05  1.012808e-08
    322    354   2   0.50000     0.2000000    0.1150000   2.431434e-04  1.541678e-07
    353    319   2   0.50000     0.1150000    0.2000000   2.431434e-04  1.541678e-07
    353    354   2   0.50000     0.1150000    0.1150000   5.042375e-05  1.012808e-08
    317    356   2   0.50000     0.2000000    0.1150000   2.431434e-04  1.541678e-07
    355    314   2   0.50000     0.1150000    0.2000000   2.431434e-04  1.541678e-07
    355    356   2   0.50000     0.1150000    0.1150000   5.042375e-05  1.012808e-08
    312    358   2   0.50000     0.2000000    0.1150000   2.431434e-04  1.541678e-07
    357    309   2   0.50000     0.1150000    0.2000000   2.431434e-04  1.541678e-07
    357    358   2   0.50000     0.1150000    0.1150000   5.042375e-05  1.012808e-08
    328    361   2   0.50000     0.1950000   -0.1150000   1.091018e-03  2.092768e-06
    328    387   2   0.50000     0.1950000   -0.1150000   1.091018e-03  2.092768e-06
    388    361   2   0.50000     0.3800000   -0.1150000   2.144502e-06  1.199282e-11
    388    387   2   0.50000     0.3800000   -0.1150000   2.144502e-06  1.199282e-11
    359    362   2   0.50000    -0.7800000   -0.1150000   1.467648e-03  2.359657e-06
    359    389   2   0.50000    -0.7800000    0.1150000   3.043650e-04  1.550182e-07
    387    362   2   0.50000    -0.1150000   -0.1150000   1.172438e-03  2.346713e-06
    387    389   2   0.50000    -0.1150000    0.1150000   2.431434e-04  1.541678e-07
    359    386   2   0.50000    -0.7800000   -0.1150000   1.467648e-03  2.359657e-06
    359    409   2   0.50000    -0.7800000    0.1150000   3.043650e-04  1.550182e-07
    361    386   2   0.50000    -0.1150000   -0.1150000   1.172438e-03  2.346713e-06
    361    409   2   0.50000    -0.1150000    0.1150000   2.431434e-04  1.541678e-07
    360    363   2   0.50000     0.2000000    0.2000000   1.172438e-03  2.346713e-06
    360    390   2   0.50000     0.2000000    0.1150000   2.431434e-04  1.541678e-07
    389    363   2   0.50000     0.1150000    0.2000000   2.431434e-04  1.541678e-07
    389    390   2   0.50000     0.1150000    0.1150000   5.042375e-05  1.012808e-08
    361    364   2   0.50000    -0.1150000   -0.7800000   1.467648e-03  2.359657e-06
    390    364   2   0.50000     0.1150000   -0.7800000   3.043650e-04  1.550182e-07
    390    386   2   0.50000     0.1150000   -0.1150000   2.431434e-04  1.541678e-07
    362    365   2   0.50000    -0.1150000    0.2000000   1.172438e-03  2.346713e-06
    362    391   2   0.50000    -0.1150000    0.3800000   2.144502e-06  1.199282e-11
    386    365   2   0.50000    -0.1150000    0.2000000   1.172438e-03  2.346713e-06
    386    391   2   0.50000    -0.1150000    0.3800000   2.144502e-06  1.199282e-11
    362    408   2   0.50000    -0.1150000    0.1150000   2.431434e-04  1.541678e-07
    364    387   2   0.50000    -0.7800000   -0.1150000   1.467648e-03  2.359657e-06
    364    408   2   0.50000    -0.7800000    0.1150000   3.043650e-04  1.550182e-07
    363    366   2   0.50000     0.2000000   -0.1150000   1.172438e-03  2.346713e-06
    363    385   2   0.50000     0.2000000   -0.1150000   1.172438e-03  2.346713e-06
    391    366   2   0.50000     0.3800000   -0.1150000   2.144502e-06  1.199282e-11
    391    385   2   0.50000     0.3800000   -0.1150000   2.144502e-06  1.199282e-11
    364    367   2   0.50000    -0.7800000   -0.1150000   1.467648e-03  2.359657e-06
    364    392   2   0.50000    -0.7800000    0.1150000   3.043650e-04  1.550182e-07
    385    367   2   0.50000    -0.1150000   -0.1150000   1.172438e-03  2.346713e-06
    385    392   2   0.50000    -0.1150000    0.1150000   2.431434e-04  1.541678e-07
    364    384   2   0.50000    -0.7800000   -0.1150000   1.467648e-03  2.359657e-06
    364    407   2   0.50000    -0.7800000    0.1150000   3.043650e-04  1.550182e-07
    366    384   2   0.50000    -0.1150000   -0.1150000   1.172438e-03  2.346713e-06
    366    407   2   0.50000    -0.1150000    0.1150000   2.431434e-04  1.541678e-07
    365    368   2   0.50000     0.2000000    0.2000000   1.172438e-03  2.346713e-06
    365    393   2   0.50000     0.2000000    0.1150000   2.431434e-04  1.541678e-07
    392    368   2   0.50000     0.1150000    0.2000000   2.431434e-04  1.541678e-07
    392    393   2   0.50000     0.1150000    0.1150000   5.042375e-05  1.012808e-08
    366    369   2   0.50000    -0.1150000   -0.7800000   1.467648e-03  2.359657e-06
    393    369   2   0.50000     0.1150000   -0.7800000   3.043650e-04  1.550182e-07
    393    384   2   0.50000     0.1150000   -0.1150000   2.431434e-04  1.541678e-07
    367    370   2   0.50000    -0.1150000    0.2000000   1.172438e-03  2.346713e-06
    367    394   2   0.50000    -0.1150000    0.3800000   2.144502e-06  1.199282e-11
    384    370   2   0.50000    -0.1150000    0.2000000   1.172438e-03  2.346713e-06
    384    394   2   0.50000    -0.1150000    0.3800000   2.144502e-06  1.199282e-11
    367    406   2   0.50000    -0.1150000    0.1150000   2.431434e-04  1.541678e-07
    369    385   2   0.50000    -0.7800000   -0.1150000   1.467648e-03  2.359657e-06
    369    406   2   0.50000    -0.7800000    0.1150000   3.043650e-04  1.550182e-07
    368    371   2   0.50000     0.2000000   -0.1150000   1.172438e-03  2.346713e-06
    368    383   2   0.50000     0.2000000   -0.1150000   1.172438e-03  2.346713e-06
    394    371   2   0.50000     0.3800000   -0.1150000   2.144502e-06  1.199282e-11
    394    383   2   0.50000     0.3800000   -0.1150000   2.144502e-06  1.199282e-11
    369    372   2   0.50000    -0.7800000   -0.1150000   1.467648e-03  2.359657e-06
    369    395   2   0.50000    -0.7800000    0.1150000   3.043650e-04  1.550182e-07
    383    372   2   0.50000    -0.1150000   -0.1150000   1.172438e-03  2.346713e-06
    383    395   2   0.50000    -0.1150000    0.1150000   2.431434e-04  1.541678e-07
    369    382   2   0.50000    -0.7800000   -0.1150000   1.467648e-03  2.359657e-06
    369    405   2   0.50000    -0.7800000    0.1150000   3.043650e-04  1.550182e-07
    371    382   2   0.50000    -0.1150000   -0.1150000   1.172438e-03  2.346713e-06
    371    405   2   0.50000    -0.1150000    0.1150000   2.431434e-04  1.541678e-07
    370    373   2   0.50000     0.2000000    0.2000000   1.172438e-03  2.346713e-06
    370    396   2   0.50000     0.2000000    0.1150000   2.431434e-04  1.541678e-07
    395    373   2   0.50000     0.1150000    0.2000000   2.431434e-04  1.541678e-07
    395    396   2   0.50000     0.1150000    0.1150000   5.042375e-05  1.012808e-08
    371    374   2   0.50000    -0.1150000   -0.7800000   1.467648e-03  2.359657e-06
    396    374   2   0.50000     0.1150000   -0.7800000   3.043650e-04  1.550182e-07
    396    382   2   0.50000     0.1150000   -0.1150000   2.431434e-04  1.541678e-07
    372    375   2   0.50000    -0.1150000    0.2000000   1.172438e-03  2.346713e-06
    372    397   2   0.50000    -0.1150000    0.3800000   2.144502e-06  1.199282e-11
    382    375   2   0.50000    -0.1150000    0.2000000   1.172438e-03  2.346713e-06
    382    397   2   0.50000    -0.1150000    0.3800000   2.144502e-06  1.199282e-11
    372    404   2   0.50000    -0.1150000    0.1150000   2.431434e-04  1.541678e-07
    374    383   2   0.50000    -0.7800000   -0.1150000   1.467648e-03  2.359657e-06
    374    404   2   0.50000    -0.7800000    0.1150000   3.043650e-04  1.550182e-07
    373    376   2   0.50000     0.2000000   -0.1150000   1.172438e-03  2.346713e-06
    373    381   2   0.50000     0.2000000   -0.1150000   1.172438e-03  2.346713e-06
    397    376   2   0.50000     0.3800000   -0.1150000   2.144502e-06  1.199282e-11
    397    381   2   0.50000     0.3800000   -0.1150000   2.144502e-06  1.199282e-11
    374    377   2   0.50000    -0.7800000   -0.1150000   1.467648e-03  2.359657e-06
    374    398   2   0.50000    -0.7800000    0.1150000   3.043650e-04  1.550182e-07
    381    377   2   0.50000    -0.1150000   -0.1150000   1.172438e-03  2.346713e-06
    381    398   2   0.50000    -0.1150000    0.1150000   2.431434e-04  1.541678e-07
    374    380   2   0.50000    -0.7800000   -0.1150000   1.467648e-03  2.359657e-06
    374    403   2   0.50000    -0.7800000    0.1150000   3.043650e-04  1.550182e-07
    376    380   2   0.50000    -0.1150000   -0.1150000   1.172438e-03  2.346713e-06
    376    403   2   0.50000    -0.1150000    0.1150000   2.431434e-04  1.541678e-07
    375    378   2   0.50000     0.2000000   -0.1150000   1.172438e-03  2.346713e-06
    375    399   2   0.50000     0.2000000    0.1150000   2.431434e-04  1.541678e-07
    398    378   2   0.50000     0.1150000   -0.1150000   2.431434e-04  1.541678e-07
    398    399   2   0.50000     0.1150000    0.1150000   5.042375e-05  1.012808e-08
    376    379   2   0.50000    -0.1150000    0.1950000   1.091018e-03  2.092768e-06
    399    379   2   0.50000     0.1150000    0.1950000   2.262583e-04  1.374848e-07
    399    380   2   0.50000     0.1150000   -0.1150000   2.431434e-04  1.541678e-07
    377    400   2   0.50000    -0.1150000    0.0600000   2.680627e-04  1.873879e-07
    377    401   2   0.50000    -0.1150000    0.0600000   2.680627e-04  1.873879e-07
    377    410   2   0.50000    -0.1150000   -0.7800000   1.467648e-03  2.359657e-06
    380    400   2   0.50000    -0.1150000    0.0600000   2.680627e-04  1.873879e-07
    380    401   2   0.50000    -0.1150000    0.0600000   2.680627e-04  1.873879e-07
    380    410   2   0.50000    -0.1150000   -0.7800000   1.467648e-03  2.359657e-06
    377    402   2   0.50000    -0.1150000    0.1150000   2.431434e-04  1.541678e-07
    379    381   2   0.50000     0.1950000   -0.1150000   1.091018e-03  2.092768e-06
    379    402   2   0.50000     0.1950000    0.1150000   2.262583e-04  1.374848e-07
    378    411   2   0.50000    -0.1150000    0.2000000   1.172438e-03  2.346713e-06
    378    439   2   0.50000    -0.1150000    0.3800000   2.144502e-06  1.199282e-11
    400    411   2   0.50000     0.0600000    0.2000000   2.680627e-04  1.873879e-07
    400    439   2   0.50000     0.0600000    0.3800000   4.903125e-07  9.576416e-13
    401    411   2   0.50000     0.0600000    0.2000000   2.680627e-04  1.873879e-07
    401    439   2   0.50000     0.0600000    0.3800000   4.903125e-07  9.576416e-13
    378    403   2   0.50000    -0.1150000    0.1150000   2.431434e-04  1.541678e-07
    402    375   2   0.50000     0.1150000    0.2000000   2.431434e-04  1.541678e-07
    402    403   2   0.50000     0.1150000    0.1150000   5.042375e-05  1.012808e-08
    373    405   2   0.50000     0.2000000    0.1150000   2.431434e-04  1.541678e-07
    404    370   2   0.50000     0.1150000    0.2000000   2.431434e-04  1.541678e-07
    404    405   2   0.50000     0.1150000    0.1150000   5.042375e-05  1.012808e-08
    368    407   2   0.50000     0.2000000    0.1150000   2.431434e-04  1.541678e-07
    406    365   2   0.50000     0.1150000    0.2000000   2.431434e-04  1.541678e-07
    406    407   2   0.50000     0.1150000    0.1150000   5.042375e-05  1.012808e-08
    363    409   2   0.50000     0.2000000    0.1150000   2.431434e-04  1.541678e-07
    408    360   2   0.50000     0.1150000    0.2000000   2.431434e-04  1.541678e-07
    408    409   2   0.50000     0.1150000    0.1150000   5.042375e-05  1.012808e-08
    379    412   2   0.50000     0.1950000   -0.1150000   1.091018e-03  2.092768e-06
    379    438   2   0.50000     0.1950000   -0.1150000   1.091018e-03  2.092768e-06
    439    412   2   0.50000     0.3800000   -0.1150000   2.144502e-06  1.199282e-11
    439    438   2   0.50000     0.3800000   -0.1150000   2.144502e-06  1.199282e-11
    410    413   2   0.50000    -0.7800000   -0.1150000   1.467648e-03  2.359657e-06
    410    440   2   0.50000    -0.7800000    0.1150000   3.043650e-04  1.550182e-07
    438    413   2   0.50000    -0.1150000   -0.1150000   1.172438e-03  2.346713e-06
    438    440   2   0.50000    -0.1150000    0.1150000   2.431434e-04  1.541678e-07
    410    437   2   0.50000    -0.7800000   -0.1150000   1.467648e-03  2.359657e-06
    410    460   2   0.50000    -0.7800000    0.1150000   3.043650e-04  1.550182e-07
    412    437   2   0.50000    -0.1150000   -0.1150000   1.172438e-03  2.346713e-06
    412    460   2   0.50000    -0.1150000    0.1150000   2.431434e-04  1.541678e-07
    411    414   2   0.50000     0.2000000    0.2000000   1.172438e-03  2.346713e-06
    411    441   2   0.50000     0.2000000    0.1150000   2.431434e-04  1.541678e-07
    440    414   2   0.50000     0.1150000    0.2000000   2.431434e-04  1.541678e-07
    440    441   2   0.50000     0.1150000    0.1150000   5.042375e-05  1.012808e-08
    412    415   2   0.50000    -0.1150000   -0.7800000   1.467648e-03  2.359657e-06
    441    415   2   0.50000     0.1150000   -0.7800000   3.043650e-04  1.550182e-07
    441    437   2   0.50000     0.1150000   -0.1150000   2.431434e-04  1.541678e-07
    413    416   2   0.50000    -0.1150000    0.2000000   1.172438e-03  2.346713e-06
    413    442   2   0.50000    -0.1150000    0.3800000   2.144502e-06  1.199282e-11
    437    416   2   0.50000    -0.1150000    0.2000000   1.172438e-03  2.346713e-06
    437    442   2   0.50000    -0.1150000    0.3800000   2.144502e-06  1.199282e-11
    413    459   2   0.50000    -0.1150000    0.1150000   2.431434e-04  1.541678e-07
    415    438   2   0.50000    -0.7800000   -0.1150000   1.467648e-03  2.359657e-06
    415    459   2   0.50000    -0.7800000    0.1150000   3.043650e-04  1.550182e-07
    414    417   2   0.50000     0.2000000   -0.1150000   1.172438e-03  2.346713e-06
    414    436   2   0.50000     0.2000000   -0.1150000   1.172438e-03  2.346713e-06
    442    417   2   0.50000     0.3800000   -0.1150000   2.144502e-06  1.199282e-11
    442    436   2   0.50000     0.3800000   -0.1150000   2.144502e-06  1.199282e-11
    415    418   2   0.50000    -0.7800000   -0.1150000   1.467648e-03  2.359657e-06
    415    443   2   0.50000    -0.7800000    0.1150000   3.043650e-04  1.550182e-07
    436    418   2   0.50000    -0.1150000   -0.1150000   1.172438e-03  2.346713e-06
    436    443   2   0.50000    -0.1150000    0.1150000   2.431434e-04  1.541678e-07
    415    435   2   0.50000    -0.7800000   -0.1150000   1.467648e-03  2.359657e-06
    415    458   2   0.50000    -0.7800000    0.1150000   3.043650e-04  1.550182e-07
    417    435   2   0.50000    -0.1150000   -0.1150000   1.172438e-03  2.346713e-06
    417    458   2   0.50000    -0.1150000    0.1150000   2.431434e-04  1.541678e-07
    416    419   2   0.50000     0.2000000    0.2000000   1.172438e-03  2.346713e-06
    416    444   2   0.50000     0.2000000    0.1150000   2.431434e-04  1.541678e-07
    443    419   2   0.50000     0.1150000    0.2000000   2.431434e-04  1.541678e-07
    443    444   2   0.50000     0.1150000    0.1150000   5.042375e-05  1.012808e-08
    417    420   2   0.50000    -0.1150000   -0.7800000   1.467648e-03  2.359657e-06
    444    420   2   0.50000     0.1150000   -0.7800000   3.043650e-04  1.550182e-07
    444    435   2   0.50000     0.1150000   -0.1150000   2.431434e-04  1.541678e-07
    418    421   2   0.50000    -0.1150000    0.2000000   1.172438e-03  2.346713e-06
    418    445   2   0.50000    -0.1150000    0.3800000   2.144502e-06  1.199282e-11
    435    421   2   0.50000    -0.1150000    0.2000000   1.172438e-03  2.346713e-06
    435    445   2   0.50000    -0.1150000    0.3800000   2.144502e-06  1.199282e-11
    418    457   2   0.50000    -0.1150000    0.1150000   2.431434e-04  1.541678e-07
    420    436   2   0.50000    -0.7800000   -0.1150000   1.467648e-03  2.359657e-06
    420    457   2   0.50000    -0.7800000    0.1150000   3.043650e-04  1.550182e-07
    419    422   2   0.50000     0.2000000   -0.1150000   1.172438e-03  2.346713e-06
    419    434   2   0.50000     0.2000000   -0.1150000   1.172438e-03  2.346713e-06
    445    422   2   0.50000     0.3800000   -0.1150000   2.144502e-06  1.199282e-11
    445    434   2   0.50000     0.3800000   -0.1150000   2.144502e-06  1.199282e-11
    420    423   2   0.50000    -0.7800000   -0.1150000   1.467648e-03  2.359657e-06
    420    446   2   0.50000    -0.7800000    0.1150000   3.043650e-04  1.550182e-07
    434    423   2   0.50000    -0.1150000   -0.1150000   1.172438e-03  2.346713e-06
    434    446   2   0.50000    -0.1150000    0.1150000   2.431434e-04  1.541678e-07
    420    433   2   0.50000    -0.7800000   -0.1150000   1.467648e-03  2.359657e-06
    420    456   2   0.50000    -0.7800000    0.1150000   3.043650e-04  1.550182e-07
    422    433   2   0.50000    -0.1150000   -0.1150000   1.172438e-03  2.346713e-06
    422    456   2   0.50000    -0.1150000    0.1150000   2.431434e-04  1.541678e-07
    421    424   2   0.50000     0.2000000    0.2000000   1.172438e-03  2.346713e-06
    421    447   2   0.50000     0.2000000    0.1150000   2.431434e-04  1.541678e-07
    446    424   2   0.50000     0.1150000    0.2000000   2.431434e-04  1.541678e-07
    446    447   2   0.50000     0.1150000    0.1150000   5.042375e-05  1.012808e-08
    422    425   2   0.50000    -0.1150000   -0.7800000   1.467648e-03  2.359657e-06
    447    425   2   0.50000     0.1150000   -0.7800000   3.043650e-04  1.550182e-07
    447    433   2   0.50000     0.1150000   -0.1150000   2.431434e-04  1.541678e-07
    423    426   2   0.50000    -0.1150000    0.2000000   1.172438e-03  2.346713e-06
    423    448   2   0.50000    -0.1150000    0.3800000   2.144502e-06  1.199282e-11
    433    426   2   0.50000    -0.1150000    0.2000000   1.172438e-03  2.346713e-06
    433    448   2   0.50000    -0.1150000    0.3800000   2.144502e-06  1.199282e-11
    423    455   2   0.50000    -0.1150000    0.1150000   2.431434e-04  1.541678e-07
    425    434   2   0.50000    -0.7800000   -0.1150000   1.467648e-03  2.359657e-06
    425    455   2   0.50000    -0.7800000    0.1150000   3.043650e-04  1.550182e-07
    424    427   2   0.50000     0.2000000   -0.1150000   1.172438e-03  2.346713e-06
    424    432   2   0.50000     0.2000000   -0.1150000   1.172438e-03  2.346713e-06
    448    427   2   0.50000     0.3800000   -0.1150000   2.144502e-06  1.199282e-11
    448    432   2   0.50000     0.3800000   -0.1150000   2.144502e-06  1.199282e-11
    425    428   2   0.50000    -0.7800000   -0.1150000   1.467648e-03  2.359657e-06
    425    449   2   0.50000    -0.7800000    0.1150000   3.043650e-04  1.550182e-07
    432    428   2   0.50000    -0.1150000   -0.1150000   1.172438e-03  2.346713e-06
    432    449   2   0.50000    -0.1150000    0.1150000   2.431434e-04  1.541678e-07
    425    431   2   0.50000    -0.7800000   -0.1150000   1.467648e-03  2.359657e-06
    425    454   2   0.50000    -0.7800000    0.1150000   3.043650e-04  1.550182e-07
    427    431   2   0.50000    -0.1150000   -0.1150000   1.172438e-03  2.346713e-06
    427    454   2   0.50000    -0.1150000    0.1150000   2.431434e-04  1.541678e-07
    426    429   2   0.50000     0.2000000   -0.1150000   1.172438e-03  2.346713e-06
    426    450   2   0.50000     0.2000000    0.1150000   2.431434e-04  1.541678e-07
    449    429   2   0.50000     0.1150000   -0.1150000   2.431434e-04  1.541678e-07
    449    450   2   0.50000     0.1150000    0.1150000   5.042375e-05  1.012808e-08
    427    430   2   0.50000    -0.1150000    0.1950000   1.091018e-03  2.092768e-06
    450    430   2   0.50000     0.1150000    0.1950000   2.262583e-04  1.374848e-07
    450    431   2   0.50000     0.1150000   -0.1150000   2.431434e-04  1.541678e-07
    428    451   2   0.50000    -0.1150000    0.0600000   2.680627e-04  1.873879e-07
    428    452   2   0.50000    -0.1150000    0.0600000   2.680627e-04  1.873879e-07
    428    461   2   0.50000    -0.1150000   -0.7800000   1.467648e-03  2.359657e-06
    431    451   2   0.50000    -0.1150000    0.0600000   2.680627e-04  1.873879e-07
    431    452   2   0.50000    -0.1150000    0.0600000   2.680627e-04  1.873879e-07
    431    461   2   0.50000    -0.1150000   -0.7800000   1.467648e-03  2.359657e-06
    428    453   2   0.50000    -0.1150000    0.1150000   2.431434e-04  1.541678e-07
    430    432   2   0.50000     0.1950000   -0.1150000   1.091018e-03  2.092768e-06
    430    453   2   0.50000     0.1950000    0.1150000   2.262583e-04  1.374848e-07
    429    462   2   0.50000    -0.1150000    0.2000000   1.172438e-03  2.346713e-06
    429    490   2   0.50000    -0.1150000    0.3800000   2.144502e-06  1.199282e-11
    451    462   2   0.50000     0.0600000    0.2000000   2.680627e-04  1.873879e-07
    451    490   2   0.50000     0.0600000    0.3800000   4.903125e-07  9.576416e-13
    452    462   2   0.50000     0.0600000    0.2000000   2.680627e-04  1.873879e-07
    452    490   2   0.50000     0.0600000    0.3800000   4.903125e-07  9.576416e-13
    429    454   2   0.50000    -0.1150000    0.1150000   2.431434e-04  1.541678e-07
    453    426   2   0.50000     0.1150000    0.2000000   2.431434e-04  1.541678e-07
    453    454   2   0.50000     0.1150000    0.1150000   5.042375e-05  1.012808e-08
    424    456   2   0.50000     0.2000000    0.1150000   2.431434e-04  1.541678e-07
    455    421   2   0.50000     0.1150000    0.2000000   2.431434e-04  1.541678e-07
    455    456   2   0.50000     0.1150000    0.1150000   5.042375e-05  1.012808e-08
    419    458   2   0.50000     0.2000000    0.1150000   2.431434e-04  1.541678e-07
    457    416   2   0.50000     0.1150000    0.2000000   2.431434e-04  1.541678e-07
    457    458   2   0.50000     0.1150000    0.1150000   5.042375e-05  1.012808e-08
    414    460   2   0.50000     0.2000000    0.1150000   2.431434e-04  1.541678e-07
    459    411   2   0.50000     0.1150000    0.2000000   2.431434e-04  1.541678e-07
    459    460   2   0.50000     0.1150000    0.1150000   5.042375e-05  1.012808e-08
    430    463   2   0.50000     0.1950000   -0.1150000   1.091018e-03  2.092768e-06
    430    489   2   0.50000     0.1950000   -0.1150000   1.091018e-03  2.092768e-06
    490    463   2   0.50000     0.3800000   -0.1150000   2.144502e-06  1.199282e-11
    490    489   2   0.50000     0.3800000   -0.1150000   2.144502e-06  1.199282e-11
    461    464   2   0.50000    -0.7800000   -0.1150000   1.467648e-03  2.359657e-06
    461    491   2   0.50000    -0.7800000    0.1150000   3.043650e-04  1.550182e-07
    489    464   2   0.50000    -0.1150000   -0.1150000   1.172438e-03  2.346713e-06
    489    491   2   0.50000    -0.1150000    0.1150000   2.431434e-04  1.541678e-07
    461    488   2   0.50000    -0.7800000   -0.1150000   1.467648e-03  2.359657e-06
    461    511   2   0.50000    -0.7800000    0.1150000   3.043650e-04  1.550182e-07
    463    488   2   0.50000    -0.1150000   -0.1150000   1.172438e-03  2.346713e-06
    463    511   2   0.50000    -0.1150000    0.1150000   2.431434e-04  1.541678e-07
    462    465   2   0.50000     0.2000000    0.2000000   1.172438e-03  2.346713e-06
    462    492   2   0.50000     0.2000000    0.1150000   2.431434e-04  1.541678e-07
    491    465   2   0.50000     0.1150000    0.2000000   2.431434e-04  1.541678e-07
    491    492   2   0.50000     0.1150000    0.1150000   5.042375e-05  1.012808e-08
    463    466   2   0.50000    -0.1150000   -0.7800000   1.467648e-03  2.359657e-06
    492    466   2   0.50000     0.1150000   -0.7800000   3.043650e-04  1.550182e-07
    492    488   2   0.50000     0.1150000   -0.1150000   2.431434e-04  1.541678e-07
    464    467   2   0.50000    -0.1150000    0.2000000   1.172438e-03  2.346713e-06
    464    493   2   0.50000    -0.1150000    0.3800000   2.144502e-06  1.199282e-11
    488    467   2   0.50000    -0.1150000    0.2000000   1.172438e-03  2.346713e-06
    488    493   2   0.50000    -0.1150000    0.3800000   2.144502e-06  1.199282e-11
    464    510   2   0.50000    -0.1150000    0.1150000   2.431434e-04  1.541678e-07
    466    489   2   0.50000    -0.7800000   -0.1150000   1.467648e-03  2.359657e-06
    466    510   2   0.50000    -0.7800000    0.1150000   3.043650e-04  1.550182e-07
    465    468   2   0.50000     0.2000000   -0.1150000   1.172438e-03  2.346713e-06
    465    487   2   0.50000     0.2000000   -0.1150000   1.172438e-03  2.346713e-06
    493    468   2   0.50000     0.3800000   -0.1150000   2.144502e-06  1.199282e-11
    493    487   2   0.50000     0.3800000   -0.1150000   2.144502e-06  1.199282e-11
    466    469   2   0.50000    -0.7800000   -0.1150000   1.467648e-03  2.359657e-06
    466    494   2   0.50000    -0.7800000    0.1150000   3.043650e-04  1.550182e-07
    487    469   2   0.50000    -0.1150000   -0.1150000   1.172438e-03  2.346713e-06
    487    494   2   0.50000    -0.1150000    0.1150000   2.431434e-04  1.541678e-07
    466    486   2   0.50000    -0.7800000   -0.1150000   1.467648e-03  2.359657e-06
    466    509   2   0.50000    -0.7800000    0.1150000   3.043650e-04  1.550182e-07
    468    486   2   0.50000    -0.1150000   -0.1150000   1.172438e-03  2.346713e-06
    468    509   2   0.50000    -0.1150000    0.1150000   2.431434e-04  1.541678e-07
    467    470   2   0.50000     0.2000000    0.2000000   1.172438e-03  2.346713e-06
    467    495   2   0.50000     0.2000000    0.1150000   2.431434e-04  1.541678e-07
    494    470   2   0.50000     0.1150000    0.2000000   2.431434e-04  1.541678e-07
    494    495   2   0.50000     0.1150000    0.1150000   5.042375e-05  1.012808e-08
    468    471   2   0.50000    -0.1150000   -0.7800000   1.467648e-03  2.359657e-06
    495    471   2   0.50000     0.1150000   -0.7800000   3.043650e-04  1.550182e-07
    495    486   2   0.50000     0.1150000   -0.1150000   2.431434e-04  1.541678e-07
    469    472   2   0.50000    -0.1150000    0.2000000   1.172438e-03  2.346713e-06
    469    496   2   0.50000    -0.1150000    0.3800000   2.144502e-06  1.199282e-11
    486    472   2   0.50000    -0.1150000    0.2000000   1.172438e-03  2.346713e-06
    486    496   2   0.50000    -0.1150000    0.3800000   2.144502e-06  1.199282e-11
    469    508   2   0.50000    -0.1150000    0.1150000   2.431434e-04  1.541678e-07
    471    487   2   0.50000    -0.7800000   -0.1150000   1.467648e-03  2.359657e-06
    471    508   2   0.50000    -0.7800000    0.1150000   3.043650e-04  1.550182e-07
    470    473   2   0.50000     0.2000000   -0.1150000   1.172438e-03  2.346713e-06
    470    485   2   0.50000     0.2000000   -0.1150000   1.172438e-03  2.346713e-06
    496    473   2   0.50000     0.3800000   -0.1150000   2.144502e-06  1.199282e-11
    496    485   2   0.50000     0.3800000   -0.1150000   2.144502e-06  1.199282e-11
    471    474   2   0.50000    -0.7800000   -0.1150000   1.467648e-03  2.359657e-06
    471    497   2   0.50000    -0.7800000    0.1150000   3.043650e-04  1.550182e-07
    485    474   2   0.50000    -0.1150000   -0.1150000   1.172438e-03  2.346713e-06
    485    497   2   0.50000    -0.1150000    0.1150000   2.431434e-04  1.541678e-07
    471    484   2   0.50000    -0.7800000   -0.1150000   1.467648e-03  2.359657e-06
    471    507   2   0.50000    -0.7800000    0.1150000   3.043650e-04  1.550182e-07
    473    484   2   0.50000    -0.1150000   -0.1150000   1.172438e-03  2.346713e-06
    473    507   2   0.50000    -0.1150000    0.1150000   2.431434e-04  1.541678e-07
    472    475   2   0.50000     0.2000000    0.2000000   1.172438e-03  2.346713e-06
    472    498   2   0.50000     0.2000000    0.1150000   2.431434e-04  1.541678e-07
    497    475   2   0.50000     0.1150000    0.2000000   2.431434e-04  1.541678e-07
    497    498   2   0.50000     0.1150000    0.1150000   5.042375e-05  1.012808e-08
    473    476   2   0.50000    -0.1150000   -0.7800000   1.467648e-03  2.359657e-06
    498    476   2   0.50000     0.1150000   -0.7800000   3.043650e-04  1.550182e-07
    498    484   2   0.50000     0.1150000   -0.1150000   2.431434e-04  1.541678e-07
    474    477   2   0.50000    -0.1150000    0.2000000   1.172438e-03  2.346713e-06
    474    499   2   0.50000    -0.1150000    0.3800000   2.144502e-06  1.199282e-11
    484    477   2   0.50000    -0.1150000    0.2000000   1.172438e-03  2.346713e-06
    484    499   2   0.50000    -0.1150000    0.3800000   2.144502e-06  1.199282e-11
    474    506   2   0.50000    -0.1150000    0.1150000   2.431434e-04  1.541678e-07
    476    485   2   0.50000    -0.7800000   -0.1150000   1.467648e-03  2.359657e-06
    476    506   2   0.50000    -0.7800000    0.1150000   3.043650e-04  1.550182e-07
    475    478   2   0.50000     0.2000000   -0.1150000   1.172438e-03  2.346713e-06
    475    483   2   0.50000     0.2000000   -0.1150000   1.172438e-03  2.346713e-06
    499    478   2   0.50000     0.3800000   -0.1150000   2.144502e-06  1.199282e-11
    499    483   2   0.50000     0.3800000   -0.1150000   2.144502e-06  1.199282e-11
    476    479   2   0.50000    -0.7800000   -0.1150000   1.467648e-03  2.359657e-06
    476    500   2   0.50000    -0.7800000    0.1150000   3.043650e-04  1.550182e-07
    483    479   2   0.50000    -0.1150000   -0.1150000   1.172438e-03  2.346713e-06
    483    500   2   0.50000    -0.1150000    0.1150000   2.431434e-04  1.541678e-07
    476    482   2   0.50000    -0.7800000   -0.1150000   1.467648e-03  2.359657e-06
    476    505   2   0.50000    -0.7800000    0.1150000   3.043650e-04  1.550182e-07
    478    482   2   0.50000    -0.1150000   -0.1150000   1.172438e-03  2.346713e-06
    478    505   2   0.50000    -0.1150000    0.1150000   2.431434e-04  1.541678e-07
    477    480   2   0.50000     0.2000000   -0.1150000   1.172438e-03  2.346713e-06
    477    501   2   0.50000     0.2000000    0.1150000   2.431434e-04  1.541678e-07
    500    480   2   0.50000     0.1150000   -0.1150000   2.431434e-04  1.541678e-07
    500    501   2   0.50000     0.1150000    0.1150000   5.042375e-05  1.012808e-08
    478    481   2   0.50000    -0.1150000    0.1950000   1.091018e-03  2.092768e-06
    501    481   2   0.50000     0.1150000    0.1950000   2.262583e-04  1.374848e-07
    501    482   2   0.50000     0.1150000   -0.1150000   2.431434e-04  1.541678e-07
    479    502   2   0.50000    -0.1150000    0.0600000   2.680627e-04  1.873879e-07
    479    503   2   0.50000    -0.1150000    0.0600000   2.680627e-04  1.873879e-07
    479    512   2   0.50000    -0.1150000   -0.7800000   1.467648e-03  2.359657e-06
    482    502   2   0.50000    -0.1150000    0.0600000   2.680627e-04  1.873879e-07
    482    503   2   0.50000    -0.1150000    0.0600000   2.680627e-04  1.873879e-07
    482    512   2   0.50000    -0.1150000   -0.7800000   1.467648e-03  2.359657e-06
    479    504   2   0.50000    -0.1150000    0.1150000   2.431434e-04  1.541678e-07
    481    483   2   0.50000     0.1950000   -0.1150000   1.091018e-03  2.092768e-06
    481    504   2   0.50000     0.1950000    0.1150000   2.262583e-04  1.374848e-07
    480    513   2   0.50000    -0.1150000    0.2000000   1.172438e-03  2.346713e-06
    480    541   2   0.50000    -0.1150000    0.3800000   2.144502e-06  1.199282e-11
    502    513   2   0.50000     0.0600000    0.2000000   2.680627e-04  1.873879e-07
    502    541   2   0.50000     0.0600000    0.3800000   4.903125e-07  9.576416e-13
    503    513   2   0.50000     0.0600000    0.2000000   2.680627e-04  1.873879e-07
    503    541   2   0.50000     0.0600000    0.3800000   4.903125e-07  9.576416e-13
    480    505   2   0.50000    -0.1150000    0.1150000   2.431434e-04  1.541678e-07
    504    477   2   0.50000     0.1150000    0.2000000   2.431434e-04  1.541678e-07
    504    505   2   0.50000     0.1150000    0.1150000   5.042375e-05  1.012808e-08
    475    507   2   0.50000     0.2000000    0.1150000   2.431434e-04  1.541678e-07
    506    472   2   0.50000     0.1150000    0.2000000   2.431434e-04  1.541678e-07
    506    507   2   0.50000     0.1150000    0.1150000   5.042375e-05  1.012808e-08
    470    509   2   0.50000     0.2000000    0.1150000   2.431434e-04  1.541678e-07
    508    467   2   0.50000     0.1150000    0.2000000   2.431434e-04  1.541678e-07
    508    509   2   0.50000     0.1150000    0.1150000   5.042375e-05  1.012808e-08
    465    511   2   0.50000     0.2000000    0.1150000   2.431434e-04  1.541678e-07
    510    462   2   0.50000     0.1150000    0.2000000   2.431434e-04  1.541678e-07
    510    511   2   0.50000     0.1150000    0.1150000   5.042375e-05  1.012808e-08
    481    514   2   0.50000     0.1950000   -0.1150000   1.091018e-03  2.092768e-06
    481    540   2   0.50000     0.1950000   -0.1150000   1.091018e-03  2.092768e-06
    541    514   2   0.50000     0.3800000   -0.1150000   2.144502e-06  1.199282e-11
    541    540   2   0.50000     0.3800000   -0.1150000   2.144502e-06  1.199282e-11
    512    515   2   0.50000    -0.7800000   -0.1150000   1.467648e-03  2.359657e-06
    512    542   2   0.50000    -0.7800000    0.1150000   3.043650e-04  1.550182e-07
    540    515   2   0.50000    -0.1150000   -0.1150000   1.172438e-03  2.346713e-06
    540    542   2   0.50000    -0.1150000    0.1150000   2.431434e-04  1.541678e-07
    512    539   2   0.50000    -0.7800000   -0.1150000   1.467648e-03  2.359657e-06
    512    562   2   0.50000    -0.7800000    0.1150000   3.043650e-04  1.550182e-07
    514    539   2   0.50000    -0.1150000   -0.1150000   1.172438e-03  2.346713e-06
    514    562   2   0.50000    -0.1150000    0.1150000   2.431434e-04  1.541678e-07
    513    516   2   0.50000     0.2000000    0.2000000   1.172438e-03  2.346713e-06
    513    543   2   0.50000     0.2000000    0.1150000   2.431434e-04  1.541678e-07
    542    516   2   0.50000     0.1150000    0.2000000   2.431434e-04  1.541678e-07
    542    543   2   0.50000     0.1150000    0.1150000   5.042375e-05  1.012808e-08
    514    517   2   0.50000    -0.1150000   -0.7800000   1.467648e-03  2.359657e-06
    543    517   2   0.50000     0.1150000   -0.7800000   3.043650e-04  1.550182e-07
    543    539   2   0.50000     0.1150000   -0.1150000   2.431434e-04  1.541678e-07
    515    518   2   0.50000    -0.1150000    0.2000000   1.172438e-03  2.346713e-06
    515    544   2   0.50000    -0.1150000    0.3800000   2.144502e-06  1.199282e-11
    539    518   2   0.50000    -0.1150000    0.2000000   1.172438e-03  2.346713e-06
    539    544   2   0.50000    -0.1150000    0.3800000   2.144502e-06  1.199282e-11
    515    561   2   0.50000    -0.1150000    0.1150000   2.431434e-04  1.541678e-07
    517    540   2   0.50000    -0.7800000   -0.1150000   1.467648e-03  2.359657e-06
    517    561   2   0.50000    -0.7800000    0.1150000   3.043650e-04  1.550182e-07
    516    519   2   0.50000     0.2000000   -0.1150000   1.172438e-03  2.346713e-06
    516    538   2   0.50000     0.2000000   -0.1150000   1.172438e-03  2.346713e-06
    544    519   2   0.50000     0.3800000   -0.1150000   2.144502e-06  1.199282e-11
    544    538   2   0.50000     0.3800000   -0.1150000   2.144502e-06  1.199282e-11
    517    520   2   0.50000    -0.7800000   -0.1150000   1.467648e-03  2.359657e-06
    517    545   2   0.50000    -0.7800000    0.1150000   3.043650e-04  1.550182e-07
    538    520   2   0.50000    -0.1150000   -0.1150000   1.172438e-03  2.346713e-06
    538    545   2   0.50000    -0.1150000    0.1150000   2.431434e-04  1.541678e-07
    517    537   2   0.50000    -0.7800000   -0.1150000   1.467648e-03  2.359657e-06
    517    560   2   0.50000    -0.7800000    0.1150000   3.043650e-04  1.550182e-07
    519    537   2   0.50000    -0.1150000   -0.1150000   1.172438e-03  2.346713e-06
    519    560   2   0.50000    -0.1150000    0.1150000   2.431434e-04  1.541678e-07
    518    521   2   0.50000     0.2000000    0.2000000   1.172438e-03  2.346713e-06
    518    546   2   0.50000     0.2000000    0.1150000   2.431434e-04  1.541678e-07
    545    521   2   0.50000     0.1150000    0.2000000   2.431434e-04  1.541678e-07
    545    546   2   0.50000     0.1150000    0.1150000   5.042375e-05  1.012808e-08
    519    522   2   0.50000    -0.1150000   -0.7800000   1.467648e-03  2.359657e-06
    546    522   2   0.50000     0.1150000   -0.7800000   3.043650e-04  1.550182e-07
    546    537   2   0.50000     0.1150000   -0.1150000   2.431434e-04  1.541678e-07
    520    523   2   0.50000    -0.1150000    0.2000000   1.172438e-03  2.346713e-06
    520    547   2   0.50000    -0.1150000    0.3800000   2.144502e-06  1.199282e-11
    537    523   2   0.50000    -0.1150000    0.2000000   1.172438e-03  2.346713e-06
    537    547   2   0.50000    -0.1150000    0.3800000   2.144502e-06  1.199282e-11
    520    559   2   0.50000    -0.1150000    0.1150000   2.431434e-04  1.541678e-07
    522    538   2   0.50000    -0.7800000   -0.1150000   1.467648e-03  2.359657e-06
    522    559   2   0.50000    -0.7800000    0.1150000   3.043650e-04  1.550182e-07
    521    524   2   0.50000     0.2000000   -0.1150000   1.172438e-03  2.346713e-06
    521    536   2   0.50000     0.2000000   -0.1150000   1.172438e-03  2.346713e-06
    547    524   2   0.50000     0.3800000   -0.1150000   2.144502e-06  1.199282e-11
    547    536   2   0.50000     0.3800000   -0.1150000   2.144502e-06  1.199282e-11
    522    525   2   0.50000    -0.7800000   -0.1150000   1.467648e-03  2.359657e-06
    522    548   2   0.50000    -0.7800000    0.1150000   3.043650e-04  1.550182e-07
    536    525   2   0.50000    -0.1150000   -0.1150000   1.172438e-03  2.346713e-06
    536    548   2   0.50000    -0.1150000    0.1150000   2.431434e-04  1.541678e-07
    522    535   2   0.50000    -0.7800000   -0.1150000   1.467648e-03  2.359657e-06
    522    558   2   0.50000    -0.7800000    0.1150000   3.043650e-04  1.550182e-07
    524    535   2   0.50000    -0.1150000   -0.1150000   1.172438e-03  2.346713e-06
    524    558   2   0.50000    -0.1150000    0.1150000   2.431434e-04  1.541678e-07
    523    526   2   0.50000     0.2000000    0.2000000   1.172438e-03  2.346713e-06
    523    549   2   0.50000     0.2000000    0.1150000   2.431434e-04  1.541678e-07
    548    526   2   0.50000     0.1150000    0.2000000   2.431434e-04  1.541678e-07
    548    549   2   0.50000     0.1150000    0.1150000   5.042375e-05  1.012808e-08
    524    527   2   0.50000    -0.1150000   -0.7800000   1.467648e-03  2.359657e-06
    549    527   2   0.50000     0.1150000   -0.7800000   3.043650e-04  1.550182e-07
    549    535   2   0.50000     0.1150000   -0.1150000   2.431434e-04  1.541678e-07
    525    528   2   0.50000    -0.1150000    0.2000000   1.172438e-03  2.346713e-06
    525    550   2   0.50000    -0.1150000    0.3800000   2.144502e-06  1.199282e-11
    535    528   2   0.50000    -0.1150000    0.2000000   1.172438e-03  2.346713e-06
    535    550   2   0.50000    -0.1150000    0.3800000   2.144502e-06  1.199282e-11
    525    557   2   0.50000    -0.1150000    0.1150000   2.431434e-04  1.541678e-07
    527    536   2   0.50000    -0.7800000   -0.1150000   1.467648e-03  2.359657e-06
    527    557   2   0.50000    -0.7800000    0.1150000   3.043650e-04  1.550182e-07
    526    529   2   0.50000     0.2000000   -0.1150000   1.172438e-03  2.346713e-06
    526    534   2   0.50000     0.2000000   -0.1150000   1.172438e-03  2.346713e-06
    550    529   2   0.50000     0.3800000   -0.1150000   2.144502e-06  1.199282e-11
    550    534   2   0.50000     0.3800000   -0.1150000   2.144502e-06  1.199282e-11
    527    530   2   0.50000    -0.7800000   -0.1150000   1.467648e-03  2.359657e-06
    527    551   2   0.50000    -0.7800000    0.1150000   3.043650e-04  1.550182e-07
    534    530   2   0.50000    -0.1150000   -0.1150000   1.172438e-03  2.346713e-06
    534    551   2   0.50000    -0.1150000    0.1150000   2.431434e-04  1.541678e-07
    527    533   2   0.50000    -0.7800000   -0.1150000   1.467648e-03  2.359657e-06
    527    556   2   0.50000    -0.7800000    0.1150000   3.043650e-04  1.550182e-07
    529    533   2   0.50000    -0.1150000   -0.1150000   1.172438e-03  2.346713e-06
    529    556   2   0.50000    -0.1150000    0.1150000   2.431434e-04  1.541678e-07
    528    531   2   0.50000     0.2000000   -0.1150000   1.172438e-03  2.346713e-06
    528    552   2   0.50000     0.2000000    0.1150000   2.431434e-04  1.541678e-07
    551    531   2   0.50000     0.1150000   -0.1150000   2.431434e-04  1.541678e-07
    551    552   2   0.50000     0.1150000    0.1150000   5.042375e-05  1.012808e-08
    529    532   2   0.50000    -0.1150000    0.1950000   1.091018e-03  2.092768e-06
    552    532   2   0.50000     0.1150000    0.1950000   2.262583e-04  1.374848e-07
    552    533   2   0.50000     0.1150000   -0.1150000   2.431434e-04  1.541678e-07
    530    553   2   0.50000    -0.1150000    0.0600000   2.680627e-04  1.873879e-07
    530    554   2   0.50000    -0.1150000    0.0600000   2.680627e-04  1.873879e-07
    530    563   2   0.50000    -0.1150000   -0.7800000   1.467648e-03  2.359657e-06
    533    553   2   0.50000    -0.1150000    0.0600000   2.680627e-04  1.873879e-07
    533    554   2   0.50000    -0.1150000    0.0600000   2.680627e-04  1.873879e-07
    533    563   2   0.50000    -0.1150000   -0.7800000   1.467648e-03  2.359657e-06
    530    555   2   0.50000    -0.1150000    0.1150000   2.431434e-04  1.541678e-07
    532    534   2   0.50000     0.1950000   -0.1150000   1.091018e-03  2.092768e-06
    532    555   2   0.50000     0.1950000    0.1150000   2.262583e-04  1.374848e-07
    531    564   2   0.50000    -0.1150000    0.2000000   1.172438e-03  2.346713e-06
    531    592   2   0.50000    -0.1150000    0.3800000   2.144502e-06  1.199282e-11
    553    564   2   0.50000     0.0600000    0.2000000   2.680627e-04  1.873879e-07
    553    592   2   0.50000     0.0600000    0.3800000   4.903125e-07  9.576416e-13
    554    564   2   0.50000     0.0600000    0.2000000   2.680627e-04  1.873879e-07
    554    592   2   0.50000     0.0600000    0.3800000   4.903125e-07  9.576416e-13
    531    556   2   0.50000    -0.1150000    0.1150000   2.431434e-04  1.541678e-07
    555    528   2   0.50000     0.1150000    0.2000000   2.431434e-04  1.541678e-07
    555    556   2   0.50000     0.1150000    0.1150000   5.042375e-05  1.012808e-08
    526    558   2   0.50000     0.2000000    0.1150000   2.431434e-04  1.541678e-07
    557    523   2   0.50000     0.1150000    0.2000000   2.431434e-04  1.541678e-07
    557    558   2   0.50000     0.1150000    0.1150000   5.042375e-05  1.012808e-08
    521    560   2   0.50000     0.2000000    0.1150000   2.431434e-04  1.541678e-07
    559    518   2   0.50000     0.1150000    0.2000000   2.431434e-04  1.541678e-07
    559    560   2   0.50000     0.1150000    0.1150000   5.042375e-05  1.012808e-08
    516    562   2   0.50000     0.2000000    0.1150000   2.431434e-04  1.541678e-07
    561    513   2   0.50000     0.1150000    0.2000000   2.431434e-04  1.541678e-07
    561    562   2   0.50000     0.1150000    0.1150000   5.042375e-05  1.012808e-08
    532    565   2   0.50000     0.1950000   -0.1150000   1.091018e-03  2.092768e-06
    532    591   2   0.50000     0.1950000   -0.1150000   1.091018e-03  2.092768e-06
    592    565   2   0.50000     0.3800000   -0.1150000   2.144502e-06  1.199282e-11
    592    591   2   0.50000     0.3800000   -0.1150000   2.144502e-06  1.199282e-11
    563    566   2   0.50000    -0.7800000   -0.1150000   1.467648e-03  2.359657e-06
    563    593   2   0.50000    -0.7800000    0.1150000   3.043650e-04  1.550182e-07
    591    566   2   0.50000    -0.1150000   -0.1150000   1.172438e-03  2.346713e-06
    591    593   2   0.50000    -0.1150000    0.1150000   2.431434e-04  1.541678e-07
    563    590   2   0.50000    -0.7800000   -0.1150000   1.467648e-03  2.359657e-06
    563    613   2   0.50000    -0.7800000    0.1150000   3.043650e-04  1.550182e-07
    565    590   2   0.50000    -0.1150000   -0.1150000   1.172438e-03  2.346713e-06
    565    613   2   0.50000    -0.1150000    0.1150000   2.431434e-04  1.541678e-07
    564    567   2   0.50000     0.2000000    0.2000000   1.172438e-03  2.346713e-06
    564    594   2   0.50000     0.2000000    0.1150000   2.431434e-04  1.541678e-07
    593    567   2   0.50000     0.1150000    0.2000000   2.431434e-04  1.541678e-07
    593    594   2   0.50000     0.1150000    0.1150000   5.042375e-05  1.012808e-08
    565    568   2   0.50000    -0.1150000   -0.7800000   1.467648e-03  2.359657e-06
    594    568   2   0.50000     0.1150000   -0.7800000   3.043650e-04  1.550182e-07
    594    590   2   0.50000     0.1150000   -0.1150000   2.431434e-04  1.541678e-07
    566    569   2   0.50000    -0.1150000    0.2000000   1.172438e-03  2.346713e-06
    566    595   2   0.50000    -0.1150000    0.3800000   2.144502e-06  1.199282e-11
    590    569   2   0.50000    -0.1150000    0.2000000   1.172438e-03  2.346713e-06
    590    595   2   0.50000    -0.1150000    0.3800000   2.144502e-06  1.199282e-11
    566    612   2   0.50000    -0.1150000    0.1150000   2.431434e-04  1.541678e-07
    568    591   2   0.50000    -0.7800000   -0.1150000   1.467648e-03  2.359657e-06
    568    612   2   0.50000    -0.7800000    0.1150000   3.043650e-04  1.550182e-07
    567    570   2   0.50000     0.2000000   -0.1150000   1.172438e-03  2.346713e-06
    567    589   2   0.50000     0.2000000   -0.1150000   1.172438e-03  2.346713e-06
    595    570   2   0.50000     0.3800000   -0.1150000   2.144502e-06  1.199282e-11
    595    589   2   0.50000     0.3800000   -0.1150000   2.144502e-06  1.199282e-11
    568    571   2   0.50000    -0.7800000   -0.1150000   1.467648e-03  2.359657e-06
    568    596   2   0.50000    -0.7800000    0.1150000   3.043650e-04  1.550182e-07
    589    571   2   0.50000    -0.1150000   -0.1150000   1.172438e-03  2.346713e-06
    589    596   2   0.50000    -0.1150000    0.1150000   2.431434e-04  1.541678e-07
    568    588   2   0.50000    -0.7800000   -0.1150000   1.467648e-03  2.359657e-06
    568    611   2   0.50000    -0.7800000    0.1150000   3.043650e-04  1.550182e-07
    570    588   2   0.50000    -0.1150000   -0.1150000   1.172438e-03  2.346713e-06
    570    611   2   0.50000    -0.1150000    0.1150000   2.431434e-04  1.541678e-07
    569    572   2   0.50000     0.2000000    0.2000000   1.172438e-03  2.346713e-06
    569    597   2   0.50000     0.2000000    0.1150000   2.431434e-04  1.541678e-07
    596    572   2   0.50000     0.1150000    0.2000000   2.431434e-04  1.541678e-07
    596    597   2   0.50000     0.1150000    0.1150000   5.042375e-05  1.012808e-08
    570    573   2   0.50000    -0.1150000   -0.7800000   1.467648e-03  2.359657e-06
    597    573   2   0.50000     0.1150000   -0.7800000   3.043650e-04  1.550182e-07
    597    588   2   0.50000     0.1150000   -0.1150000   2.431434e-04  1.541678e-07
    571    574   2   0.50000    -0.1150000    0.2000000   1.172438e-03  2.346713e-06
    571    598   2   0.50000    -0.1150000    0.3800000   2.144502e-06  1.199282e-11
    588    574   2   0.50000    -0.1150000    0.2000000   1.172438e-03  2.346713e-06
    588    598   2   0.50000    -0.1150000    0.3800000   2.144502e-06  1.199282e-11
    571    610   2   0.50000    -0.1150000    0.1150000   2.431434e-04  1.541678e-07
    573    589   2   0.50000    -0.7800000   -0.1150000   1.467648e-03  2.359657e-06
    573    610   2   0.50000    -0.7800000    0.1150000   3.043650e-04  1.550182e-07
    572    575   2   0.50000     0.2000000   -0.1150000   1.172438e-03  2.346713e-06
    572    587   2   0.50000     0.2000000   -0.1150000   1.172438e-03  2.346713e-06
    598    575   2   0.50000     0.3800000   -0.1150000   2.144502e-06  1.199282e-11
    598    587   2   0.50000     0.3800000   -0.1150000   2.144502e-06  1.199282e-11
    573    576   2   0.50000    -0.7800000   -0.1150000   1.467648e-03  2.359657e-06
    573    599   2   0.50000    -0.7800000    0.1150000   3.043650e-04  1.550182e-07
    587    576   2   0.50000    -0.1150000   -0.1150000   1.172438e-03  2.346713e-06
    587    599   2   0.50000    -0.1150000    0.1150000   2.431434e-04  1.541678e-07
    573    586   2   0.50000    -0.7800000   -0.1150000   1.467648e-03  2.359657e-06
    573    609   2   0.50000    -0.7800000    0.1150000   3.043650e-04  1.550182e-07
    575    586   2   0.50000    -0.1150000   -0.1150000   1.172438e-03  2.346713e-06
    575    609   2   0.50000    -0.1150000    0.1150000   2.431434e-04  1.541678e-07
    574    577   2   0.50000     0.2000000    0.2000000   1.172438e-03  2.346713e-06
    574    600   2   0.50000     0.2000000    0.1150000   2.431434e-04  1.541678e-07
    599    577   2   0.50000     0.1150000    0.2000000   2.431434e-04  1.541678e-07
    599    600   2   0.50000     0.1150000    0.1150000   5.042375e-05  1.012808e-08
    575    578   2   0.50000    -0.1150000   -0.7800000   1.467648e-03  2.359657e-06
    600    578   2   0.50000     0.1150000   -0.7800000   3.043650e-04  1.550182e-07
    600    586   2   0.50000     0.1150000   -0.1150000   2.431434e-04  1.541678e-07
    576    579   2   0.50000    -0.1150000    0.2000000   1.172438e-03  2.346713e-06
    576    601   2   0.50000    -0.1150000    0.3800000   2.144502e-06  1.199282e-11
    586    579   2   0.50000    -0.1150000    0.2000000   1.172438e-03  2.346713e-06
    586    601   2   0.50000    -0.1150000    0.3800000   2.144502e-06  1.199282e-11
    576    608   2   0.50000    -0.1150000    0.1150000   2.431434e-04  1.541678e-07
    578    587   2   0.50000    -0.7800000   -0.1150000   1.467648e-03  2.359657e-06
    578    608   2   0.50000    -0.7800000    0.1150000   3.043650e-04  1.550182e-07
    577    580   2   0.50000     0.2000000   -0.1150000   1.172438e-03  2.346713e-06
    577    585   2   0.50000     0.2000000   -0.1150000   1.172438e-03  2.346713e-06
    601    580   2   0.50000     0.3800000   -0.1150000   2.144502e-06  1.199282e-11
    601    585   2   0.50000     0.3800000   -0.1150000   2.144502e-06  1.199282e-11
    578    581   2   0.50000    -0.7800000   -0.1150000   1.467648e-03  2.359657e-06
    578    602   2   0.50000    -0.7800000    0.1150000   3.043650e-04  1.550182e-07
    585    581   2   0.50000    -0.1150000   -0.1150000   1.172438e-03  2.346713e-06
    585    602   2   0.50000    -0.1150000    0.1150000   2.431434e-04  1.541678e-07
    578    584   2   0.50000    -0.7800000   -0.1150000   1.467648e-03  2.359657e-06
    578    607   2   0.50000    -0.7800000    0.1150000   3.043650e-04  1.550182e-07
    580    584   2   0.50000    -0.1150000   -0.1150000   1.172438e-03  2.346713e-06
    580    607   2   0.50000    -0.1150000    0.1150000   2.431434e-04  1.541678e-07
    579    582   2   0.50000     0.2000000   -0.1150000   1.172438e-03  2.346713e-06
    579    603   2   0.50000     0.2000000    0.1150000   2.431434e-04  1.541678e-07
    602    582   2   0.50000     0.1150000   -0.1150000   2.431434e-04  1.541678e-07
    602    603   2   0.50000     0.1150000    0.1150000   5.042375e-05  1.012808e-08
    580    583   2   0.50000    -0.1150000    0.1950000   1.091018e-03  2.092768e-06
    603    583   2   0.50000     0.1150000    0.1950000   2.262583e-04  1.374848e-07
    603    584   2   0.50000     0.1150000   -0.1150000   2.431434e-04  1.541678e-07
    581    604   2   0.50000    -0.1150000    0.0600000   2.680627e-04  1.873879e-07
    581    605   2   0.50000    -0.1150000    0.0600000   2.680627e-04  1.873879e-07
    581    614   2   0.50000    -0.1150000   -0.7800000   1.467648e-03  2.359657e-06
    584    604   2   0.50000    -0.1150000    0.0600000   2.680627e-04  1.873879e-07
    584    605   2   0.50000    -0.1150000    0.0600000   2.680627e-04  1.873879e-07
    584    614   2   0.50000    -0.1150000   -0.7800000   1.467648e-03  2.359657e-06
    581    606   2   0.50000    -0.1150000    0.1150000   2.431434e-04  1.541678e-07
    583    585   2   0.50000     0.1950000   -0.1150000   1.091018e-03  2.092768e-06
    583    606   2   0.50000     0.1950000    0.1150000   2.262583e-04  1.374848e-07
    582    615   2   0.50000    -0.1150000    0.2000000   1.172438e-03  2.346713e-06
    582    643   2   0.50000    -0.1150000    0.3800000   2.144502e-06  1.199282e-11
    604    615   2   0.50000     0.0600000    0.2000000   2.680627e-04  1.873879e-07
    604    643   2   0.50000     0.0600000    0.3800000   4.903125e-07  9.576416e-13
    605    615   2   0.50000     0.0600000    0.2000000   2.680627e-04  1.873879e-07
    605    643   2   0.50000     0.0600000    0.3800000   4.903125e-07  9.576416e-13
    582    607   2   0.50000    -0.1150000    0.1150000   2.431434e-04  1.541678e-07
    606    579   2   0.50000     0.1150000    0.2000000   2.431434e-04  1.541678e-07
    606    607   2   0.50000     0.1150000    0.1150000   5.042375e-05  1.012808e-08
    577    609   2   0.50000     0.2000000    0.1150000   2.431434e-04  1.541678e-07
    608    574   2   0.50000     0.1150000    0.2000000   2.431434e-04  1.541678e-07
    608    609   2   0.50000     0.1150000    0.1150000   5.042375e-05  1.012808e-08
    572    611   2   0.50000     0.2000000    0.1150000   2.431434e-04  1.541678e-07
    610    569   2   0.50000     0.1150000    0.2000000   2.431434e-04  1.541678e-07
    610    611   2   0.50000     0.1150000    0.1150000   5.042375e-05  1.012808e-08
    567    613   2   0.50000     0.2000000    0.1150000   2.431434e-04  1.541678e-07
    612    564   2   0.50000     0.1150000    0.2000000   2.431434e-04  1.541678e-07
    612    613   2   0.50000     0.1150000    0.1150000   5.042375e-05  1.012808e-08
    583    616   2   0.50000     0.1950000   -0.1150000   1.091018e-03  2.092768e-06
    583    642   2   0.50000     0.1950000   -0.1150000   1.091018e-03  2.092768e-06
    643    616   2   0.50000     0.3800000   -0.1150000   2.144502e-06  1.199282e-11
    643    642   2   0.50000     0.3800000   -0.1150000   2.144502e-06  1.199282e-11
    614    617   2   0.50000    -0.7800000   -0.1150000   1.467648e-03  2.359657e-06
    614    644   2   0.50000    -0.7800000    0.1150000   3.043650e-04  1.550182e-07
    642    617   2   0.50000    -0.1150000   -0.1150000   1.172438e-03  2.346713e-06
    642    644   2   0.50000    -0.1150000    0.1150000   2.431434e-04  1.541678e-07
    614    641   2   0.50000    -0.7800000   -0.1150000   1.467648e-03  2.359657e-06
    614    664   2   0.50000    -0.7800000    0.1150000   3.043650e-04  1.550182e-07
    616    641   2   0.50000    -0.1150000   -0.1150000   1.172438e-03  2.346713e-06
    616    664   2   0.50000    -0.1150000    0.1150000   2.431434e-04  1.541678e-07
    615    618   2   0.50000     0.2000000    0.2000000   1.172438e-03  2.346713e-06
    615    645   2   0.50000     0.2000000    0.1150000   2.431434e-04  1.541678e-07
    644    618   2   0.50000     0.1150000    0.2000000   2.431434e-04  1.541678e-07
    644    645   2   0.50000     0.1150000    0.1150000   5.042375e-05  1.012808e-08
    616    619   2   0.50000    -0.1150000   -0.7800000   1.467648e-03  2.359657e-06
    645    619   2   0.50000     0.1150000   -0.7800000   3.043650e-04  1.550182e-07
    645    641   2   0.50000     0.1150000   -0.1150000   2.431434e-04  1.541678e-07
    617    620   2   0.50000    -0.1150000    0.2000000   1.172438e-03  2.346713e-06
    617    646   2   0.50000    -0.1150000    0.3800000   2.144502e-06  1.199282e-11
    641    620   2   0.50000    -0.1150000    0.2000000   1.172438e-03  2.346713e-06
    641    646   2   0.50000    -0.1150000    0.3800000   2.144502e-06  1.199282e-11
    617    663   2   0.50000    -0.1150000    0.1150000   2.431434e-04  1.541678e-07
    619    642   2   0.50000    -0.7800000   -0.1150000   1.467648e-03  2.359657e-06
    619    663   2   0.50000    -0.7800000    0.1150000   3.043650e-04  1.550182e-07
    618    621   2   0.50000     0.2000000   -0.1150000   1.172438e-03  2.346713e-06
    618    640   2   0.50000     0.2000000   -0.1150000   1.172438e-03  2.346713e-06
    646    621   2   0.50000     0.3800000   -0.1150000   2.144502e-06  1.199282e-11
    646    640   2   0.50000     0.3800000   -0.1150000   2.144502e-06  1.199282e-11
    619    622   2   0.50000    -0.7800000   -0.1150000   1.467648e-03  2.359657e-06
    619    647   2   0.50000    -0.7800000    0.1150000   3.043650e-04  1.550182e-07
    640    622   2   0.50000    -0.1150000   -0.1150000   1.172438e-03  2.346713e-06
    640    647   2   0.50000    -0.1150000    0.1150000   2.431434e-04  1.541678e-07
    619    639   2   0.50000    -0.7800000   -0.1150000   1.467648e-03  2.359657e-06
    619    662   2   0.50000    -0.7800000    0.1150000   3.043650e-04  1.550182e-07
    621    639   2   0.50000    -0.1150000   -0.1150000   1.172438e-03  2.346713e-06
    621    662   2   0.50000    -0.1150000    0.1150000   2.431434e-04  1.541678e-07
    620    623   2   0.50000     0.2000000    0.2000000   1.172438e-03  2.346713e-06
    620    648   2   0.50000     0.2000000    0.1150000   2.431434e-04  1.541678e-07
    647    623   2   0.50000     0.1150000    0.2000000   2.431434e-04  1.541678e-07
    647    648   2   0.50000     0.1150000    0.1150000   5.042375e-05  1.012808e-08
    621    624   2   0.50000    -0.1150000   -0.7800000   1.467648e-03  2.359657e-06
    648    624   2   0.50000     0.1150000   -0.7800000   3.043650e-04  1.550182e-07
    648    639   2   0.50000     0.1150000   -0.1150000   2.431434e-04  1.541678e-07
    622    625   2   0.50000    -0.1150000    0.2000000   1.172438e-03  2.346713e-06
    622    649   2   0.50000    -0.1150000    0.3800000   2.144502e-06  1.199282e-11
    639    625   2   0.50000    -0.1150000    0.2000000   1.172438e-03  2.346713e-06
    639    649   2   0.50000    -0.1150000    0.3800000   2.144502e-06  1.199282e-11
    622    661   2   0.50000    -0.1150000    0.1150000   2.431434e-04  1.541678e-07
    624    640   2   0.50000    -0.7800000   -0.1150000   1.467648e-03  2.359657e-06
    624    661   2   0.50000    -0.7800000    0.1150000   3.043650e-04  1.550182e-07
    623    626   2   0.50000     0.2000000   -0.1150000   1.172438e-03  2.346713e-06
    623    638   2   0.50000     0.2000000   -0.1150000   1.172438e-03  2.346713e-06
    649    626   2   0.50000     0.3800000   -0.1150000   2.144502e-06  1.199282e-11
    649    638   2   0.50000     0.3800000   -0.1150000   2.144502e-06  1.199282e-11
    624    627   2   0.50000    -0.7800000   -0.1150000   1.467648e-03  2.359657e-06
    624    650   2   0.50000    -0.7800000    0.1150000   3.043650e-04  1.550182e-07
    638    627   2   0.50000    -0.1150000   -0.1150000   1.172438e-03  2.346713e-06
    638    650   2   0.50000    -0.1150000    0.1150000   2.431434e-04  1.541678e-07
    624    637   2   0.50000    -0.7800000   -0.1150000   1.467648e-03  2.359657e-06
    624    660   2   0.50000    -0.7800000    0.1150000   3.043650e-04  1.550182e-07
    626    637   2   0.50000    -0.1150000   -0.1150000   1.172438e-03  2.346713e-06
    626    660   2   0.50000    -0.1150000    0.1150000   2.431434e-04  1.541678e-07
    625    628   2   0.50000     0.2000000    0.2000000   1.172438e-03  2.346713e-06
    625    651   2   0.50000     0.2000000    0.1150000   2.431434e-04  1.541678e-07
    650    628   2   0.50000     0.1150000    0.2000000   2.431434e-04  1.541678e-07
    650    651   2   0.50000     0.1150000    0.1150000   5.042375e-05  1.012808e-08
    626    629   2   0.50000    -0.1150000   -0.7800000   1.467648e-03  2.359657e-06
    651    629   2   0.50000     0.1150000   -0.7800000   3.043650e-04  1.550182e-07
    651    637   2   0.50000     0.1150000   -0.1150000   2.431434e-04  1.541678e-07
    627    630   2   0.50000    -0.1150000    0.2000000   1.172438e-03  2.346713e-06
    627    652   2   0.50000    -0.1150000    0.3800000   2.144502e-06  1.199282e-11
    637    630   2   0.50000    -0.1150000    0.2000000   1.172438e-03  2.346713e-06
    637    652   2   0.50000    -0.1150000    0.3800000   2.144502e-06  1.199282e-11
    627    659   2   0.50000    -0.1150000    0.1150000   2.431434e-04  1.541678e-07
    629    638   2   0.50000    -0.7800000   -0.1150000   1.467648e-03  2.359657e-06
    629    659   2   0.50000    -0.7800000    0.1150000   3.043650e-04  1.550182e-07
    628    631   2   0.50000     0.2000000   -0.1150000   1.172438e-03  2.346713e-06
    628    636   2   0.50000     0.2000000   -0.1150000   1.172438e-03  2.346713e-06
    652    631   2   0.50000     0.3800000   -0.1150000   2.144502e-06  1.199282e-11
    652    636   2   0.50000     0.3800000   -0.1150000   2.144502e-06  1.199282e-11
    629    632   2   0.50000    -0.7800000   -0.1150000   1.467648e-03  2.359657e-06
    629    653   2   0.50000    -0.7800000    0.1150000   3.043650e-04  1.550182e-07
    636    632   2   0.50000    -0.1150000   -0.1150000   1.172438e-03  2.346713e-06
    636    653   2   0.50000    -0.1150000    0.1150000   2.431434e-04  1.541678e-07
    629    635   2   0.50000    -0.7800000   -0.1150000   1.467648e-03  2.359657e-06
    629    658   2   0.50000    -0.7800000    0.1150000   3.043650e-04  1.550182e-07
    631    635   2   0.50000    -0.1150000   -0.1150000   1.172438e-03  2.346713e-06
    631    658   2   0.50000    -0.1150000    0.1150000   2.431434e-04  1.541678e-07
    630    633   2   0.50000     0.2000000   -0.1150000   1.172438e-03  2.346713e-06
    630    654   2   0.50000     0.2000000    0.1150000   2.431434e-04  1.541678e-07
    653    633   2   0.50000     0.1150000   -0.1150000   2.431434e-04  1.541678e-07
    653    654   2   0.50000     0.1150000    0.1150000   5.042375e-05  1.012808e-08
    631    634   2   0.50000    -0.1150000    0.1950000   1.091018e-03  2.092768e-06
    654    634   2   0.50000     0.1150000    0.1950000   2.262583e-04  1.374848e-07
    654    635   2   0.50000     0.1150000   -0.1150000   2.431434e-04  1.541678e-07
    632    655   2   0.50000    -0.1150000    0.0600000   2.680627e-04  1.873879e-07
    632    656   2   0.50000    -0.1150000    0.0600000   2.680627e-04  1.873879e-07
    632    665   2   0.50000    -0.1150000   -0.7800000   1.467648e-03  2.359657e-06
    635    655   2   0.50000    -0.1150000    0.0600000   2.680627e-04  1.873879e-07
    635    656   2   0.50000    -0.1150000    0.0600000   2.680627e-04  1.873879e-07
    635    665   2   0.50000    -0.1150000   -0.7800000   1.467648e-03  2.359657e-06
    632    657   2   0.50000    -0.1150000    0.1150000   2.431434e-04  1.541678e-07
    634    636   2   0.50000     0.1950000   -0.1150000   1.091018e-03  2.092768e-06
    634    657   2   0.50000     0.1950000    0.1150000   2.262583e-04  1.374848e-07
    633    666   2   0.50000    -0.1150000    0.2000000   1.172438e-03  2.346713e-06
    633    694   2   0.50000    -0.1150000    0.3800000   2.144502e-06  1.199282e-11
    655    666   2   0.50000     0.0600000    0.2000000   2.680627e-04  1.873879e-07
    655    694   2   0.50000     0.0600000    0.3800000   4.903125e-07  9.576416e-13
    656    666   2   0.50000     0.0600000    0.2000000   2.680627e-04  1.873879e-07
    656    694   2   0.50000     0.0600000    0.3800000   4.903125e-07  9.576416e-13
    633    658   2   0.50000    -0.1150000    0.1150000   2.431434e-04  1.541678e-07
    657    630   2   0.50000     0.1150000    0.2000000   2.431434e-04  1.541678e-07
    657    658   2   0.50000     0.1150000    0.1150000   5.042375e-05  1.012808e-08
    628    660   2   0.50000     0.2000000    0.1150000   2.431434e-04  1.541678e-07
    659    625   2   0.50000     0.1150000    0.2000000   2.431434e-04  1.541678e-07
    659    660   2   0.50000     0.1150000    0.1150000   5.042375e-05  1.012808e-08
    623    662   2   0.50000     0.2000000    0.1150000   2.431434e-04  1.541678e-07
    661    620   2   0.50000     0.1150000    0.2000000   2.431434e-04  1.541678e-07
    661    662   2   0.50000     0.1150000    0.1150000   5.042375e-05  1.012808e-08
    618    664   2   0.50000     0.2000000    0.1150000   2.431434e-04  1.541678e-07
    663    615   2   0.50000     0.1150000    0.2000000   2.431434e-04  1.541678e-07
    663    664   2   0.50000     0.1150000    0.1150000   5.042375e-05  1.012808e-08
    634    667   2   0.50000     0.1950000   -0.1150000   1.091018e-03  2.092768e-06
    634    693   2   0.50000     0.1950000   -0.1150000   1.091018e-03  2.092768e-06
    694    667   2   0.50000     0.3800000   -0.1150000   2.144502e-06  1.199282e-11
    694    693   2   0.50000     0.3800000   -0.1150000   2.144502e-06  1.199282e-11
    665    668   2   0.50000    -0.7800000   -0.1150000   1.467648e-03  2.359657e-06
    665    695   2   0.50000    -0.7800000    0.1150000   3.043650e-04  1.550182e-07
    693    668   2   0.50000    -0.1150000   -0.1150000   1.172438e-03  2.346713e-06
    693    695   2   0.50000    -0.1150000    0.1150000   2.431434e-04  1.541678e-07
    665    692   2   0.50000    -0.7800000   -0.1150000   1.467648e-03  2.359657e-06
    665    715   2   0.50000    -0.7800000    0.1150000   3.043650e-04  1.550182e-07
    667    692   2   0.50000    -0.1150000   -0.1150000   1.172438e-03  2.346713e-06
    667    715   2   0.50000    -0.1150000    0.1150000   2.431434e-04  1.541678e-07
    666    669   2   0.50000     0.2000000    0.2000000   1.172438e-03  2.346713e-06
    666    696   2   0.50000     0.2000000    0.1150000   2.431434e-04  1.541678e-07
    695    669   2   0.50000     0.1150000    0.2000000   2.431434e-04  1.541678e-07
    695    696   2   0.50000     0.1150000    0.1150000   5.042375e-05  1.012808e-08
    667    670   2   0.50000    -0.1150000   -0.7800000   1.467648e-03  2.359657e-06
    696    670   2   0.50000     0.1150000   -0.7800000   3.043650e-04  1.550182e-07
    696    692   2   0.50000     0.1150000   -0.1150000   2.431434e-04  1.541678e-07
    668    671   2   0.50000    -0.1150000    0.2000000   1.172438e-03  2.346713e-06
    668    697   2   0.50000    -0.1150000    0.3800000   2.144502e-06  1.199282e-11
    692    671   2   0.50000    -0.1150000    0.2000000   1.172438e-03  2.346713e-06
    692    697   2   0.50000    -0.1150000    0.3800000   2.144502e-06  1.199282e-11
    668    714   2   0.50000    -0.1150000    0.1150000   2.431434e-04  1.541678e-07
    670    693   2   0.50000    -0.7800000   -0.1150000   1.467648e-03  2.359657e-06
    670    714   2   0.50000    -0.7800000    0.1150000   3.043650e-04  1.550182e-07
    669    672   2   0.50000     0.2000000   -0.1150000   1.172438e-03  2.346713e-06
    669    691   2   0.50000     0.2000000   -0.1150000   1.172438e-03  2.346713e-06
    697    672   2   0.50000     0.3800000   -0.1150000   2.144502e-06  1.199282e-11
    697    691   2   0.50000     0.3800000   -0.1150000   2.144502e-06  1.199282e-11
    670    673   2   0.50000    -0.7800000   -0.1150000   1.467648e-03  2.359657e-06
    670    698   2   0.50000    -0.7800000    0.1150000   3.043650e-04  1.550182e-07
    691    673   2   0.50000    -0.1150000   -0.1150000   1.172438e-03  2.346713e-06
    691    698   2   0.50000    -0.1150000    0.1150000   2.431434e-04  1.541678e-07
    670    690   2   0.50000    -0.7800000   -0.1150000   1.467648e-03  2.359657e-06
    670    713   2   0.50000    -0.7800000    0.1150000   3.043650e-04  1.550182e-07
    672    690   2   0.50000    -0.1150000   -0.1150000   1.172438e-03  2.346713e-06
    672    713   2   0.50000    -0.1150000    0.1150000   2.431434e-04  1.541678e-07
    671    674   2   0.50000     0.2000000    0.2000000   1.172438e-03  2.346713e-06
    671    699   2   0.50000     0.2000000    0.1150000   2.431434e-04  1.541678e-07
    698    674   2   0.50000     0.1150000    0.2000000   2.431434e-04  1.541678e-07
    698    699   2   0.50000     0.1150000    0.1150000   5.042375e-05  1.012808e-08
    672    675   2   0.50000    -0.1150000   -0.7800000   1.467648e-03  2.359657e-06
    699    675   2   0.50000     0.1150000   -0.7800000   3.043650e-04  1.550182e-07
    699    690   2   0.50000     0.1150000   -0.1150000   2.431434e-04  1.541678e-07
    673    676   2   0.50000    -0.1150000    0.2000000   1.172438e-03  2.346713e-06
    673    700   2   0.50000    -0.1150000    0.3800000   2.144502e-06  1.199282e-11
    690    676   2   0.50000    -0.1150000    0.2000000   1.172438e-03  2.346713e-06
    690    700   2   0.50000    -0.1150000    0.3800000   2.144502e-06  1.199282e-11
    673    712   2   0.50000    -0.1150000    0.1150000   2.431434e-04  1.541678e-07
    675    691   2   0.50000    -0.7800000   -0.1150000   1.467648e-03  2.359657e-06
    675    712   2   0.50000    -0.7800000    0.1150000   3.043650e-04  1.550182e-07
    674    677   2   0.50000     0.2000000   -0.1150000   1.172438e-03  2.346713e-06
    674    689   2   0.50000     0.2000000   -0.1150000   1.172438e-03  2.346713e-06
    700    677   2   0.50000     0.3800000   -0.1150000   2.144502e-06  1.199282e-11
    700    689   2   0.50000     0.3800000   -0.1150000   2.144502e-06  1.199282e-11
    675    678   2   0.50000    -0.7800000   -0.1150000   1.467648e-03  2.359657e-06
    675    701   2   0.50000    -0.7800000    0.1150000   3.043650e-04  1.550182e-07
    689    678   2   0.50000    -0.1150000   -0.1150000   1.172438e-03  2.346713e-06
    689    701   2   0.50000    -0.1150000    0.1150000   2.431434e-04  1.541678e-07
    675    688   2   0.50000    -0.7800000   -0.1150000   1.467648e-03  2.359657e-06
    675    711   2   0.50000    -0.7800000    0.1150000   3.043650e-04  1.550182e-07
    677    688   2   0.50000    -0.1150000   -0.1150000   1.172438e-03  2.346713e-06
    677    711   2   0.50000    -0.1150000    0.1150000   2.431434e-04  1.541678e-07
    676    679   2   0.50000     0.2000000    0.2000000   1.172438e-03  2.346713e-06
    676    702   2   0.50000     0.2000000    0.1150000   2.431434e-04  1.541678e-07
    701    679   2   0.50000     0.1150000    0.2000000   2.431434e-04  1.541678e-07
    701    702   2   0.50000     0.1150000    0.1150000   5.042375e-05  1.012808e-08
    677    680   2   0.50000    -0.1150000   -0.7800000   1.467648e-03  2.359657e-06
    702    680   2   0.50000     0.1150000   -0.7800000   3.043650e-04  1.550182e-07
    702    688   2   0.50000     0.1150000   -0.1150000   2.431434e-04  1.541678e-07
    678    681   2   0.50000    -0.1150000    0.2000000   1.172438e-03  2.346713e-06
    678    703   2   0.50000    -0.1150000    0.3800000   2.144502e-06  1.199282e-11
    688    681   2   0.50000    -0.1150000    0.2000000   1.172438e-03  2.346713e-06
    688    703   2   0.50000    -0.1150000    0.3800000   2.144502e-06  1.199282e-11
    678    710   2   0.50000    -0.1150000    0.1150000   2.431434e-04  1.541678e-07
    680    689   2   0.50000    -0.7800000   -0.1150000   1.467648e-03  2.359657e-06
    680    710   2   0.50000    -0.7800000    0.1150000   3.043650e-04  1.550182e-07
    679    682   2   0.50000     0.2000000   -0.1150000   1.172438e-03  2.346713e-06
    679    687   2   0.50000     0.2000000   -0.1150000   1.172438e-03  2.346713e-06
    703    682   2   0.50000     0.3800000   -0.1150000   2.144502e-06  1.199282e-11
    703    687   2   0.50000     0.3800000   -0.1150000   2.144502e-06  1.199282e-11
    680    683   2   0.50000    -0.7800000   -0.1150000   1.467648e-03  2.359657e-06
    680    704   2   0.50000    -0.7800000    0.1150000   3.043650e-04  1.550182e-07
    687    683   2   0.50000    -0.1150000   -0.1150000   1.172438e-03  2.346713e-06
    687    704   2   0.50000    -0.1150000    0.1150000   2.431434e-04  1.541678e-07
    680    686   2   0.50000    -0.7800000   -0.1150000   1.467648e-03  2.359657e-06
    680    709   2   0.50000    -0.7800000    0.1150000   3.043650e-04  1.550182e-07
    682    686   2   0.50000    -0.1150000   -0.1150000   1.172438e-03  2.346713e-06
    682    709   2   0.50000    -0.1150000    0.1150000   2.431434e-04  1.541678e-07
    681    684   2   0.50000     0.2000000   -0.1150000   1.172438e-03  2.346713e-06
    681    705   2   0.50000     0.2000000    0.1150000   2.431434e-04  1.541678e-07
    704    684   2   0.50000     0.1150000   -0.1150000   2.431434e-04  1.541678e-07
    704    705   2   0.50000     0.1150000    0.1150000   5.042375e-05  1.012808e-08
    682    685   2   0.50000    -0.1150000    0.1950000   1.091018e-03  2.092768e-06
    705    685   2   0.50000     0.1150000    0.1950000   2.262583e-04  1.374848e-07
    705    686   2   0.50000     0.1150000   -0.1150000   2.431434e-04  1.541678e-07
    683    706   2   0.50000    -0.1150000    0.0600000   2.680627e-04  1.873879e-07
    683    707   2   0.50000    -0.1150000    0.0600000   2.680627e-04  1.873879e-07
    683    716   2   0.50000    -0.1150000   -0.7800000   1.467648e-03  2.359657e-06
    686    706   2   0.50000    -0.1150000    0.0600000   2.680627e-04  1.873879e-07
    686    707   2   0.50000    -0.1150000    0.0600000   2.680627e-04  1.873879e-07
    686    716   2   0.50000    -0.1150000   -0.7800000   1.467648e-03  2.359657e-06
    683    708   2   0.50000    -0.1150000    0.1150000   2.431434e-04  1.541678e-07
    685    687   2   0.50000     0.1950000   -0.1150000   1.091018e-03  2.092768e-06
    685    708   2   0.50000     0.1950000    0.1150000   2.262583e-04  1.374848e-07
    684    717   2   0.50000    -0.1150000    0.2000000   1.172438e-03  2.346713e-06
    684    745   2   0.50000    -0.1150000    0.3800000   2.144502e-06  1.199282e-11
    706    717   2   0.50000     0.0600000    0.2000000   2.680627e-04  1.873879e-07
    706    745   2   0.50000     0.0600000    0.3800000   4.903125e-07  9.576416e-13
    707    717   2   0.50000     0.0600000    0.2000000   2.680627e-04  1.873879e-07
    707    745   2   0.50000     0.0600000    0.3800000   4.903125e-07  9.576416e-13
    684    709   2   0.50000    -0.1150000    0.1150000   2.431434e-04  1.541678e-07
    708    681   2   0.50000     0.1150000    0.2000000   2.431434e-04  1.541678e-07
    708    709   2   0.50000     0.1150000    0.1150000   5.042375e-05  1.012808e-08
    679    711   2   0.50000     0.2000000    0.1150000   2.431434e-04  1.541678e-07
    710    676   2   0.50000     0.1150000    0.2000000   2.431434e-04  1.541678e-07
    710    711   2   0.50000     0.1150000    0.1150000   5.042375e-05  1.012808e-08
    674    713   2   0.50000     0.2000000    0.1150000   2.431434e-04  1.541678e-07
    712    671   2   0.50000     0.1150000    0.2000000   2.431434e-04  1.541678e-07
    712    713   2   0.50000     0.1150000    0.1150000   5.042375e-05  1.012808e-08
    669    715   2   0.50000     0.2000000    0.1150000   2.431434e-04  1.541678e-07
    714    666   2   0.50000     0.1150000    0.2000000   2.431434e-04  1.541678e-07
    714    715   2   0.50000     0.1150000    0.1150000   5.042375e-05  1.012808e-08
    685    718   2   0.50000     0.1950000   -0.1150000   1.091018e-03  2.092768e-06
    685    744   2   0.50000     0.1950000   -0.1150000   1.091018e-03  2.092768e-06
    745    718   2   0.50000     0.3800000   -0.1150000   2.144502e-06  1.199282e-11
    745    744   2   0.50000     0.3800000   -0.1150000   2.144502e-06  1.199282e-11
    716    719   2   0.50000    -0.7800000   -0.1150000   1.467648e-03  2.359657e-06
    716    746   2   0.50000    -0.7800000    0.1150000   3.043650e-04  1.550182e-07
    744    719   2   0.50000    -0.1150000   -0.1150000   1.172438e-03  2.346713e-06
    744    746   2   0.50000    -0.1150000    0.1150000   2.431434e-04  1.541678e-07
    716    743   2   0.50000    -0.7800000   -0.1150000   1.467648e-03  2.359657e-06
    716    766   2   0.50000    -0.7800000    0.1150000   3.043650e-04  1.550182e-07
    718    743   2   0.50000    -0.1150000   -0.1150000   1.172438e-03  2.346713e-06
    718    766   2   0.50000    -0.1150000    0.1150000   2.431434e-04  1.541678e-07
    717    720   2   0.50000     0.2000000    0.2000000   1.172438e-03  2.346713e-06
    717    747   2   0.50000     0.2000000    0.1150000   2.431434e-04  1.541678e-07
    746    720   2   0.50000     0.1150000    0.2000000   2.431434e-04  1.541678e-07
    746    747   2   0.50000     0.1150000    0.1150000   5.042375e-05  1.012808e-08
    718    721   2   0.50000    -0.1150000   -0.7800000   1.467648e-03  2.359657e-06
    747    721   2   0.50000     0.1150000   -0.7800000   3.043650e-04  1.550182e-07
    747    743   2   0.50000     0.1150000   -0.1150000   2.431434e-04  1.541678e-07
    719    722   2   0.50000    -0.1150000    0.2000000   1.172438e-03  2.346713e-06
    719    748   2   0.50000    -0.1150000    0.3800000   2.144502e-06  1.199282e-11
    743    722   2   0.50000    -0.1150000    0.2000000   1.172438e-03  2.346713e-06
    743    748   2   0.50000    -0.1150000    0.3800000   2.144502e-06  1.199282e-11
    719    765   2   0.50000    -0.1150000    0.1150000   2.431434e-04  1.541678e-07
    721    744   2   0.50000    -0.7800000   -0.1150000   1.467648e-03  2.359657e-06
    721    765   2   0.50000    -0.7800000    0.1150000   3.043650e-04  1.550182e-07
    720    723   2   0.50000     0.2000000   -0.1150000   1.172438e-03  2.346713e-06
    720    742   2   0.50000     0.2000000   -0.1150000   1.172438e-03  2.346713e-06
    748    723   2   0.50000     0.3800000   -0.1150000   2.144502e-06  1.199282e-11
    748    742   2   0.50000     0.3800000   -0.1150000   2.144502e-06  1.199282e-11
    721    724   2   0.50000    -0.7800000   -0.1150000   1.467648e-03  2.359657e-06
    721    749   2   0.50000    -0.7800000    0.1150000   3.043650e-04  1.550182e-07
    742    724   2   0.50000    -0.1150000   -0.1150000   1.172438e-03  2.346713e-06
    742    749   2   0.50000    -0.1150000    0.1150000   2.431434e-04  1.541678e-07
    721    741   2   0.50000    -0.7800000   -0.1150000   1.467648e-03  2.359657e-06
    721    764   2   0.50000    -0.7800000    0.1150000   3.043650e-04  1.550182e-07
    723    741   2   0.50000    -0.1150000   -0.1150000   1.172438e-03  2.346713e-06
    723    764   2   0.50000    -0.1150000    0.1150000   2.431434e-04  1.541678e-07
    722    725   2   0.50000     0.2000000    0.2000000   1.172438e-03  2.346713e-06
    722    750   2   0.50000     0.2000000    0.1150000   2.431434e-04  1.541678e-07
    749    725   2   0.50000     0.1150000    0.2000000   2.431434e-04  1.541678e-07
    749    750   2   0.50000     0.1150000    0.1150000   5.042375e-05  1.012808e-08
    723    726   2   0.50000    -0.1150000   -0.7800000   1.467648e-03  2.359657e-06
    750    726   2   0.50000     0.1150000   -0.7800000   3.043650e-04  1.550182e-07
    750    741   2   0.50000     0.1150000   -0.1150000   2.431434e-04  1.541678e-07
    724    727   2   0.50000    -0.1150000    0.2000000   1.172438e-03  2.346713e-06
    724    751   2   0.50000    -0.1150000    0.3800000   2.144502e-06  1.199282e-11
    741    727   2   0.50000    -0.1150000    0.2000000   1.172438e-03  2.346713e-06
    741    751   2   0.50000    -0.1150000    0.3800000   2.144502e-06  1.199282e-11
    724    763   2   0.50000    -0.1150000    0.1150000   2.431434e-04  1.541678e-07
    726    742   2   0.50000    -0.7800000   -0.1150000   1.467648e-03  2.359657e-06
    726    763   2   0.50000    -0.7800000    0.1150000   3.043650e-04  1.550182e-07
    725    728   2   0.50000     0.2000000   -0.1150000   1.172438e-03  2.346713e-06
    725    740   2   0.50000     0.2000000   -0.1150000   1.172438e-03  2.346713e-06
    751    728   2   0.50000     0.3800000   -0.1150000   2.144502e-06  1.199282e-11
    751    740   2   0.50000     0.3800000   -0.1150000   2.144502e-06  1.199282e-11
    726    729   2   0.50000    -0.7800000   -0.1150000   1.467648e-03  2.359657e-06
    726    752   2   0.50000    -0.7800000    0.1150000   3.043650e-04  1.550182e-07
    740    729   2   0.50000    -0.1150000   -0.1150000   1.172438e-03  2.346713e-06
    740    752   2   0.50000    -0.1150000    0.1150000   2.431434e-04  1.541678e-07
    726    739   2   0.50000    -0.7800000   -0.1150000   1.467648e-03  2.359657e-06
    726    762   2   0.50000    -0.7800000    0.1150000   3.043650e-04  1.550182e-07
    728    739   2   0.50000    -0.1150000   -0.1150000   1.172438e-03  2.346713e-06
    728    762   2   0.50000    -0.1150000    0.1150000   2.431434e-04  1.541678e-07
    727    730   2   0.50000     0.2000000    0.2000000   1.172438e-03  2.346713e-06
    727    753   2   0.50000     0.2000000    0.1150000   2.431434e-04  1.541678e-07
    752    730   2   0.50000     0.1150000    0.2000000   2.431434e-04  1.541678e-07
    752    753   2   0.50000     0.1150000    0.1150000   5.042375e-05  1.012808e-08
    728    731   2   0.50000    -0.1150000   -0.7800000   1.467648e-03  2.359657e-06
    753    731   2   0.50000     0.1150000   -0.7800000   3.043650e-04  1.550182e-07
    753    739   2   0.50000     0.1150000   -0.1150000   2.431434e-04  1.541678e-07
    729    732   2   0.50000    -0.1150000    0.2000000   1.172438e-03  2.346713e-06
    729    754   2   0.50000    -0.1150000    0.3800000   2.144502e-06  1.199282e-11
    739    732   2   0.50000    -0.1150000    0.2000000   1.172438e-03  2.346713e-06
    739    754   2   0.50000    -0.1150000    0.3800000   2.144502e-06  1.199282e-11
    729    761   2   0.50000    -0.1150000    0.1150000   2.431434e-04  1.541678e-07
    731    740   2   0.50000    -0.7800000   -0.1150000   1.467648e-03  2.359657e-06
    731    761   2   0.50000    -0.7800000    0.1150000   3.043650e-04  1.550182e-07
    730    733   2   0.50000     0.2000000   -0.1150000   1.172438e-03  2.346713e-06
    730    738   2   0.50000     0.2000000   -0.1150000   1.172438e-03  2.346713e-06
    754    733   2   0.50000     0.3800000   -0.1150000   2.144502e-06  1.199282e-11
    754    738   2   0.50000     0.3800000   -0.1150000   2.144502e-06  1.199282e-11
    731    734   2   0.50000    -0.7800000   -0.1150000   1.467648e-03  2.359657e-06
    731    755   2   0.50000    -0.7800000    0.1150000   3.043650e-04  1.550182e-07
    738    734   2   0.50000    -0.1150000   -0.1150000   1.172438e-03  2.346713e-06
    738    755   2   0.50000    -0.1150000    0.1150000   2.431434e-04  1.541678e-07
    731    737   2   0.50000    -0.7800000   -0.1150000   1.467648e-03  2.359657e-06
    731    760   2   0.50000    -0.7800000    0.1150000   3.043650e-04  1.550182e-07
    733    737   2   0.50000    -0.1150000   -0.1150000   1.172438e-03  2.346713e-06
    733    760   2   0.50000    -0.1150000    0.1150000   2.431434e-04  1.541678e-07
    732    735   2   0.50000     0.2000000   -0.1150000   1.172438e-03  2.346713e-06
    732    756   2   0.50000     0.2000000    0.1150000   2.431434e-04  1.541678e-07
    755    735   2   0.50000     0.1150000   -0.1150000   2.431434e-04  1.541678e-07
    755    756   2   0.50000     0.1150000    0.1150000   5.042375e-05  1.012808e-08
    733    736   2   0.50000    -0.1150000    0.1950000   1.091018e-03  2.092768e-06
    756    736   2   0.50000     0.1150000    0.1950000   2.262583e-04  1.374848e-07
    756    737   2   0.50000     0.1150000   -0.1150000   2.431434e-04  1.541678e-07
    734    757   2   0.50000    -0.1150000    0.0600000   2.680627e-04  1.873879e-07
    734    758   2   0.50000    -0.1150000    0.0600000   2.680627e-04  1.873879e-07
    734    767   2   0.50000    -0.1150000   -0.7800000   1.467648e-03  2.359657e-06
    737    757   2   0.50000    -0.1150000    0.0600000   2.680627e-04  1.873879e-07
    737    758   2   0.50000    -0.1150000    0.0600000   2.680627e-04  1.873879e-07
    737    767   2   0.50000    -0.1150000   -0.7800000   1.467648e-03  2.359657e-06
    734    759   2   0.50000    -0.1150000    0.1150000   2.431434e-04  1.541678e-07
    736    738   2   0.50000     0.1950000   -0.1150000   1.091018e-03  2.092768e-06
    736    759   2   0.50000     0.1950000    0.1150000   2.262583e-04  1.374848e-07
    735    768   2   0.50000    -0.1150000    0.2000000   1.172438e-03  2.346713e-06
    735    796   2   0.50000    -0.1150000    0.3800000   2.144502e-06  1.199282e-11
    757    768   2   0.50000     0.0600000    0.2000000   2.680627e-04  1.873879e-07
    757    796   2   0.50000     0.0600000    0.3800000   4.903125e-07  9.576416e-13
    758    768   2   0.50000     0.0600000    0.2000000   2.680627e-04  1.873879e-07
    758    796   2   0.50000     0.0600000    0.3800000   4.903125e-07  9.576416e-13
    735    760   2   0.50000    -0.1150000    0.1150000   2.431434e-04  1.541678e-07
    759    732   2   0.50000     0.1150000    0.2000000   2.431434e-04  1.541678e-07
    759    760   2   0.50000     0.1150000    0.1150000   5.042375e-05  1.012808e-08
    730    762   2   0.50000     0.2000000    0.1150000   2.431434e-04  1.541678e-07
    761    727   2   0.50000     0.1150000    0.2000000   2.431434e-04  1.541678e-07
    761    762   2   0.50000     0.1150000    0.1150000   5.042375e-05  1.012808e-08
    725    764   2   0.50000     0.2000000    0.1150000   2.431434e-04  1.541678e-07
    763    722   2   0.50000     0.1150000    0.2000000   2.431434e-04  1.541678e-07
    763    764   2   0.50000     0.1150000    0.1150000   5.042375e-05  1.012808e-08
    720    766   2   0.50000     0.2000000    0.1150000   2.431434e-04  1.541678e-07
    765    717   2   0.50000     0.1150000    0.2000000   2.431434e-04  1.541678e-07
    765    766   2   0.50000     0.1150000    0.1150000   5.042375e-05  1.012808e-08
    736    769   2   0.50000     0.1950000   -0.1150000   1.091018e-03  2.092768e-06
    736    795   2   0.50000     0.1950000   -0.1150000   1.091018e-03  2.092768e-06
    796    769   2   0.50000     0.3800000   -0.1150000   2.144502e-06  1.199282e-11
    796    795   2   0.50000     0.3800000   -0.1150000   2.144502e-06  1.199282e-11
    767    770   2   0.50000    -0.7800000   -0.1150000   1.467648e-03  2.359657e-06
    767    797   2   0.50000    -0.7800000    0.1150000   3.043650e-04  1.550182e-07
    795    770   2   0.50000    -0.1150000   -0.1150000   1.172438e-03  2.346713e-06
    795    797   2   0.50000    -0.1150000    0.1150000   2.431434e-04  1.541678e-07
    767    794   2   0.50000    -0.7800000   -0.1150000   1.467648e-03  2.359657e-06
    767    817   2   0.50000    -0.7800000    0.1150000   3.043650e-04  1.550182e-07
    769    794   2   0.50000    -0.1150000   -0.1150000   1.172438e-03  2.346713e-06
    769    817   2   0.50000    -0.1150000    0.1150000   2.431434e-04  1.541678e-07
    768    771   2   0.50000     0.2000000    0.2000000   1.172438e-03  2.346713e-06
    768    798   2   0.50000     0.2000000    0.1150000   2.431434e-04  1.541678e-07
    797    771   2   0.50000     0.1150000    0.2000000   2.431434e-04  1.541678e-07
    797    798   2   0.50000     0.1150000    0.1150000   5.042375e-05  1.012808e-08
    769    772   2   0.50000    -0.1150000   -0.7800000   1.467648e-03  2.359657e-06
    798    772   2   0.50000     0.1150000   -0.7800000   3.043650e-04  1.550182e-07
    798    794   2   0.50000     0.1150000   -0.1150000   2.431434e-04  1.541678e-07
    770    773   2   0.50000    -0.1150000    0.2000000   1.172438e-03  2.346713e-06
    770    799   2   0.50000    -0.1150000    0.3800000   2.144502e-06  1.199282e-11
    794    773   2   0.50000    -0.1150000    0.2000000   1.172438e-03  2.346713e-06
    794    799   2   0.50000    -0.1150000    0.3800000   2.144502e-06  1.199282e-11
    770    816   2   0.50000    -0.1150000    0.1150000   2.431434e-04  1.541678e-07
    772    795   2   0.50000    -0.7800000   -0.1150000   1.467648e-03  2.359657e-06
    772    816   2   0.50000    -0.7800000    0.1150000   3.043650e-04  1.550182e-07
    771    774   2   0.50000     0.2000000   -0.1150000   1.172438e-03  2.346713e-06
    771    793   2   0.50000     0.2000000   -0.1150000   1.172438e-03  2.346713e-06
    799    774   2   0.50000     0.3800000   -0.1150000   2.144502e-06  1.199282e-11
    799    793   2   0.50000     0.3800000   -0.1150000   2.144502e-06  1.199282e-11
    772    775   2   0.50000    -0.7800000   -0.1150000   1.467648e-03  2.359657e-06
    772    800   2   0.50000    -0.7800000    0.1150000   3.043650e-04  1.550182e-07
    793    775   2   0.50000    -0.1150000   -0.1150000   1.172438e-03  2.346713e-06
    793    800   2   0.50000    -0.1150000    0.1150000   2.431434e-04  1.541678e-07
    772    792   2   0.50000    -0.7800000   -0.1150000   1.467648e-03  2.359657e-06
    772    815   2   0.50000    -0.7800000    0.1150000   3.043650e-04  1.550182e-07
    774    792   2   0.50000    -0.1150000   -0.1150000   1.172438e-03  2.346713e-06
    774    815   2   0.50000    -0.1150000    0.1150000   2.431434e-04  1.541678e-07
    773    776   2   0.50000     0.2000000    0.2000000   1.172438e-03  2.346713e-06
    773    801   2   0.50000     0.2000000    0.1150000   2.431434e-04  1.541678e-07
    800    776   2   0.50000     0.1150000    0.2000000   2.431434e-04  1.541678e-07
    800    801   2   0.50000     0.1150000    0.1150000   5.042375e-05  1.012808e-08
    774    777   2   0.50000    -0.1150000   -0.7800000   1.467648e-03  2.359657e-06
    801    777   2   0.50000     0.1150000   -0.7800000   3.043650e-04  1.550182e-07
    801    792   2   0.50000     0.1150000   -0.1150000   2.431434e-04  1.541678e-07
    775    778   2   0.50000    -0.1150000    0.2000000   1.172438e-03  2.346713e-06
    775    802   2   0.50000    -0.1150000    0.3800000   2.144502e-06  1.199282e-11
    792    778   2   0.50000    -0.1150000    0.2000000   1.172438e-03  2.346713e-06
    792    802   2   0.50000    -0.1150000    0.3800000   2.144502e-06  1.199282e-11
    775    814   2   0.50000    -0.1150000    0.1150000   2.431434e-04  1.541678e-07
    777    793   2   0.50000    -0.7800000   -0.1150000   1.467648e-03  2.359657e-06
    777    814   2   0.50000    -0.7800000    0.1150000   3.043650e-04  1.550182e-07
    776    779   2   0.50000     0.2000000   -0.1150000   1.172438e-03  2.346713e-06
    776    791   2   0.50000     0.2000000   -0.1150000   1.172438e-03  2.346713e-06
    802    779   2   0.50000     0.3800000   -0.1150000   2.144502e-06  1.199282e-11
    802    791   2   0.50000     0.3800000   -0.1150000   2.144502e-06  1.199282e-11
    777    780   2   0.50000    -0.7800000   -0.1150000   1.467648e-03  2.359657e-06
    777    803   2   0.50000    -0.7800000    0.1150000   3.043650e-04  1.550182e-07
    791    780   2   0.50000    -0.1150000   -0.1150000   1.172438e-03  2.346713e-06
    791    803   2   0.50000    -0.1150000    0.1150000   2.431434e-04  1.541678e-07
    777    790   2   0.50000    -0.7800000   -0.1150000   1.467648e-03  2.359657e-06
    777    813   2   0.50000    -0.7800000    0.1150000   3.043650e-04  1.550182e-07
    779    790   2   0.50000    -0.1150000   -0.1150000   1.172438e-03  2.346713e-06
    779    813   2   0.50000    -0.1150000    0.1150000   2.431434e-04  1.541678e-07
    778    781   2   0.50000     0.2000000    0.2000000   1.172438e-03  2.346713e-06
    778    804   2   0.50000     0.2000000    0.1150000   2.431434e-04  1.541678e-07
    803    781   2   0.50000     0.1150000    0.2000000   2.431434e-04  1.541678e-07
    803    804   2   0.50000     0.1150000    0.1150000   5.042375e-05  1.012808e-08
    779    782   2   0.50000    -0.1150000   -0.7800000   1.467648e-03  2.359657e-06
    804    782   2   0.50000     0.1150000   -0.7800000   3.043650e-04  1.550182e-07
    804    790   2   0.50000     0.1150000   -0.1150000   2.431434e-04  1.541678e-07
    780    783   2   0.50000    -0.1150000    0.2000000   1.172438e-03  2.346713e-06
    780    805   2   0.50000    -0.1150000    0.3800000   2.144502e-06  1.199282e-11
    790    783   2   0.50000    -0.1150000    0.2000000   1.172438e-03  2.346713e-06
    790    805   2   0.50000    -0.1150000    0.3800000   2.144502e-06  1.199282e-11
    780    812   2   0.50000    -0.1150000    0.1150000   2.431434e-04  1.541678e-07
    782    791   2   0.50000    -0.7800000   -0.1150000   1.467648e-03  2.359657e-06
    782    812   2   0.50000    -0.7800000    0.1150000   3.043650e-04  1.550182e-07
    781    784   2   0.50000     0.2000000   -0.1150000   1.172438e-03  2.346713e-06
    781    789   2   0.50000     0.2000000   -0.1150000   1.172438e-03  2.346713e-06
    805    784   2   0.50000     0.3800000   -0.1150000   2.144502e-06  1.199282e-11
    805    789   2   0.50000     0.3800000   -0.1150000   2.144502e-06  1.199282e-11
    782    785   2   0.50000    -0.7800000   -0.1150000   1.467648e-03  2.359657e-06
    782    806   2   0.50000    -0.7800000    0.1150000   3.043650e-04  1.550182e-07
    789    785   2   0.50000    -0.1150000   -0.1150000   1.172438e-03  2.346713e-06
    789    806   2   0.50000    -0.1150000    0.1150000   2.431434e-04  1.541678e-07
    782    788   2   0.50000    -0.7800000   -0.1150000   1.467648e-03  2.359657e-06
    782    811   2   0.50000    -0.7800000    0.1150000   3.043650e-04  1.550182e-07
    784    788   2   0.50000    -0.1150000   -0.1150000   1.172438e-03  2.346713e-06
    784    811   2   0.50000    -0.1150000    0.1150000   2.431434e-04  1.541678e-07
    783    786   2   0.50000     0.2000000   -0.1150000   1.172438e-03  2.346713e-06
    783    807   2   0.50000     0.2000000    0.1150000   2.431434e-04  1.541678e-07
    806    786   2   0.50000     0.1150000   -0.1150000   2.431434e-04  1.541678e-07
    806    807   2   0.50000     0.1150000    0.1150000   5.042375e-05  1.012808e-08
    784    787   2   0.50000    -0.1150000    0.1950000   1.091018e-03  2.092768e-06
    807    787   2   0.50000     0.1150000    0.1950000   2.262583e-04  1.374848e-07
    807    788   2   0.50000     0.1150000   -0.1150000   2.431434e-04  1.541678e-07
    785    808   2   0.50000    -0.1150000    0.0600000   2.680627e-04  1.873879e-07
    785    809   2   0.50000    -0.1150000    0.0600000   2.680627e-04  1.873879e-07
    785    818   2   0.50000    -0.1150000   -0.7800000   1.467648e-03  2.359657e-06
    788    808   2   0.50000    -0.1150000    0.0600000   2.680627e-04  1.873879e-07
    788    809   2   0.50000    -0.1150000    0.0600000   2.680627e-04  1.873879e-07
    788    818   2   0.50000    -0.1150000   -0.7800000   1.467648e-03  2.359657e-06
    785    810   2   0.50000    -0.1150000    0.1150000   2.431434e-04  1.541678e-07
    787    789   2   0.50000     0.1950000   -0.1150000   1.091018e-03  2.092768e-06
    787    810   2   0.50000     0.1950000    0.1150000   2.262583e-04  1.374848e-07
    786    819   2   0.50000    -0.1150000    0.2000000   1.172438e-03  2.346713e-06
    786    847   2   0.50000    -0.1150000    0.3800000   2.144502e-06  1.199282e-11
    808    819   2   0.50000     0.0600000    0.2000000   2.680627e-04  1.873879e-07
    808    847   2   0.50000     0.0600000    0.3800000   4.903125e-07  9.576416e-13
    809    819   2   0.50000     0.0600000    0.2000000   2.680627e-04  1.873879e-07
    809    847   2   0.50000     0.0600000    0.3800000   4.903125e-07  9.576416e-13
    786    811   2   0.50000    -0.1150000    0.1150000   2.431434e-04  1.541678e-07
    810    783   2   0.50000     0.1150000    0.2000000   2.431434e-04  1.541678e-07
    810    811   2   0.50000     0.1150000    0.1150000   5.042375e-05  1.012808e-08
    781    813   2   0.50000     0.2000000    0.1150000   2.431434e-04  1.541678e-07
    812    778   2   0.50000     0.1150000    0.2000000   2.431434e-04  1.541678e-07
    812    813   2   0.50000     0.1150000    0.1150000   5.042375e-05  1.012808e-08
    776    815   2   0.50000     0.2000000    0.1150000   2.431434e-04  1.541678e-07
    814    773   2   0.50000     0.1150000    0.2000000   2.431434e-04  1.541678e-07
    814    815   2   0.50000     0.1150000    0.1150000   5.042375e-05  1.012808e-08
    771    817   2   0.50000     0.2000000    0.1150000   2.431434e-04  1.541678e-07
    816    768   2   0.50000     0.1150000    0.2000000   2.431434e-04  1.541678e-07
    816    817   2   0.50000     0.1150000    0.1150000   5.042375e-05  1.012808e-08
    787    820   2   0.50000     0.1950000   -0.1150000   1.091018e-03  2.092768e-06
    787    846   2   0.50000     0.1950000   -0.1150000   1.091018e-03  2.092768e-06
    847    820   2   0.50000     0.3800000   -0.1150000   2.144502e-06  1.199282e-11
    847    846   2   0.50000     0.3800000   -0.1150000   2.144502e-06  1.199282e-11
    818    821   2   0.50000    -0.7800000   -0.1150000   1.467648e-03  2.359657e-06
    818    848   2   0.50000    -0.7800000    0.1150000   3.043650e-04  1.550182e-07
    846    821   2   0.50000    -0.1150000   -0.1150000   1.172438e-03  2.346713e-06
    846    848   2   0.50000    -0.1150000    0.1150000   2.431434e-04  1.541678e-07
    818    845   2   0.50000    -0.7800000   -0.1150000   1.467648e-03  2.359657e-06
    818    868   2   0.50000    -0.7800000    0.1150000   3.043650e-04  1.550182e-07
    820    845   2   0.50000    -0.1150000   -0.1150000   1.172438e-03  2.346713e-06
    820    868   2   0.50000    -0.1150000    0.1150000   2.431434e-04  1.541678e-07
    819    822   2   0.50000     0.2000000    0.2000000   1.172438e-03  2.346713e-06
    819    849   2   0.50000     0.2000000    0.1150000   2.431434e-04  1.541678e-07
    848    822   2   0.50000     0.1150000    0.2000000   2.431434e-04  1.541678e-07
    848    849   2   0.50000     0.1150000    0.1150000   5.042375e-05  1.012808e-08
    820    823   2   0.50000    -0.1150000   -0.7800000   1.467648e-03  2.359657e-06
    849    823   2   0.50000     0.1150000   -0.7800000   3.043650e-04  1.550182e-07
    849    845   2   0.50000     0.1150000   -0.1150000   2.431434e-04  1.541678e-07
    821    824   2   0.50000    -0.1150000    0.2000000   1.172438e-03  2.346713e-06
    821    850   2   0.50000    -0.1150000    0.3800000   2.144502e-06  1.199282e-11
    845    824   2   0.50000    -0.1150000    0.2000000   1.172438e-03  2.346713e-06
    845    850   2   0.50000    -0.1150000    0.3800000   2.144502e-06  1.199282e-11
    821    867   2   0.50000    -0.1150000    0.1150000   2.431434e-04  1.541678e-07
    823    846   2   0.50000    -0.7800000   -0.1150000   1.467648e-03  2.359657e-06
    823    867   2   0.50000    -0.7800000    0.1150000   3.043650e-04  1.550182e-07
    822    825   2   0.50000     0.2000000   -0.1150000   1.172438e-03  2.346713e-06
    822    844   2   0.50000     0.2000000   -0.1150000   1.172438e-03  2.346713e-06
    850    825   2   0.50000     0.3800000   -0.1150000   2.144502e-06  1.199282e-11
    850    844   2   0.50000     0.3800000   -0.1150000   2.144502e-06  1.199282e-11
    823    826   2   0.50000    -0.7800000   -0.1150000   1.467648e-03  2.359657e-06
    823    851   2   0.50000    -0.7800000    0.1150000   3.043650e-04  1.550182e-07
    844    826   2   0.50000    -0.1150000   -0.1150000   1.172438e-03  2.346713e-06
    844    851   2   0.50000    -0.1150000    0.1150000   2.431434e-04  1.541678e-07
    823    843   2   0.50000    -0.7800000   -0.1150000   1.467648e-03  2.359657e-06
    823    866   2   0.50000    -0.7800000    0.1150000   3.043650e-04  1.550182e-07
    825    843   2   0.50000    -0.1150000   -0.1150000   1.172438e-03  2.346713e-06
    825    866   2   0.50000    -0.1150000    0.1150000   2.431434e-04  1.541678e-07
    824    827   2   0.50000     0.2000000    0.2000000   1.172438e-03  2.346713e-06
    824    852   2   0.50000     0.2000000    0.1150000   2.431434e-04  1.541678e-07
    851    827   2   0.50000     0.1150000    0.2000000   2.431434e-04  1.541678e-07
    851    852   2   0.50000     0.1150000    0.1150000   5.042375e-05  1.012808e-08
    825    828   2   0.50000    -0.1150000   -0.7800000   1.467648e-03  2.359657e-06
    852    828   2   0.50000     0.1150000   -0.7800000   3.043650e-04  1.550182e-07
    852    843   2   0.50000     0.1150000   -0.1150000   2.431434e-04  1.541678e-07
    826    829   2   0.50000    -0.1150000    0.2000000   1.172438e-03  2.346713e-06
    826    853   2   0.50000    -0.1150000    0.3800000   2.144502e-06  1.199282e-11
    843    829   2   0.50000    -0.1150000    0.2000000   1.172438e-03  2.346713e-06
    843    853   2   0.50000    -0.1150000    0.3800000   2.144502e-06  1.199282e-11
    826    865   2   0.50000    -0.1150000    0.1150000   2.431434e-04  1.541678e-07
    828    844   2   0.50000    -0.7800000   -0.1150000   1.467648e-03  2.359657e-06
    828    865   2   0.50000    -0.7800000    0.1150000   3.043650e-04  1.550182e-07
    827    830   2   0.50000     0.2000000   -0.1150000   1.172438e-03  2.346713e-06
    827    842   2   0.50000     0.2000000   -0.1150000   1.172438e-03  2.346713e-06
    853    830   2   0.50000     0.3800000   -0.1150000   2.144502e-06  1.199282e-11
    853    842   2   0.50000     0.3800000   -0.1150000   2.144502e-06  1.199282e-11
    828    831   2   0.50000    -0.7800000   -0.1150000   1.467648e-03  2.359657e-06
    828    854   2   0.50000    -0.7800000    0.1150000   3.043650e-04  1.550182e-07
    842    831   2   0.50000    -0.1150000   -0.1150000   1.172438e-03  2.346713e-06
    842    854   2   0.50000    -0.1150000    0.1150000   2.431434e-04  1.541678e-07
    828    841   2   0.50000    -0.7800000   -0.1150000   1.467648e-03  2.359657e-06
    828    864   2   0.50000    -0.7800000    0.1150000   3.043650e-04  1.550182e-07
    830    841   2   0.50000    -0.1150000   -0.1150000   1.172438e-03  2.346713e-06
    830    864   2   0.50000    -0.1150000    0.1150000   2.431434e-04  1.541678e-07
    829    832   2   0.50000     0.2000000    0.2000000   1.172438e-03  2.346713e-06
    829    855   2   0.50000     0.2000000    0.1150000   2.431434e-04  1.541678e-07
    854    832   2   0.50000     0.1150000    0.2000000   2.431434e-04  1.541678e-07
    854    855   2   0.50000     0.1150000    0.1150000   5.042375e-05  1.012808e-08
    830    833   2   0.50000    -0.1150000   -0.7800000   1.467648e-03  2.359657e-06
    855    833   2   0.50000     0.1150000   -0.7800000   3.043650e-04  1.550182e-07
    855    841   2   0.50000     0.1150000   -0.1150000   2.431434e-04  1.541678e-07
    831    834   2   0.50000    -0.1150000    0.2000000   1.172438e-03  2.346713e-06
    831    856   2   0.50000    -0.1150000    0.3800000   2.144502e-06  1.199282e-11
    841    834   2   0.50000    -0.1150000    0.2000000   1.172438e-03  2.346713e-06
    841    856   2   0.50000    -0.1150000    0.3800000   2.144502e-06  1.199282e-11
    831    863   2   0.50000    -0.1150000    0.1150000   2.431434e-04  1.541678e-07
    833    842   2   0.50000    -0.7800000   -0.1150000   1.467648e-03  2.359657e-06
    833    863   2   0.50000    -0.7800000    0.1150000   3.043650e-04  1.550182e-07
    832    835   2   0.50000     0.2000000   -0.1150000   1.172438e-03  2.346713e-06
    832    840   2   0.50000     0.2000000   -0.1150000   1.172438e-03  2.346713e-06
    856    835   2   0.50000     0.3800000   -0.1150000   2.144502e-06  1.199282e-11
    856    840   2   0.50000     0.3800000   -0.1150000   2.144502e-06  1.199282e-11
    833    836   2   0.50000    -0.7800000   -0.1150000   1.467648e-03  2.359657e-06
    833    857   2   0.50000    -0.7800000    0.1150000   3.043650e-04  1.550182e-07
    840    836   2   0.50000    -0.1150000   -0.1150000   1.172438e-03  2.346713e-06
    840    857   2   0.50000    -0.1150000    0.1150000   2.431434e-04  1.541678e-07
    833    839   2   0.50000    -0.7800000   -0.1150000   1.467648e-03  2.359657e-06
    833    862   2   0.50000    -0.7800000    0.1150000   3.043650e-04  1.550182e-07
    835    839   2   0.50000    -0.1150000   -0.1150000   1.172438e-03  2.346713e-06
    835    862   2   0.50000    -0.1150000    0.1150000   2.431434e-04  1.541678e-07
    834    837   2   0.50000     0.2000000   -0.1150000   1.172438e-03  2.346713e-06
    834    858   2   0.50000     0.2000000    0.1150000   2.431434e-04  1.541678e-07
    857    837   2   0.50000     0.1150000   -0.1150000   2.431434e-04  1.541678e-07
    857    858   2   0.50000     0.1150000    0.1150000   5.042375e-05  1.012808e-08
    835    838   2   0.50000    -0.1150000    0.1950000   1.091018e-03  2.092768e-06
    858    838   2   0.50000     0.1150000    0.1950000   2.262583e-04  1.374848e-07
    858    839   2   0.50000     0.1150000   -0.1150000   2.431434e-04  1.541678e-07
    836    859   2   0.50000    -0.1150000    0.0600000   2.680627e-04  1.873879e-07
    836    860   2   0.50000    -0.1150000    0.0600000   2.680627e-04  1.873879e-07
    836    869   2   0.50000    -0.1150000   -0.7800000   1.467648e-03  2.359657e-06
    839    859   2   0.50000    -0.1150000    0.0600000   2.680627e-04  1.873879e-07
    839    860   2   0.50000    -0.1150000    0.0600000   2.680627e-04  1.873879e-07
    839    869   2   0.50000    -0.1150000   -0.7800000   1.467648e-03  2.359657e-06
    836    861   2   0.50000    -0.1150000    0.1150000   2.431434e-04  1.541678e-07
    838    840   2   0.50000     0.1950000   -0.1150000   1.091018e-03  2.092768e-06
    838    861   2   0.50000     0.1950000    0.1150000   2.262583e-04  1.374848e-07
    837    870   2   0.50000    -0.1150000    0.2000000   1.172438e-03  2.346713e-06
    837    898   2   0.50000    -0.1150000    0.3800000   2.144502e-06  1.199282e-11
    859    870   2   0.50000     0.0600000    0.2000000   2.680627e-04  1.873879e-07
    859    898   2   0.50000     0.0600000    0.3800000   4.903125e-07  9.576416e-13
    860    870   2   0.50000     0.0600000    0.2000000   2.680627e-04  1.873879e-07
    860    898   2   0.50000     0.0600000    0.3800000   4.903125e-07  9.576416e-13
    837    862   2   0.50000    -0.1150000    0.1150000   2.431434e-04  1.541678e-07
    861    834   2   0.50000     0.1150000    0.2000000   2.431434e-04  1.541678e-07
    861    862   2   0.50000     0.1150000    0.1150000   5.042375e-05  1.012808e-08
    832    864   2   0.50000     0.2000000    0.1150000   2.431434e-04  1.541678e-07
    863    829   2   0.50000     0.1150000    0.2000000   2.431434e-04  1.541678e-07
    863    864   2   0.50000     0.1150000    0.1150000   5.042375e-05  1.012808e-08
    827    866   2   0.50000     0.2000000    0.1150000   2.431434e-04  1.541678e-07
    865    824   2   0.50000     0.1150000    0.2000000   2.431434e-04  1.541678e-07
    865    866   2   0.50000     0.1150000    0.1150000   5.042375e-05  1.012808e-08
    822    868   2   0.50000     0.2000000    0.1150000   2.431434e-04  1.541678e-07
    867    819   2   0.50000     0.1150000    0.2000000   2.431434e-04  1.541678e-07
    867    868   2   0.50000     0.1150000    0.1150000   5.042375e-05  1.012808e-08
    838    871   2   0.50000     0.1950000   -0.1150000   1.091018e-03  2.092768e-06
    838    897   2   0.50000     0.1950000   -0.1150000   1.091018e-03  2.092768e-06
    898    871   2   0.50000     0.3800000   -0.1150000   2.144502e-06  1.199282e-11
    898    897   2   0.50000     0.3800000   -0.1150000   2.144502e-06  1.199282e-11
    869    872   2   0.50000    -0.7800000   -0.1150000   1.467648e-03  2.359657e-06
    869    899   2   0.50000    -0.7800000    0.1150000   3.043650e-04  1.550182e-07
    897    872   2   0.50000    -0.1150000   -0.1150000   1.172438e-03  2.346713e-06
    897    899   2   0.50000    -0.1150000    0.1150000   2.431434e-04  1.541678e-07
    869    896   2   0.50000    -0.7800000   -0.1150000   1.467648e-03  2.359657e-06
    869    919   2   0.50000    -0.7800000    0.1150000   3.043650e-04  1.550182e-07
    871    896   2   0.50000    -0.1150000   -0.1150000   1.172438e-03  2.346713e-06
    871    919   2   0.50000    -0.1150000    0.1150000   2.431434e-04  1.541678e-07
    870    873   2   0.50000     0.2000000    0.2000000   1.172438e-03  2.346713e-06
    870    900   2   0.50000     0.2000000    0.1150000   2.431434e-04  1.541678e-07
    899    873   2   0.50000     0.1150000    0.2000000   2.431434e-04  1.541678e-07
    899    900   2   0.50000     0.1150000    0.1150000   5.042375e-05  1.012808e-08
    871    874   2   0.50000    -0.1150000   -0.7800000   1.467648e-03  2.359657e-06
    900    874   2   0.50000     0.1150000   -0.7800000   3.043650e-04  1.550182e-07
    900    896   2   0.50000     0.1150000   -0.1150000   2.431434e-04  1.541678e-07
    872    875   2   0.50000    -0.1150000    0.2000000   1.172438e-03  2.346713e-06
    872    901   2   0.50000    -0.1150000    0.3800000   2.144502e-06  1.199282e-11
    896    875   2   0.50000    -0.1150000    0.2000000   1.172438e-03  2.346713e-06
    896    901   2   0.50000    -0.1150000    0.3800000   2.144502e-06  1.199282e-11
    872    918   2   0.50000    -0.1150000    0.1150000   2.431434e-04  1.541678e-07
    874    897   2   0.50000    -0.7800000   -0.1150000   1.467648e-03  2.359657e-06
    874    918   2   0.50000    -0.7800000    0.1150000   3.043650e-04  1.550182e-07
    873    876   2   0.50000     0.2000000   -0.1150000   1.172438e-03  2.346713e-06
    873    895   2   0.50000     0.2000000   -0.1150000   1.172438e-03  2.346713e-06
    901    876   2   0.50000     0.3800000   -0.1150000   2.144502e-06  1.199282e-11
    901    895   2   0.50000     0.3800000   -0.1150000   2.144502e-06  1.199282e-11
    874    877   2   0.50000    -0.7800000   -0.1150000   1.467648e-03  2.359657e-06
    874    902   2   0.50000    -0.7800000    0.1150000   3.043650e-04  1.550182e-07
    895    877   2   0.50000    -0.1150000   -0.1150000   1.172438e-03  2.346713e-06
    895    902   2   0.50000    -0.1150000    0.1150000   2.431434e-04  1.541678e-07
    874    894   2   0.50000    -0.7800000   -0.1150000   1.467648e-03  2.359657e-06
    874    917   2   0.50000    -0.7800000    0.1150000   3.043650e-04  1.550182e-07
    876    894   2   0.50000    -0.1150000   -0.1150000   1.172438e-03  2.346713e-06
    876    917   2   0.50000    -0.1150000    0.1150000   2.431434e-04  1.541678e-07
    875    878   2   0.50000     0.2000000    0.2000000   1.172438e-03  2.346713e-06
    875    903   2   0.50000     0.2000000    0.1150000   2.431434e-04  1.541678e-07
    902    878   2   0.50000     0.1150000    0.2000000   2.431434e-04  1.541678e-07
    902    903   2   0.50000     0.1150000    0.1150000   5.042375e-05  1.012808e-08
    876    879   2   0.50000    -0.1150000   -0.7800000   1.467648e-03  2.359657e-06
    903    879   2   0.50000     0.1150000   -0.7800000   3.043650e-04  1.550182e-07
    903    894   2   0.50000     0.1150000   -0.1150000   2.431434e-04  1.541678e-07
    877    880   2   0.50000    -0.1150000    0.2000000   1.172438e-03  2.346713e-06
    877    904   2   0.50000    -0.1150000    0.3800000   2.144502e-06  1.199282e-11
    894    880   2   0.50000    -0.1150000    0.2000000   1.172438e-03  2.346713e-06
    894    904   2   0.50000    -0.1150000    0.3800000   2.144502e-06  1.199282e-11
    877    916   2   0.50000    -0.1150000    0.1150000   2.431434e-04  1.541678e-07
    879    895   2   0.50000    -0.7800000   -0.1150000   1.467648e-03  2.359657e-06
    879    916   2   0.50000    -0.7800000    0.1150000   3.043650e-04  1.550182e-07
    878    881   2   0.50000     0.2000000   -0.1150000   1.172438e-03  2.346713e-06
    878    893   2   0.50000     0.2000000   -0.1150000   1.172438e-03  2.346713e-06
    904    881   2   0.50000     0.3800000   -0.1150000   2.144502e-06  1.199282e-11
    904    893   2   0.50000     0.3800000   -0.1150000   2.144502e-06  1.199282e-11
    879    882   2   0.50000    -0.7800000   -0.1150000   1.467648e-03  2.359657e-06
    879    905   2   0.50000    -0.7800000    0.1150000   3.043650e-04  1.550182e-07
    893    882   2   0.50000    -0.1150000   -0.1150000   1.172438e-03  2.346713e-06
    893    905   2   0.50000    -0.1150000    0.1150000   2.431434e-04  1.541678e-07
    879    892   2   0.50000    -0.7800000   -0.1150000   1.467648e-03  2.359657e-06
    879    915   2   0.50000    -0.7800000    0.1150000   3.043650e-04  1.550182e-07
    881    892   2   0.50000    -0.1150000   -0.1150000   1.172438e-03  2.346713e-06
    881    915   2   0.50000    -0.1150000    0.1150000   2.431434e-04  1.541678e-07
    880    883   2   0.50000     0.2000000    0.2000000   1.172438e-03  2.346713e-06
    880    906   2   0.50000     0.2000000    0.1150000   2.431434e-04  1.541678e-07
    905    883   2   0.50000     0.1150000    0.2000000   2.431434e-04  1.541678e-07
    905    906   2   0.50000     0.1150000    0.1150000   5.042375e-05  1.012808e-08
    881    884   2   0.50000    -0.1150000   -0.7800000   1.467648e-03  2.359657e-06
    906    884   2   0.50000     0.1150000   -0.7800000   3.043650e-04  1.550182e-07
    906    892   2   0.50000     0.1150000   -0.1150000   2.431434e-04  1.541678e-07
    882    885   2   0.50000    -0.1150000    0.2000000   1.172438e-03  2.346713e-06
    882    907   2   0.50000    -0.1150000    0.3800000   2.144502e-06  1.199282e-11
    892    885   2   0.50000    -0.1150000    0.2000000   1.172438e-03  2.346713e-06
    892    907   2   0.50000    -0.1150000    0.3800000   2.144502e-06  1.199282e-11
    882    914   2   0.50000    -0.1150000    0.1150000   2.431434e-04  1.541678e-07
    884    893   2   0.50000    -0.7800000   -0.1150000   1.467648e-03  2.359657e-06
    884    914   2   0.50000    -0.7800000    0.1150000   3.043650e-04  1.550182e-07
    883    886   2   0.50000     0.2000000   -0.1150000   1.172438e-03  2.346713e-06
    883    891   2   0.50000     0.2000000   -0.1150000   1.172438e-03  2.346713e-06
    907    886   2   0.50000     0.3800000   -0.1150000   2.144502e-06  1.199282e-11
    907    891   2   0.50000     0.3800000   -0.1150000   2.144502e-06  1.199282e-11
    884    887   2   0.50000    -0.7800000   -0.1150000   1.467648e-03  2.359657e-06
    884    908   2   0.50000    -0.7800000    0.1150000   3.043650e-04  1.550182e-07
    891    887   2   0.50000    -0.1150000   -0.1150000   1.172438e-03  2.346713e-06
    891    908   2   0.50000    -0.1150000    0.1150000   2.431434e-04  1.541678e-07
    884    890   2   0.50000    -0.7800000   -0.1150000   1.467648e-03  2.359657e-06
    884    913   2   0.50000    -0.7800000    0.1150000   3.043650e-04  1.550182e-07
    886    890   2   0.50000    -0.1150000   -0.1150000   1.172438e-03  2.346713e-06
    886    913   2   0.50000    -0.1150000    0.1150000   2.431434e-04  1.541678e-07
    885    888   2   0.50000     0.2000000   -0.1150000   1.172438e-03  2.346713e-06
    885    909   2   0.50000     0.2000000    0.1150000   2.431434e-04  1.541678e-07
    908    888   2   0.50000     0.1150000   -0.1150000   2.431434e-04  1.541678e-07
    908    909   2   0.50000     0.1150000    0.1150000   5.042375e-05  1.012808e-08
    886    889   2   0.50000    -0.1150000    0.1950000   1.091018e-03  2.092768e-06
    909    889   2   0.50000     0.1150000    0.1950000   2.262583e-04  1.374848e-07
    909    890   2   0.50000     0.1150000   -0.1150000   2.431434e-04  1.541678e-07
    887    910   2   0.50000    -0.1150000    0.0600000   2.680627e-04  1.873879e-07
    887    911   2   0.50000    -0.1150000    0.0600000   2.680627e-04  1.873879e-07
    887    920   2   0.50000    -0.1150000   -0.7800000   1.467648e-03  2.359657e-06
    890    910   2   0.50000    -0.1150000    0.0600000   2.680627e-04  1.873879e-07
    890    911   2   0.50000    -0.1150000    0.0600000   2.680627e-04  1.873879e-07
    890    920   2   0.50000    -0.1150000   -0.7800000   1.467648e-03  2.359657e-06
    887    912   2   0.50000    -0.1150000    0.1150000   2.431434e-04  1.541678e-07
    889    891   2   0.50000     0.1950000   -0.1150000   1.091018e-03  2.092768e-06
    889    912   2   0.50000     0.1950000    0.1150000   2.262583e-04  1.374848e-07
    888    921   2   0.50000    -0.1150000    0.2000000   1.172438e-03  2.346713e-06
    888    949   2   0.50000    -0.1150000    0.3800000   2.144502e-06  1.199282e-11
    910    921   2   0.50000     0.0600000    0.2000000   2.680627e-04  1.873879e-07
    910    949   2   0.50000     0.0600000    0.3800000   4.903125e-07  9.576416e-13
    911    921   2   0.50000     0.0600000    0.2000000   2.680627e-04  1.873879e-07
    911    949   2   0.50000     0.0600000    0.3800000   4.903125e-07  9.576416e-13
    888    913   2   0.50000    -0.1150000    0.1150000   2.431434e-04  1.541678e-07
    912    885   2   0.50000     0.1150000    0.2000000   2.431434e-04  1.541678e-07
    912    913   2   0.50000     0.1150000    0.1150000   5.042375e-05  1.012808e-08
    883    915   2   0.50000     0.2000000    0.1150000   2.431434e-04  1.541678e-07
    914    880   2   0.50000     0.1150000    0.2000000   2.431434e-04  1.541678e-07
    914    915   2   0.50000     0.1150000    0.1150000   5.042375e-05  1.012808e-08
    878    917   2   0.50000     0.2000000    0.1150000   2.431434e-04  1.541678e-07
    916    875   2   0.50000     0.1150000    0.2000000   2.431434e-04  1.541678e-07
    916    917   2   0.50000     0.1150000    0.1150000   5.042375e-05  1.012808e-08
    873    919   2   0.50000     0.2000000    0.1150000   2.431434e-04  1.541678e-07
    918    870   2   0.50000     0.1150000    0.2000000   2.431434e-04  1.541678e-07
    918    919   2   0.50000     0.1150000    0.1150000   5.042375e-05  1.012808e-08
    889    922   2   0.50000     0.1950000   -0.1150000   1.091018e-03  2.092768e-06
    889    948   2   0.50000     0.1950000   -0.1150000   1.091018e-03  2.092768e-06
    949    922   2   0.50000     0.3800000   -0.1150000   2.144502e-06  1.199282e-11
    949    948   2   0.50000     0.3800000   -0.1150000   2.144502e-06  1.199282e-11
    920    923   2   0.50000    -0.7800000   -0.1150000   1.467648e-03  2.359657e-06
    920    950   2   0.50000    -0.7800000    0.1150000   3.043650e-04  1.550182e-07
    948    923   2   0.50000    -0.1150000   -0.1150000   1.172438e-03  2.346713e-06
    948    950   2   0.50000    -0.1150000    0.1150000   2.431434e-04  1.541678e-07
    920    947   2   0.50000    -0.7800000   -0.1150000   1.467648e-03  2.359657e-06
    920    970   2   0.50000    -0.7800000    0.1150000   3.043650e-04  1.550182e-07
    922    947   2   0.50000    -0.1150000   -0.1150000   1.172438e-03  2.346713e-06
    922    970   2   0.50000    -0.1150000    0.1150000   2.431434e-04  1.541678e-07
    921    924   2   0.50000     0.2000000    0.2000000   1.172438e-03  2.346713e-06
    921    951   2   0.50000     0.2000000    0.1150000   2.431434e-04  1.541678e-07
    950    924   2   0.50000     0.1150000    0.2000000   2.431434e-04  1.541678e-07
    950    951   2   0.50000     0.1150000    0.1150000   5.042375e-05  1.012808e-08
    922    925   2   0.50000    -0.1150000   -0.7800000   1.467648e-03  2.359657e-06
    951    925   2   0.50000     0.1150000   -0.7800000   3.043650e-04  1.550182e-07
    951    947   2   0.50000     0.1150000   -0.1150000   2.431434e-04  1.541678e-07
    923    926   2   0.50000    -0.1150000    0.2000000   1.172438e-03  2.346713e-06
    923    952   2   0.50000    -0.1150000    0.3800000   2.144502e-06  1.199282e-11
    947    926   2   0.50000    -0.1150000    0.2000000   1.172438e-03  2.346713e-06
    947    952   2   0.50000    -0.1150000    0.3800000   2.144502e-06  1.199282e-11
    923    969   2   0.50000    -0.1150000    0.1150000   2.431434e-04  1.541678e-07
    925    948   2   0.50000    -0.7800000   -0.1150000   1.467648e-03  2.359657e-06
    925    969   2   0.50000    -0.7800000    0.1150000   3.043650e-04  1.550182e-07
    924    927   2   0.50000     0.2000000   -0.1150000   1.172438e-03  2.346713e-06
    924    946   2   0.50000     0.2000000   -0.1150000   1.172438e-03  2.346713e-06
    952    927   2   0.50000     0.3800000   -0.1150000   2.144502e-06  1.199282e-11
    952    946   2   0.50000     0.3800000   -0.1150000   2.144502e-06  1.199282e-11
    925    928   2   0.50000    -0.7800000   -0.1150000   1.467648e-03  2.359657e-06
    925    953   2   0.50000    -0.7800000    0.1150000   3.043650e-04  1.550182e-07
    946    928   2   0.50000    -0.1150000   -0.1150000   1.172438e-03  2.346713e-06
    946    953   2   0.50000    -0.1150000    0.1150000   2.431434e-04  1.541678e-07
    925    945   2   0.50000    -0.7800000   -0.1150000   1.467648e-03  2.359657e-06
    925    968   2   0.50000    -0.7800000    0.1150000   3.043650e-04  1.550182e-07
    927    945   2   0.50000    -0.1150000   -0.1150000   1.172438e-03  2.346713e-06
    927    968   2   0.50000    -0.1150000    0.1150000   2.431434e-04  1.541678e-07
    926    929   2   0.50000     0.2000000    0.2000000   1.172438e-03  2.346713e-06
    926    954   2   0.50000     0.2000000    0.1150000   2.431434e-04  1.541678e-07
    953    929   2   0.50000     0.1150000    0.2000000   2.431434e-04  1.541678e-07
    953    954   2   0.50000     0.1150000    0.1150000   5.042375e-05  1.012808e-08
    927    930   2   0.50000    -0.1150000   -0.7800000   1.467648e-03  2.359657e-06
    954    930   2   0.50000     0.1150000   -0.7800000   3.043650e-04  1.550182e-07
    954    945   2   0.50000     0.1150000   -0.1150000   2.431434e-04  1.541678e-07
    928    931   2   0.50000    -0.1150000    0.2000000   1.172438e-03  2.346713e-06
    928    955   2   0.50000    -0.1150000    0.3800000   2.144502e-06  1.199282e-11
    945    931   2   0.50000    -0.1150000    0.2000000   1.172438e-03  2.346713e-06
    945    955   2   0.50000    -0.1150000    0.3800000   2.144502e-06  1.199282e-11
    928    967   2   0.50000    -0.1150000    0.1150000   2.431434e-04  1.541678e-07
    930    946   2   0.50000    -0.7800000   -0.1150000   1.467648e-03  2.359657e-06
    930    967   2   0.50000    -0.7800000    0.1150000   3.043650e-04  1.550182e-07
    929    932   2   0.50000     0.2000000   -0.1150000   1.172438e-03  2.346713e-06
    929    944   2   0.50000     0.2000000   -0.1150000   1.172438e-03  2.346713e-06
    955    932   2   0.50000     0.3800000   -0.1150000   2.144502e-06  1.199282e-11
    955    944   2   0.50000     0.3800000   -0.1150000   2.144502e-06  1.199282e-11
    930    933   2   0.50000    -0.7800000   -0.1150000   1.467648e-03  2.359657e-06
    930    956   2   0.50000    -0.7800000    0.1150000   3.043650e-04  1.550182e-07
    944    933   2   0.50000    -0.1150000   -0.1150000   1.172438e-03  2.346713e-06
    944    956   2   0.50000    -0.1150000    0.1150000   2.431434e-04  1.541678e-07
    930    943   2   0.50000    -0.7800000   -0.1150000   1.467648e-03  2.359657e-06
    930    966   2   0.50000    -0.7800000    0.1150000   3.043650e-04  1.550182e-07
    932    943   2   0.50000    -0.1150000   -0.1150000   1.172438e-03  2.346713e-06
    932    966   2   0.50000    -0.1150000    0.1150000   2.431434e-04  1.541678e-07
    931    934   2   0.50000     0.2000000    0.2000000   1.172438e-03  2.346713e-06
    931    957   2   0.50000     0.2000000    0.1150000   2.431434e-04  1.541678e-07
    956    934   2   0.50000     0.1150000    0.2000000   2.431434e-04  1.541678e-07
    956    957   2   0.50000     0.1150000    0.1150000   5.042375e-05  1.012808e-08
    932    935   2   0.50000    -0.1150000   -0.7800000   1.467648e-03  2.359657e-06
    957    935   2   0.50000     0.1150000   -0.7800000   3.043650e-04  1.550182e-07
    957    943   2   0.50000     0.1150000   -0.1150000   2.431434e-04  1.541678e-07
    933    936   2   0.50000    -0.1150000    0.2000000   1.172438e-03  2.346713e-06
    933    958   2   0.50000    -0.1150000    0.3800000   2.144502e-06  1.199282e-11
    943    936   2   0.50000    -0.1150000    0.2000000   1.172438e-03  2.346713e-06
    943    958   2   0.50000    -0.1150000    0.3800000   2.144502e-06  1.199282e-11
    933    965   2   0.50000    -0.1150000    0.1150000   2.431434e-04  1.541678e-07
    935    944   2   0.50000    -0.7800000   -0.1150000   1.467648e-03  2.359657e-06
    935    965   2   0.50000    -0.7800000    0.1150000   3.043650e-04  1.550182e-07
    934    937   2   0.50000     0.2000000   -0.1150000   1.172438e-03  2.346713e-06
    934    942   2   0.50000     0.2000000   -0.1150000   1.172438e-03  2.346713e-06
    958    937   2   0.50000     0.3800000   -0.1150000   2.144502e-06  1.199282e-11
    958    942   2   0.50000     0.3800000   -0.1150000   2.144502e-06  1.199282e-11
    935    938   2   0.50000    -0.7800000   -0.1150000   1.467648e-03  2.359657e-06
    935    959   2   0.50000    -0.7800000    0.1150000   3.043650e-04  1.550182e-07
    942    938   2   0.50000    -0.1150000   -0.1150000   1.172438e-03  2.346713e-06
    942    959   2   0.50000    -0.1150000    0.1150000   2.431434e-04  1.541678e-07
    935    941   2   0.50000    -0.7800000   -0.1150000   1.467648e-03  2.359657e-06
    935    964   2   0.50000    -0.7800000    0.1150000   3.043650e-04  1.550182e-07
    937    941   2   0.50000    -0.1150000   -0.1150000   1.172438e-03  2.346713e-06
    937    964   2   0.50000    -0.1150000    0.1150000   2.431434e-04  1.541678e-07
    936    939   2   0.50000     0.2000000   -0.1150000   1.172438e-03  2.346713e-06
    936    960   2   0.50000     0.2000000    0.1150000   2.431434e-04  1.541678e-07
    959    939   2   0.50000     0.1150000   -0.1150000   2.431434e-04  1.541678e-07
    959    960   2   0.50000     0.1150000    0.1150000   5.042375e-05  1.012808e-08
    937    940   2   0.50000    -0.1150000    0.1950000   1.091018e-03  2.092768e-06
    960    940   2   0.50000     0.1150000    0.1950000   2.262583e-04  1.374848e-07
    960    941   2   0.50000     0.1150000   -0.1150000   2.431434e-04  1.541678e-07
    938    961   2   0.50000    -0.1150000    0.0600000   2.680627e-04  1.873879e-07
    938    962   2   0.50000    -0.1150000    0.0600000   2.680627e-04  1.873879e-07
    938    971   2   0.50000    -0.1150000   -0.7800000   1.467648e-03  2.359657e-06
    941    961   2   0.50000    -0.1150000    0.0600000   2.680627e-04  1.873879e-07
    941    962   2   0.50000    -0.1150000    0.0600000   2.680627e-04  1.873879e-07
    941    971   2   0.50000    -0.1150000   -0.7800000   1.467648e-03  2.359657e-06
    938    963   2   0.50000    -0.1150000    0.1150000   2.431434e-04  1.541678e-07
    940    942   2   0.50000     0.1950000   -0.1150000   1.091018e-03  2.092768e-06
    940    963   2   0.50000     0.1950000    0.1150000   2.262583e-04  1.374848e-07
    939    972   2   0.50000    -0.1150000    0.2000000   1.172438e-03  2.346713e-06
    939   1000   2   0.50000    -0.1150000    0.3800000   2.144502e-06  1.199282e-11
    961    972   2   0.50000     0.0600000    0.2000000   2.680627e-04  1.873879e-07
    961   1000   2   0.50000     0.0600000    0.3800000   4.903125e-07  9.576416e-13
    962    972   2   0.50000     0.0600000    0.2000000   2.680627e-04  1.873879e-07
    962   1000   2   0.50000     0.0600000    0.3800000   4.903125e-07  9.576416e-13
    939    964   2   0.50000    -0.1150000    0.1150000   2.431434e-04  1.541678e-07
    963    936   2   0.50000     0.1150000    0.2000000   2.431434e-04  1.541678e-07
    963    964   2   0.50000     0.1150000    0.1150000   5.042375e-05  1.012808e-08
    934    966   2   0.50000     0.2000000    0.1150000   2.431434e-04  1.541678e-07
    965    931   2   0.50000     0.1150000    0.2000000   2.431434e-04  1.541678e-07
    965    966   2   0.50000     0.1150000    0.1150000   5.042375e-05  1.012808e-08
    929    968   2   0.50000     0.2000000    0.1150000   2.431434e-04  1.541678e-07
    967    926   2   0.50000     0.1150000    0.2000000   2.431434e-04  1.541678e-07
    967    968   2   0.50000     0.1150000    0.1150000   5.042375e-05  1.012808e-08
    924    970   2   0.50000     0.2000000    0.1150000   2.431434e-04  1.541678e-07
    969    921   2   0.50000     0.1150000    0.2000000   2.431434e-04  1.541678e-07
    969    970   2   0.50000     0.1150000    0.1150000   5.042375e-05  1.012808e-08
    940    973   2   0.50000     0.1950000   -0.1150000   1.091018e-03  2.092768e-06
    940    999   2   0.50000     0.1950000   -0.1150000   1.091018e-03  2.092768e-06
   1000    973   2   0.50000     0.3800000   -0.1150000   2.144502e-06  1.199282e-11
   1000    999   2   0.50000     0.3800000   -0.1150000   2.144502e-06  1.199282e-11
    971    974   2   0.50000    -0.7800000   -0.1150000   1.467648e-03  2.359657e-06
    971   1001   2   0.50000    -0.7800000    0.1150000   3.043650e-04  1.550182e-07
    999    974   2   0.50000    -0.1150000   -0.1150000   1.172438e-03  2.346713e-06
    999   1001   2   0.50000    -0.1150000    0.1150000   2.431434e-04  1.541678e-07
    971    998   2   0.50000    -0.7800000   -0.1150000   1.467648e-03  2.359657e-06
    971   1021   2   0.50000    -0.7800000    0.1150000   3.043650e-04  1.550182e-07
    973    998   2   0.50000    -0.1150000   -0.1150000   1.172438e-03  2.346713e-06
    973   1021   2   0.50000    -0.1150000    0.1150000   2.431434e-04  1.541678e-07
    972    975   2   0.50000     0.2000000    0.2000000   1.172438e-03  2.346713e-06
    972   1002   2   0.50000     0.2000000    0.1150000   2.431434e-04  1.541678e-07
   1001    975   2   0.50000     0.1150000    0.2000000   2.431434e-04  1.541678e-07
   1001   1002   2   0.50000     0.1150000    0.1150000   5.042375e-05  1.012808e-08
    973    976   2   0.50000    -0.1150000   -0.7800000   1.467648e-03  2.359657e-06
   1002    976   2   0.50000     0.1150000   -0.7800000   3.043650e-04  1.550182e-07
   1002    998   2   0.50000     0.1150000   -0.1150000   2.431434e-04  1.541678e-07
    974    977   2   0.50000    -0.1150000    0.2000000   1.172438e-03  2.346713e-06
    974   1003   2   0.50000    -0.1150000    0.3800000   2.144502e-06  1.199282e-11
    998    977   2   0.50000    -0.1150000    0.2000000   1.172438e-03  2.346713e-06
    998   1003   2   0.50000    -0.1150000    0.3800000   2.144502e-06  1.199282e-11
    974   1020   2   0.50000    -0.1150000    0.1150000   2.431434e-04  1.541678e-07
    976    999   2   0.50000    -0.7800000   -0.1150000   1.467648e-03  2.359657e-06
    976   1020   2   0.50000    -0.7800000    0.1150000   3.043650e-04  1.550182e-07
    975    978   2   0.50000     0.2000000   -0.1150000   1.172438e-03  2.346713e-06
    975    997   2   0.50000     0.2000000   -0.1150000   1.172438e-03  2.346713e-06
   1003    978   2   0.50000     0.3800000   -0.1150000   2.144502e-06  1.199282e-11
   1003    997   2   0.50000     0.3800000   -0.1150000   2.144502e-06  1.199282e-11
    976    979   2   0.50000    -0.7800000   -0.1150000   1.467648e-03  2.359657e-06
    976   1004   2   0.50000    -0.7800000    0.1150000   3.043650e-04  1.550182e-07
    997    979   2   0.50000    -0.1150000   -0.1150000   1.172438e-03  2.346713e-06
    997   1004   2   0.50000    -0.1150000    0.1150000   2.431434e-04  1.541678e-07
    976    996   2   0.50000    -0.7800000   -0.1150000   1.467648e-03  2.359657e-06
    976   1019   2   0.50000    -0.7800000    0.1150000   3.043650e-04  1.550182e-07
    978    996   2   0.50000    -0.1150000   -0.1150000   1.172438e-03  2.346713e-06
    978   1019   2   0.50000    -0.1150000    0.1150000   2.431434e-04  1.541678e-07
    977    980   2   0.50000     0.2000000    0.2000000   1.172438e-03  2.346713e-06
    977   1005   2   0.50000     0.2000000    0.1150000   2.431434e-04  1.541678e-07
   1004    980   2   0.50000     0.1150000    0.2000000   2.431434e-04  1.541678e-07
   1004   1005   2   0.50000     0.1150000    0.1150000   5.042375e-05  1.012808e-08
    978    981   2   0.50000    -0.1150000   -0.7800000   1.467648e-03  2.359657e-06
   1005    981   2   0.50000     0.1150000   -0.7800000   3.043650e-04  1.550182e-07
   1005    996   2   0.50000     0.1150000   -0.1150000   2.431434e-04  1.541678e-07
    979    982   2   0.50000    -0.1150000    0.2000000   1.172438e-03  2.346713e-06
    979   1006   2   0.50000    -0.1150000    0.3800000   2.144502e-06  1.199282e-11
    996    982   2   0.50000    -0.1150000    0.2000000   1.172438e-03  2.346713e-06
    996   1006   2   0.50000    -0.1150000    0.3800000   2.144502e-06  1.199282e-11
    979   1018   2   0.50000    -0.1150000    0.1150000   2.431434e-04  1.541678e-07
    981    997   2   0.50000    -0.7800000   -0.1150000   1.467648e-03  2.359657e-06
    981   1018   2   0.50000    -0.7800000    0.1150000   3.043650e-04  1.550182e-07
    980    983   2   0.50000     0.2000000   -0.1150000   1.172438e-03  2.346713e-06
    980    995   2   0.50000     0.2000000   -0.1150000   1.172438e-03  2.346713e-06
   1006    983   2   0.50000     0.3800000   -0.1150000   2.144502e-06  1.199282e-11
   1006    995   2   0.50000     0.3800000   -0.1150000   2.144502e-06  1.199282e-11
    981    984   2   0.50000    -0.7800000   -0.1150000   1.467648e-03  2.359657e-06
    981   1007   2   0.50000    -0.7800000    0.1150000   3.043650e-04  1.550182e-07
    995    984   2   0.50000    -0.1150000   -0.1150000   1.172438e-03  2.346713e-06
    995   1007   2   0.50000    -0.1150000    0.1150000   2.431434e-04  1.541678e-07
    981    994   2   0.50000    -0.7800000   -0.1150000   1.467648e-03  2.359657e-06
    981   1017   2   0.50000    -0.7800000    0.1150000   3.043650e-04  1.550182e-07
    983    994   2   0.50000    -0.1150000   -0.1150000   1.172438e-03  2.346713e-06
    983   1017   2   0.50000    -0.1150000    0.1150000   2.431434e-04  1.541678e-07
    982    985   2   0.50000     0.2000000    0.2000000   1.172438e-03  2.346713e-06
    982   1008   2   0.50000     0.2000000    0.1150000   2.431434e-04  1.541678e-07
   1007    985   2   0.50000     0.1150000    0.2000000   2.431434e-04  1.541678e-07
   1007   1008   2   0.50000     0.1150000    0.1150000   5.042375e-05  1.012808e-08
    983    986   2   0.50000    -0.1150000   -0.7800000   1.467648e-03  2.359657e-06
   1008    986   2   0.50000     0.1150000   -0.7800000   3.043650e-04  1.550182e-07
   1008    994   2   0.50000     0.1150000   -0.1150000   2.431434e-04  1.541678e-07
    984    987   2   0.50000    -0.1150000    0.2000000   1.172438e-03  2.346713e-06
    984   1009   2   0.50000    -0.1150000    0.3800000   2.144502e-06  1.199282e-11
    994    987   2   0.50000    -0.1150000    0.2000000   1.172438e-03  2.346713e-06
    994   1009   2   0.50000    -0.1150000    0.3800000   2.144502e-06  1.199282e-11
    984   1016   2   0.50000    -0.1150000    0.1150000   2.431434e-04  1.541678e-07
    986    995   2   0.50000    -0.7800000   -0.1150000   1.467648e-03  2.359657e-06
    986   1016   2   0.50000    -0.7800000    0.1150000   3.043650e-04  1.550182e-07
    985    988   2   0.50000     0.2000000   -0.1150000   1.172438e-03  2.346713e-06
    985    993   2   0.50000     0.2000000   -0.1150000   1.172438e-03  2.346713e-06
   1009    988   2   0.50000     0.3800000   -0.1150000   2.144502e-06  1.199282e-11
   1009    993   2   0.50000     0.3800000   -0.1150000   2.144502e-06  1.199282e-11
    986    989   2   0.50000    -0.7800000   -0.1150000   1.467648e-03  2.359657e-06
    986   1010   2   0.50000    -0.7800000    0.1150000   3.043650e-04  1.550182e-07
    993    989   2   0.50000    -0.1150000   -0.1150000   1.172438e-03  2.346713e-06
    993   1010   2   0.50000    -0.1150000    0.1150000   2.431434e-04  1.541678e-07
    986    992   2   0.50000    -0.7800000   -0.1150000   1.467648e-03  2.359657e-06
    986   1015   2   0.50000    -0.7800000    0.1150000   3.043650e-04  1.550182e-07
    988    992   2   0.50000    -0.1150000   -0.1150000   1.172438e-03  2.346713e-06
    988   1015   2   0.50000    -0.1150000    0.1150000   2.431434e-04  1.541678e-07
    987    990   2   0.50000     0.2000000   -0.1150000   1.172438e-03  2.346713e-06
    987   1011   2   0.50000     0.2000000    0.1150000   2.431434e-04  1.541678e-07
   1010    990   2   0.50000     0.1150000   -0.1150000   2.431434e-04  1.541678e-07
   1010   1011   2   0.50000     0.1150000    0.1150000   5.042375e-05  1.012808e-08
    988    991   2   0.50000    -0.1150000   -0.0650000   1.091018e-03  2.092768e-06
   1011    991   2   0.50000     0.1150000   -0.0650000   2.262583e-04  1.374848e-07
   1011    992   2   0.50000     0.1150000   -0.1150000   2.431434e-04  1.541678e-07
    989   1012   2   0.50000    -0.1150000    0.0600000   2.680627e-04  1.873879e-07
    989   1013   2   0.50000    -0.1150000    0.0600000   2.680627e-04  1.873879e-07
    989   1022   2   0.50000    -0.1150000    0.0600000   2.680627e-04  1.873879e-07
    992   1012   2   0.50000    -0.1150000    0.0600000   2.680627e-04  1.873879e-07
    992   1013   2   0.50000    -0.1150000    0.0600000   2.680627e-04  1.873879e-07
    992   1022   2   0.50000    -0.1150000    0.0600000   2.680627e-04  1.873879e-07
    989   1014   2   0.50000    -0.1150000    0.1150000   2.431434e-04  1.541678e-07
    991    993   2   0.50000    -0.0650000   -0.1150000   1.091018e-03  2.092768e-06
    991   1014   2   0.50000    -0.0650000    0.1150000   2.262583e-04  1.374848e-07
    990   1015   2   0.50000    -0.1150000    0.1150000   2.431434e-04  1.541678e-07
   1014    987   2   0.50000     0.1150000    0.2000000   2.431434e-04  1.541678e-07
   1014   1015   2   0.50000     0.1150000    0.1150000   5.042375e-05  1.012808e-08
    985   1017   2   0.50000     0.2000000    0.1150000   2.431434e-04  1.541678e-07
   1016    982   2   0.50000     0.1150000    0.2000000   2.431434e-04  1.541678e-07
   1016   1017   2   0.50000     0.1150000    0.1150000   5.042375e-05  1.012808e-08
    980   1019   2   0.50000     0.2000000    0.1150000   2.431434e-04  1.541678e-07
   1018    977   2   0.50000     0.1150000    0.2000000   2.431434e-04  1.541678e-07
   1018   1019   2   0.50000     0.1150000    0.1150000   5.042375e-05  1.012808e-08
    975   1021   2   0.50000     0.2000000    0.1150000   2.431434e-04  1.541678e-07
   1020    972   2   0.50000     0.1150000    0.2000000   2.431434e-04  1.541678e-07
   1020   1021   2   0.50000     0.1150000    0.1150000   5.042375e-05  1.012808e-08

[ angles ]
; ai  aj  ak
      2      1     30   1    113.5000    292.8800
      2      1     52   1    113.5000    292.8800
     30      1     52   1    109.0000    292.8800
      1      2      3   1    120.1000    585.7600
      1      2     29   1    120.1000    585.7600
      3      2     29   1    120.0000    527.1840
      2      3      4   1    120.0000    527.1840
      2      3     31   1    120.0000    292.8800
      4      3     31   1    120.0000    292.8800
      3      4      5   1    120.0000    527.1840
      3      4     32   1    120.0000    292.8800
      5      4     32   1    120.0000    292.8800
      4      5      6   1    120.1000    585.7600
      4      5     28   1    120.0000    527.1840
      6      5     28   1    120.1000    585.7600
      5      6      7   1    122.0000    669.4400
      5      6     33   1    113.5000    292.8800
      7      6     33   1    113.5000    292.8800
      6      7      8   1    120.1000    585.7600
      6      7     27   1    120.1000    585.7600
      8      7     27   1    120.0000    527.1840
      7      8      9   1    120.0000    527.1840
      7      8     34   1    120.0000    292.8800
      9      8     34   1    120.0000    292.8800
      8      9     10   1    120.0000    527.1840
      8      9     35   1    120.0000    292.8800
     10      9     35   1    120.0000    292.8800
      9     10     11   1    120.1000    585.7600
      9     10     26   1    120.0000    527.1840
     11     10     26   1    120.1000    585.7600
     10     11     12   1    122.0000    669.4400
     10     11     36   1    113.5000    292.8800
     12     11     36   1    113.5000    292.8800
     11     12     13   1    120.1000    585.7600
     11     12     25   1    120.1000    585.7600
     13     12     25   1    120.0000    527.1840
     12     13     14   1    120.0000    527.1840
     12     13     37   1    120.0000    292.8800
     14     13     37   1    120.0000    292.8800
     13     14     15   1    120.0000    527.1840
     13     14     38   1    120.0000    292.8800
     15     14     38   1    120.0000    292.8800
     14     15     16   1    120.1000    585.7600
     14     15     24   1    120.0000    527.1840
     16     15     24   1    120.1000    585.7600
     15     16     17   1    122.0000    669.4400
     15     16     39   1    113.5000    292.8800
     17     16     39   1    113.5000    292.8800
     16     17     18   1    120.1000    585.7600
     16     17     23   1    120.1000    585.7600
     18     17     23   1    120.0000    527.1840
     17     18     19   1    120.0000    527.1840
     17     18     40   1    120.0000    292.8800
     19     18     40   1    120.0000    292.8800
     18     19     20   1    120.0000    527.1840
     18     19     41   1    120.0000    292.8800
     20     19     41   1    120.0000    292.8800
     19     20     21   1    120.0000    585.7600
     19     20     22   1    120.0000    527.1840
     21     20     22   1    120.0000    585.7600
     20     21     42   1    109.5000    292.8800
     20     21     43   1    109.5000    292.8800
     20     21     53   1    113.3140    627.6000
     42     21     43   1    107.8000    276.1440
     42     21     53   1    109.5000    292.8800
     43     21     53   1    109.5000    292.8800
     20     22     23   1    120.0000    527.1840
     20     22     44   1    120.0000    292.8800
     23     22     44   1    120.0000    292.8800
     17     23     22   1    120.0000    527.1840
     17     23     45   1    120.0000    292.8800
     22     23     45   1    120.0000    292.8800
     15     24     25   1    120.0000    527.1840
     15     24     46   1    120.0000    292.8800
     25     24     46   1    120.0000    292.8800
     12     25     24   1    120.0000    527.1840
     12     25     47   1    120.0000    292.8800
     24     25     47   1    120.0000    292.8800
     10     26     27   1    120.0000    527.1840
     10     26     48   1    120.0000    292.8800
     27     26     48   1    120.0000    292.8800
      7     27     26   1    120.0000    527.1840
      7     27     49   1    120.0000    292.8800
     26     27     49   1    120.0000    292.8800
      5     28     29   1    120.0000    527.1840
      5     28     50   1    120.0000    292.8800
     29     28     50   1    120.0000    292.8800
      2     29     28   1    120.0000    527.1840
      2     29     51   1    120.0000    292.8800
     28     29     51   1    120.0000    292.8800
     21     53     54   1    110.0000    418.4000
     21     53     82   1    112.5000    292.8800
     54     53     82   1    113.5000    292.8800
     53     54     55   1    120.1000    585.7600
     53     54     81   1    120.1000    585.7600
     55     54     81   1    120.0000    527.1840
     54     55     56   1    120.0000    527.1840
     54     55     83   1    120.0000    292.8800
     56     55     83   1    120.0000    292.8800
     55     56     57   1    120.0000    527.1840
     55     56     84   1    120.0000    292.8800
     57     56     84   1    120.0000    292.8800
     56     57     58   1    120.1000    585.7600
     56     57     80   1    120.0000    527.1840
     58     57     80   1    120.1000    585.7600
     57     58     59   1    122.0000    669.4400
     57     58     85   1    113.5000    292.8800
     59     58     85   1    113.5000    292.8800
     58     59     60   1    120.1000    585.7600
     58     59     79   1    120.1000    585.7600
     60     59     79   1    120.0000    527.1840
     59     60     61   1    120.0000    527.1840
     59     60     86   1    120.0000    292.8800
     61     60     86   1    120.0000    292.8800
     60     61     62   1    120.0000    527.1840
     60     61     87   1    120.0000    292.8800
     62     61     87   1    120.0000    292.8800
     61     62     63   1    120.1000    585.7600
     61     62     78   1    120.0000    527.1840
     63     62     78   1    120.1000    585.7600
     62     63     64   1    122.0000    669.4400
     62     63     88   1    113.5000    292.8800
     64     63     88   1    113.5000    292.8800
     63     64     65   1    120.1000    585.7600
     63     64     77   1    120.1000    585.7600
     65     64     77   1    120.0000    527.1840
     64     65     66   1    120.0000    527.1840
     64     65     89   1    120.0000    292.8800
     66     65     89   1    120.0000    292.8800
     65     66     67   1    120.0000    527.1840
     65     66     90   1    120.0000    292.8800
     67     66     90   1    120.0000    292.8800
     66     67     68   1    120.1000    585.7600
     66     67     76   1    120.0000    527.1840
     68     67     76   1    120.1000    585.7600
     67     68     69   1    122.0000    669.4400
     67     68     91   1    113.5000    292.8800
     69     68     91   1    113.5000    292.8800
     68     69     70   1    120.1000    585.7600
     68     69     75   1    120.1000    585.7600
     70     69     75   1    120.0000    527.1840
     69     70     71   1    120.0000    527.1840
     69     70     92   1    120.0000    292.8800
     71     70     92   1    120.0000    292.8800
     70     71     72   1    120.0000    527.1840
     70     71     93   1    120.0000    292.8800
     72     71     93   1    120.0000    292.8800
     71     72     73   1    120.0000    585.7600
     71     72     74   1    120.0000    527.1840
     73     72     74   1    120.0000    585.7600
     72     73     94   1    109.5000    292.8800
     72     73     95   1    109.5000    292.8800
     72     73    104   1    113.3140    627.6000
     94     73     95   1    107.8000    276.1440
     94     73    104   1    109.5000    292.8800
     95     73    104   1    109.5000    292.8800
     72     74     75   1    120.0000    527.1840
     72     74     96   1    120.0000    292.8800
     75     74     96   1    120.0000    292.8800
     69     75     74   1    120.0000    527.1840
     69     75     97   1    120.0000    292.8800
     74     75     97   1    120.0000    292.8800
     67     76     77   1    120.0000    527.1840
     67     76     98   1    120.0000    292.8800
     77     76     98   1    120.0000    292.8800
     64     77     76   1    120.0000    527.1840
     64     77     99   1    120.0000    292.8800
     76     77     99   1    120.0000    292.8800
     62     78     79   1    120.0000    527.1840
     62     78    100   1    120.0000    292.8800
     79     78    100   1    120.0000    292.8800
     59     79     78   1    120.0000    527.1840
     59     79    101   1    120.0000    292.8800
     78     79    101   1    120.0000    292.8800
     57     80     81   1    120.0000    527.1840
     57     80    102   1    120.0000    292.8800
     81     80    102   1    120.0000    292.8800
     54     81     80   1    120.0000    527.1840
     54     81    103   1    120.0000    292.8800
     80     81    103   1    120.0000    292.8800
     73    104    105   1    110.0000    418.4000
     73    104    133   1    112.5000    292.8800
    105    104    133   1    113.5000    292.8800
    104    105    106   1    120.1000    585.7600
    104    105    132   1    120.1000    585.7600
    106    105    132   1    120.0000    527.1840
    105    106    107   1    120.0000    527.1840
    105    106    134   1    120.0000    292.8800
    107    106    134   1    120.0000    292.8800
    106    107    108   1    120.0000    527.1840
    106    107    135   1    120.0000    292.8800
    108    107    135   1    120.0000    292.8800
    107    108    109   1    120.1000    585.7600
    107    108    131   1    120.0000    527.1840
    109    108    131   1    120.1000    585.7600
    108    109    110   1    122.0000    669.4400
    108    109    136   1    113.5000    292.8800
    110    109    136   1    113.5000    292.8800
    109    110    111   1    120.1000    585.7600
    109    110    130   1    120.1000    585.7600
    111    110    130   1    120.0000    527.1840
    110    111    112   1    120.0000    527.1840
    110    111    137   1    120.0000    292.8800
    112    111    137   1    120.0000    292.8800
    111    112    113   1    120.0000    527.1840
    111    112    138   1    120.0000    292.8800
    113    112    138   1    120.0000    292.8800
    112    113    114   1    120.1000    585.7600
    112    113    129   1    120.0000    527.1840
    114    113    129   1    120.1000    585.7600
    113    114    115   1    122.0000    669.4400
    113    114    139   1    113.5000    292.8800
    115    114    139   1    113.5000    292.8800
    114    115    116   1    120.1000    585.7600
    114    115    128   1    120.1000    585.7600
    116    115    128   1    120.0000    527.1840
    115    116    117   1    120.0000    527.1840
    115    116    140   1    120.0000    292.8800
    117    116    140   1    120.0000    292.8800
    116    117    118   1    120.0000    527.1840
    116    117    141   1    120.0000    292.8800
    118    117    141   1    120.0000    292.8800
    117    118    119   1    120.1000    585.7600
    117    118    127   1    120.0000    527.1840
    119    118    127   1    120.1000    585.7600
    118    119    120   1    122.0000    669.4400
    118    119    142   1    113.5000    292.8800
    120    119    142   1    113.5000    292.8800
    119    120    121   1    120.1000    585.7600
    119    120    126   1    120.1000    585.7600
    121    120    126   1    120.0000    527.1840
    120    121    122   1    120.0000    527.1840
    120    121    143   1    120.0000    292.8800
    122    121    143   1    120.0000    292.8800
    121    122    123   1    120.0000    527.1840
    121    122    144   1    120.0000    292.8800
    123    122    144   1    120.0000    292.8800
    122    123    124   1    120.0000    585.7600
    122    123    125   1    120.0000    527.1840
    124    123    125   1    120.0000    585.7600
    123    124    145   1    109.5000    292.8800
    123    124    146   1    109.5000    292.8800
    123    124    155   1    113.3140    627.6000
    145    124    146   1    107.8000    276.1440
    145    124    155   1    109.5000    292.8800
    146    124    155   1    109.5000    292.8800
    123    125    126   1    120.0000    527.1840
    123    125    147   1    120.0000    292.8800
    126    125    147   1    120.0000    292.8800
    120    126    125   1    120.0000    527.1840
    120    126    148   1    120.0000    292.8800
    125    126    148   1    120.0000    292.8800
    118    127    128   1    120.0000    527.1840
    118    127    149   1    120.0000    292.8800
    128    127    149   1    120.0000    292.8800
    115    128    127   1    120.0000    527.1840
    115    128    150   1    120.0000    292.8800
    127    128    150   1    120.0000    292.8800
    113    129    130   1    120.0000    527.1840
    113    129    151   1    120.0000    292.8800
    130    129    151   1    120.0000    292.8800
    110    130    129   1    120.0000    527.1840
    110    130    152   1    120.0000    292.8800
    129    130    152   1    120.0000    292.8800
    108    131    132   1    120.0000    527.1840
    108    131    153   1    120.0000    292.8800
    132    131    153   1    120.0000    292.8800
    105    132    131   1    120.0000    527.1840
    105    132    154   1    120.0000    292.8800
    131    132    154   1    120.0000    292.8800
    124    155    156   1    110.0000    418.4000
    124    155    184   1    112.5000    292.8800
    156    155    184   1    113.5000    292.8800
    155    156    157   1    120.1000    585.7600
    155    156    183   1    120.1000    585.7600
    157    156    183   1    120.0000    527.1840
    156    157    158   1    120.0000    527.1840
    156    157    185   1    120.0000    292.8800
    158    157    185   1    120.0000    292.8800
    157    158    159   1    120.0000    527.1840
    157    158    186   1    120.0000    292.8800
    159    158    186   1    120.0000    292.8800
    158    159    160   1    120.1000    585.7600
    158    159    182   1    120.0000    527.1840
    160    159    182   1    120.1000    585.7600
    159    160    161   1    122.0000    669.4400
    159    160    187   1    113.5000    292.8800
    161    160    187   1    113.5000    292.8800
    160    161    162   1    120.1000    585.7600
    160    161    181   1    120.1000    585.7600
    162    161    181   1    120.0000    527.1840
    161    162    163   1    120.0000    527.1840
    161    162    188   1    120.0000    292.8800
    163    162    188   1    120.0000    292.8800
    162    163    164   1    120.0000    527.1840
    162    163    189   1    120.0000    292.8800
    164    163    189   1    120.0000    292.8800
    163    164    165   1    120.1000    585.7600
    163    164    180   1    120.0000    527.1840
    165    164    180   1    120.1000    585.7600
    164    165    166   1    122.0000    669.4400
    164    165    190   1    113.5000    292.8800
    166    165    190   1    113.5000    292.8800
    165    166    167   1    120.1000    585.7600
    165    166    179   1    120.1000    585.7600
    167    166    179   1    120.0000    527.1840
    166    167    168   1    120.0000    527.1840
    166    167    191   1    120.0000    292.8800
    168    167    191   1    120.0000    292.8800
    167    168    169   1    120.0000    527.1840
    167    168    192   1    120.0000    292.8800
    169    168    192   1    120.0000    292.8800
    168    169    170   1    120.1000    585.7600
    168    169    178   1    120.0000    527.1840
    170    169    178   1    120.1000    585.7600
    169    170    171   1    122.0000    669.4400
    169    170    193   1    113.5000    292.8800
    171    170    193   1    113.5000    292.8800
    170    171    172   1    120.1000    585.7600
    170    171    177   1    120.1000    585.7600
    172    171    177   1    120.0000    527.1840
    171    172    173   1    120.0000    527.1840
    171    172    194   1    120.0000    292.8800
    173    172    194   1    120.0000    292.8800
    172    173    174   1    120.0000    527.1840
    172    173    195   1    120.0000    292.8800
    174    173    195   1    120.0000    292.8800
    173    174    175   1    120.0000    585.7600
    173    174    176   1    120.0000    527.1840
    175    174    176   1    120.0000    585.7600
    174    175    196   1    109.5000    292.8800
    174    175    197   1    109.5000    292.8800
    174    175    206   1    113.3140    627.6000
    196    175    197   1    107.8000    276.1440
    196    175    206   1    109.5000    292.8800
    197    175    206   1    109.5000    292.8800
    174    176    177   1    120.0000    527.1840
    174    176    198   1    120.0000    292.8800
    177    176    198   1    120.0000    292.8800
    171    177    176   1    120.0000    527.1840
    171    177    199   1    120.0000    292.8800
    176    177    199   1    120.0000    292.8800
    169    178    179   1    120.0000    527.1840
    169    178    200   1    120.0000    292.8800
    179    178    200   1    120.0000    292.8800
    166    179    178   1    120.0000    527.1840
    166    179    201   1    120.0000    292.8800
    178    179    201   1    120.0000    292.8800
    164    180    181   1    120.0000    527.1840
    164    180    202   1    120.0000    292.8800
    181    180    202   1    120.0000    292.8800
    161    181    180   1    120.0000    527.1840
    161    181    203   1    120.0000    292.8800
    180    181    203   1    120.0000    292.8800
    159    182    183   1    120.0000    527.1840
    159    182    204   1    120.0000    292.8800
    183    182    204   1    120.0000    292.8800
    156    183    182   1    120.0000    527.1840
    156    183    205   1    120.0000    292.8800
    182    183    205   1    120.0000    292.8800
    175    206    207   1    110.0000    418.4000
    175    206    235   1    112.5000    292.8800
    207    206    235   1    113.5000    292.8800
    206    207    208   1    120.1000    585.7600
    206    207    234   1    120.1000    585.7600
    208    207    234   1    120.0000    527.1840
    207    208    209   1    120.0000    527.1840
    207    208    236   1    120.0000    292.8800
    209    208    236   1    120.0000    292.8800
    208    209    210   1    120.0000    527.1840
    208    209    237   1    120.0000    292.8800
    210    209    237   1    120.0000    292.8800
    209    210    211   1    120.1000    585.7600
    209    210    233   1    120.0000    527.1840
    211    210    233   1    120.1000    585.7600
    210    211    212   1    122.0000    669.4400
    210    211    238   1    113.5000    292.8800
    212    211    238   1    113.5000    292.8800
    211    212    213   1    120.1000    585.7600
    211    212    232   1    120.1000    585.7600
    213    212    232   1    120.0000    527.1840
    212    213    214   1    120.0000    527.1840
    212    213    239   1    120.0000    292.8800
    214    213    239   1    120.0000    292.8800
    213    214    215   1    120.0000    527.1840
    213    214    240   1    120.0000    292.8800
    215    214    240   1    120.0000    292.8800
    214    215    216   1    120.1000    585.7600
    214    215    231   1    120.0000    527.1840
    216    215    231   1    120.1000    585.7600
    215    216    217   1    122.0000    669.4400
    215    216    241   1    113.5000    292.8800
    217    216    241   1    113.5000    292.8800
    216    217    218   1    120.1000    585.7600
    216    217    230   1    120.1000    585.7600
    218    217    230   1    120.0000    527.1840
    217    218    219   1    120.0000    527.1840
    217    218    242   1    120.0000    292.8800
    219    218    242   1    120.0000    292.8800
    218    219    220   1    120.0000    527.1840
    218    219    243   1    120.0000    292.8800
    220    219    243   1    120.0000    292.8800
    219    220    221   1    120.1000    585.7600
    219    220    229   1    120.0000    527.1840
    221    220    229   1    120.1000    585.7600
    220    221    222   1    122.0000    669.4400
    220    221    244   1    113.5000    292.8800
    222    221    244   1    113.5000    292.8800
    221    222    223   1    120.1000    585.7600
    221    222    228   1    120.1000    585.7600
    223    222    228   1    120.0000    527.1840
    222    223    224   1    120.0000    527.1840
    222    223    245   1    120.0000    292.8800
    224    223    245   1    120.0000    292.8800
    223    224    225   1    120.0000    527.1840
    223    224    246   1    120.0000    292.8800
    225    224    246   1    120.0000    292.8800
    224    225    226   1    120.0000    585.7600
    224    225    227   1    120.0000    527.1840
    226    225    227   1    120.0000    585.7600
    225    226    247   1    109.5000    292.8800
    225    226    248   1    109.5000    292.8800
    225    226    257   1    113.3140    627.6000
    247    226    248   1    107.8000    276.1440
    247    226    257   1    109.5000    292.8800
    248    226    257   1    109.5000    292.8800
    225    227    228   1    120.0000    527.1840
    225    227    249   1    120.0000    292.8800
    228    227    249   1    120.0000    292.8800
    222    228    227   1    120.0000    527.1840
    222    228    250   1    120.0000    292.8800
    227    228    250   1    120.0000    292.8800
    220    229    230   1    120.0000    527.1840
    220    229    251   1    120.0000    292.8800
    230    229    251   1    120.0000    292.8800
    217    230    229   1    120.0000    527.1840
    217    230    252   1    120.0000    292.8800
    229    230    252   1    120.0000    292.8800
    215    231    232   1    120.0000    527.1840
    215    231    253   1    120.0000    292.8800
    232    231    253   1    120.0000    292.8800
    212    232    231   1    120.0000    527.1840
    212    232    254   1    120.0000    292.8800
    231    232    254   1    120.0000    292.8800
    210    233    234   1    120.0000    527.1840
    210    233    255   1    120.0000    292.8800
    234    233    255   1    120.0000    292.8800
    207    234    233   1    120.0000    527.1840
    207    234    256   1    120.0000    292.8800
    233    234    256   1    120.0000    292.8800
    226    257    258   1    110.0000    418.4000
    226    257    286   1    112.5000    292.8800
    258    257    286   1    113.5000    292.8800
    257    258    259   1    120.1000    585.7600
    257    258    285   1    120.1000    585.7600
    259    258    285   1    120.0000    527.1840
    258    259    260   1    120.0000    527.1840
    258    259    287   1    120.0000    292.8800
    260    259    287   1    120.0000    292.8800
    259    260    261   1    120.0000    527.1840
    259    260    288   1    120.0000    292.8800
    261    260    288   1    120.0000    292.8800
    260    261    262   1    120.1000    585.7600
    260    261    284   1    120.0000    527.1840
    262    261    284   1    120.1000    585.7600
    261    262    263   1    122.0000    669.4400
    261    262    289   1    113.5000    292.8800
    263    262    289   1    113.5000    292.8800
    262    263    264   1    120.1000    585.7600
    262    263    283   1    120.1000    585.7600
    264    263    283   1    120.0000    527.1840
    263    264    265   1    120.0000    527.1840
    263    264    290   1    120.0000    292.8800
    265    264    290   1    120.0000    292.8800
    264    265    266   1    120.0000    527.1840
    264    265    291   1    120.0000    292.8800
    266    265    291   1    120.0000    292.8800
    265    266    267   1    120.1000    585.7600
    265    266    282   1    120.0000    527.1840
    267    266    282   1    120.1000    585.7600
    266    267    268   1    122.0000    669.4400
    266    267    292   1    113.5000    292.8800
    268    267    292   1    113.5000    292.8800
    267    268    269   1    120.1000    585.7600
    267    268    281   1    120.1000    585.7600
    269    268    281   1    120.0000    527.1840
    268    269    270   1    120.0000    527.1840
    268    269    293   1    120.0000    292.8800
    270    269    293   1    120.0000    292.8800
    269    270    271   1    120.0000    527.1840
    269    270    294   1    120.0000    292.8800
    271    270    294   1    120.0000    292.8800
    270    271    272   1    120.1000    585.7600
    270    271    280   1    120.0000    527.1840
    272    271    280   1    120.1000    585.7600
    271    272    273   1    122.0000    669.4400
    271    272    295   1    113.5000    292.8800
    273    272    295   1    113.5000    292.8800
    272    273    274   1    120.1000    585.7600
    272    273    279   1    120.1000    585.7600
    274    273    279   1    120.0000    527.1840
    273    274    275   1    120.0000    527.1840
    273    274    296   1    120.0000    292.8800
    275    274    296   1    120.0000    292.8800
    274    275    276   1    120.0000    527.1840
    274    275    297   1    120.0000    292.8800
    276    275    297   1    120.0000    292.8800
    275    276    277   1    120.0000    585.7600
    275    276    278   1    120.0000    527.1840
    277    276    278   1    120.0000    585.7600
    276    277    298   1    109.5000    292.8800
    276    277    299   1    109.5000    292.8800
    276    277    308   1    113.3140    627.6000
    298    277    299   1    107.8000    276.1440
    298    277    308   1    109.5000    292.8800
    299    277    308   1    109.5000    292.8800
    276    278    279   1    120.0000    527.1840
    276    278    300   1    120.0000    292.8800
    279    278    300   1    120.0000    292.8800
    273    279    278   1    120.0000    527.1840
    273    279    301   1    120.0000    292.8800
    278    279    301   1    120.0000    292.8800
    271    280    281   1    120.0000    527.1840
    271    280    302   1    120.0000    292.8800
    281    280    302   1    120.0000    292.8800
    268    281    280   1    120.0000    527.1840
    268    281    303   1    120.0000    292.8800
    280    281    303   1    120.0000    292.8800
    266    282    283   1    120.0000    527.1840
    266    282    304   1    120.0000    292.8800
    283    282    304   1    120.0000    292.8800
    263    283    282   1    120.0000    527.1840
    263    283    305   1    120.0000    292.8800
    282    283    305   1    120.0000    292.8800
    261    284    285   1    120.0000    527.1840
    261    284    306   1    120.0000    292.8800
    285    284    306   1    120.0000    292.8800
    258    285    284   1    120.0000    527.1840
    258    285    307   1    120.0000    292.8800
    284    285    307   1    120.0000    292.8800
    277    308    309   1    110.0000    418.4000
    277    308    337   1    112.5000    292.8800
    309    308    337   1    113.5000    292.8800
    308    309    310   1    120.1000    585.7600
    308    309    336   1    120.1000    585.7600
    310    309    336   1    120.0000    527.1840
    309    310    311   1    120.0000    527.1840
    309    310    338   1    120.0000    292.8800
    311    310    338   1    120.0000    292.8800
    310    311    312   1    120.0000    527.1840
    310    311    339   1    120.0000    292.8800
    312    311    339   1    120.0000    292.8800
    311    312    313   1    120.1000    585.7600
    311    312    335   1    120.0000    527.1840
    313    312    335   1    120.1000    585.7600
    312    313    314   1    122.0000    669.4400
    312    313    340   1    113.5000    292.8800
    314    313    340   1    113.5000    292.8800
    313    314    315   1    120.1000    585.7600
    313    314    334   1    120.1000    585.7600
    315    314    334   1    120.0000    527.1840
    314    315    316   1    120.0000    527.1840
    314    315    341   1    120.0000    292.8800
    316    315    341   1    120.0000    292.8800
    315    316    317   1    120.0000    527.1840
    315    316    342   1    120.0000    292.8800
    317    316    342   1    120.0000    292.8800
    316    317    318   1    120.1000    585.7600
    316    317    333   1    120.0000    527.1840
    318    317    333   1    120.1000    585.7600
    317    318    319   1    122.0000    669.4400
    317    318    343   1    113.5000    292.8800
    319    318    343   1    113.5000    292.8800
    318    319    320   1    120.1000    585.7600
    318    319    332   1    120.1000    585.7600
    320    319    332   1    120.0000    527.1840
    319    320    321   1    120.0000    527.1840
    319    320    344   1    120.0000    292.8800
    321    320    344   1    120.0000    292.8800
    320    321    322   1    120.0000    527.1840
    320    321    345   1    120.0000    292.8800
    322    321    345   1    120.0000    292.8800
    321    322    323   1    120.1000    585.7600
    321    322    331   1    120.0000    527.1840
    323    322    331   1    120.1000    585.7600
    322    323    324   1    122.0000    669.4400
    322    323    346   1    113.5000    292.8800
    324    323    346   1    113.5000    292.8800
    323    324    325   1    120.1000    585.7600
    323    324    330   1    120.1000    585.7600
    325    324    330   1    120.0000    527.1840
    324    325    326   1    120.0000    527.1840
    324    325    347   1    120.0000    292.8800
    326    325    347   1    120.0000    292.8800
    325    326    327   1    120.0000    527.1840
    325    326    348   1    120.0000    292.8800
    327    326    348   1    120.0000    292.8800
    326    327    328   1    120.0000    585.7600
    326    327    329   1    120.0000    527.1840
    328    327    329   1    120.0000    585.7600
    327    328    349   1    109.5000    292.8800
    327    328    350   1    109.5000    292.8800
    327    328    359   1    113.3140    627.6000
    349    328    350   1    107.8000    276.1440
    349    328    359   1    109.5000    292.8800
    350    328    359   1    109.5000    292.8800
    327    329    330   1    120.0000    527.1840
    327    329    351   1    120.0000    292.8800
    330    329    351   1    120.0000    292.8800
    324    330    329   1    120.0000    527.1840
    324    330    352   1    120.0000    292.8800
    329    330    352   1    120.0000    292.8800
    322    331    332   1    120.0000    527.1840
    322    331    353   1    120.0000    292.8800
    332    331    353   1    120.0000    292.8800
    319    332    331   1    120.0000    527.1840
    319    332    354   1    120.0000    292.8800
    331    332    354   1    120.0000    292.8800
    317    333    334   1    120.0000    527.1840
    317    333    355   1    120.0000    292.8800
    334    333    355   1    120.0000    292.8800
    314    334    333   1    120.0000    527.1840
    314    334    356   1    120.0000    292.8800
    333    334    356   1    120.0000    292.8800
    312    335    336   1    120.0000    527.1840
    312    335    357   1    120.0000    292.8800
    336    335    357   1    120.0000    292.8800
    309    336    335   1    120.0000    527.1840
    309    336    358   1    120.0000    292.8800
    335    336    358   1    120.0000    292.8800
    328    359    360   1    110.0000    418.4000
    328    359    388   1    112.5000    292.8800
    360    359    388   1    113.5000    292.8800
    359    360    361   1    120.1000    585.7600
    359    360    387   1    120.1000    585.7600
    361    360    387   1    120.0000    527.1840
    360    361    362   1    120.0000    527.1840
    360    361    389   1    120.0000    292.8800
    362    361    389   1    120.0000    292.8800
    361    362    363   1    120.0000    527.1840
    361    362    390   1    120.0000    292.8800
    363    362    390   1    120.0000    292.8800
    362    363    364   1    120.1000    585.7600
    362    363    386   1    120.0000    527.1840
    364    363    386   1    120.1000    585.7600
    363    364    365   1    122.0000    669.4400
    363    364    391   1    113.5000    292.8800
    365    364    391   1    113.5000    292.8800
    364    365    366   1    120.1000    585.7600
    364    365    385   1    120.1000    585.7600
    366    365    385   1    120.0000    527.1840
    365    366    367   1    120.0000    527.1840
    365    366    392   1    120.0000    292.8800
    367    366    392   1    120.0000    292.8800
    366    367    368   1    120.0000    527.1840
    366    367    393   1    120.0000    292.8800
    368    367    393   1    120.0000    292.8800
    367    368    369   1    120.1000    585.7600
    367    368    384   1    120.0000    527.1840
    369    368    384   1    120.1000    585.7600
    368    369    370   1    122.0000    669.4400
    368    369    394   1    113.5000    292.8800
    370    369    394   1    113.5000    292.8800
    369    370    371   1    120.1000    585.7600
    369    370    383   1    120.1000    585.7600
    371    370    383   1    120.0000    527.1840
    370    371    372   1    120.0000    527.1840
    370    371    395   1    120.0000    292.8800
    372    371    395   1    120.0000    292.8800
    371    372    373   1    120.0000    527.1840
    371    372    396   1    120.0000    292.8800
    373    372    396   1    120.0000    292.8800
    372    373    374   1    120.1000    585.7600
    372    373    382   1    120.0000    527.1840
    374    373    382   1    120.1000    585.7600
    373    374    375   1    122.0000    669.4400
    373    374    397   1    113.5000    292.8800
    375    374    397   1    113.5000    292.8800
    374    375    376   1    120.1000    585.7600
    374    375    381   1    120.1000    585.7600
    376    375    381   1    120.0000    527.1840
    375    376    377   1    120.0000    527.1840
    375    376    398   1    120.0000    292.8800
    377    376    398   1    120.0000    292.8800
    376    377    378   1    120.0000    527.1840
    376    377    399   1    120.0000    292.8800
    378    377    399   1    120.0000    292.8800
    377    378    379   1    120.0000    585.7600
    377    378    380   1    120.0000    527.1840
    379    378    380   1    120.0000    585.7600
    378    379    400   1    109.5000    292.8800
    378    379    401   1    109.5000    292.8800
    378    379    410   1    113.3140    627.6000
    400    379    401   1    107.8000    276.1440
    400    379    410   1    109.5000    292.8800
    401    379    410   1    109.5000    292.8800
    378    380    381   1    120.0000    527.1840
    378    380    402   1    120.0000    292.8800
    381    380    402   1    120.0000    292.8800
    375    381    380   1    120.0000    527.1840
    375    381    403   1    120.0000    292.8800
    380    381    403   1    120.0000    292.8800
    373    382    383   1    120.0000    527.1840
    373    382    404   1    120.0000    292.8800
    383    382    404   1    120.0000    292.8800
    370    383    382   1    120.0000    527.1840
    370    383    405   1    120.0000    292.8800
    382    383    405   1    120.0000    292.8800
    368    384    385   1    120.0000    527.1840
    368    384    406   1    120.0000    292.8800
    385    384    406   1    120.0000    292.8800
    365    385    384   1    120.0000    527.1840
    365    385    407   1    120.0000    292.8800
    384    385    407   1    120.0000    292.8800
    363    386    387   1    120.0000    527.1840
    363    386    408   1    120.0000    292.8800
    387    386    408   1    120.0000    292.8800
    360    387    386   1    120.0000    527.1840
    360    387    409   1    120.0000    292.8800
    386    387    409   1    120.0000    292.8800
    379    410    411   1    110.0000    418.4000
    379    410    439   1    112.5000    292.8800
    411    410    439   1    113.5000    292.8800
    410    411    412   1    120.1000    585.7600
    410    411    438   1    120.1000    585.7600
    412    411    438   1    120.0000    527.1840
    411    412    413   1    120.0000    527.1840
    411    412    440   1    120.0000    292.8800
    413    412    440   1    120.0000    292.8800
    412    413    414   1    120.0000    527.1840
    412    413    441   1    120.0000    292.8800
    414    413    441   1    120.0000    292.8800
    413    414    415   1    120.1000    585.7600
    413    414    437   1    120.0000    527.1840
    415    414    437   1    120.1000    585.7600
    414    415    416   1    122.0000    669.4400
    414    415    442   1    113.5000    292.8800
    416    415    442   1    113.5000    292.8800
    415    416    417   1    120.1000    585.7600
    415    416    436   1    120.1000    585.7600
    417    416    436   1    120.0000    527.1840
    416    417    418   1    120.0000    527.1840
    416    417    443   1    120.0000    292.8800
    418    417    443   1    120.0000    292.8800
    417    418    419   1    120.0000    527.1840
    417    418    444   1    120.0000    292.8800
    419    418    444   1    120.0000    292.8800
    418    419    420   1    120.1000    585.7600
    418    419    435   1    120.0000    527.1840
    420    419    435   1    120.1000    585.7600
    419    420    421   1    122.0000    669.4400
    419    420    445   1    113.5000    292.8800
    421    420    445   1    113.5000    292.8800
    420    421    422   1    120.1000    585.7600
    420    421    434   1    120.1000    585.7600
    422    421    434   1    120.0000    527.1840
    421    422    423   1    120.0000    527.1840
    421    422    446   1    120.0000    292.8800
    423    422    446   1    120.0000    292.8800
    422    423    424   1    120.0000    527.1840
    422    423    447   1    120.0000    292.8800
    424    423    447   1    120.0000    292.8800
    423    424    425   1    120.1000    585.7600
    423    424    433   1    120.0000    527.1840
    425    424    433   1    120.1000    585.7600
    424    425    426   1    122.0000    669.4400
    424    425    448   1    113.5000    292.8800
    426    425    448   1    113.5000    292.8800
    425    426    427   1    120.1000    585.7600
    425    426    432   1    120.1000    585.7600
    427    426    432   1    120.0000    527.1840
    426    427    428   1    120.0000    527.1840
    426    427    449   1    120.0000    292.8800
    428    427    449   1    120.0000    292.8800
    427    428    429   1    120.0000    527.1840
    427    428    450   1    120.0000    292.8800
    429    428    450   1    120.0000    292.8800
    428    429    430   1    120.0000    585.7600
    428    429    431   1    120.0000    527.1840
    430    429    431   1    120.0000    585.7600
    429    430    451   1    109.5000    292.8800
    429    430    452   1    109.5000    292.8800
    429    430    461   1    113.3140    627.6000
    451    430    452   1    107.8000    276.1440
    451    430    461   1    109.5000    292.8800
    452    430    461   1    109.5000    292.8800
    429    431    432   1    120.0000    527.1840
    429    431    453   1    120.0000    292.8800
    432    431    453   1    120.0000    292.8800
    426    432    431   1    120.0000    527.1840
    426    432    454   1    120.0000    292.8800
    431    432    454   1    120.0000    292.8800
    424    433    434   1    120.0000    527.1840
    424    433    455   1    120.0000    292.8800
    434    433    455   1    120.0000    292.8800
    421    434    433   1    120.0000    527.1840
    421    434    456   1    120.0000    292.8800
    433    434    456   1    120.0000    292.8800
    419    435    436   1    120.0000    527.1840
    419    435    457   1    120.0000    292.8800
    436    435    457   1    120.0000    292.8800
    416    436    435   1    120.0000    527.1840
    416    436    458   1    120.0000    292.8800
    435    436    458   1    120.0000    292.8800
    414    437    438   1    120.0000    527.1840
    414    437    459   1    120.0000    292.8800
    438    437    459   1    120.0000    292.8800
    411    438    437   1    120.0000    527.1840
    411    438    460   1    120.0000    292.8800
    437    438    460   1    120.0000    292.8800
    430    461    462   1    110.0000    418.4000
    430    461    490   1    112.5000    292.8800
    462    461    490   1    113.5000    292.8800
    461    462    463   1    120.1000    585.7600
    461    462    489   1    120.1000    585.7600
    463    462    489   1    120.0000    527.1840
    462    463    464   1    120.0000    527.1840
    462    463    491   1    120.0000    292.8800
    464    463    491   1    120.0000    292.8800
    463    464    465   1    120.0000    527.1840
    463    464    492   1    120.0000    292.8800
    465    464    492   1    120.0000    292.8800
    464    465    466   1    120.1000    585.7600
    464    465    488   1    120.0000    527.1840
    466    465    488   1    120.1000    585.7600
    465    466    467   1    122.0000    669.4400
    465    466    493   1    113.5000    292.8800
    467    466    493   1    113.5000    292.8800
    466    467    468   1    120.1000    585.7600
    466    467    487   1    120.1000    585.7600
    468    467    487   1    120.0000    527.1840
    467    468    469   1    120.0000    527.1840
    467    468    494   1    120.0000    292.8800
    469    468    494   1    120.0000    292.8800
    468    469    470   1    120.0000    527.1840
    468    469    495   1    120.0000    292.8800
    470    469    495   1    120.0000    292.8800
    469    470    471   1    120.1000    585.7600
    469    470    486   1    120.0000    527.1840
    471    470    486   1    120.1000    585.7600
    470    471    472   1    122.0000    669.4400
    470    471    496   1    113.5000    292.8800
    472    471    496   1    113.5000    292.8800
    471    472    473   1    120.1000    585.7600
    471    472    485   1    120.1000    585.7600
    473    472    485   1    120.0000    527.1840
    472    473    474   1    120.0000    527.1840
    472    473    497   1    120.0000    292.8800
    474    473    497   1    120.0000    292.8800
    473    474    475   1    120.0000    527.1840
    473    474    498   1    120.0000    292.8800
    475    474    498   1    120.0000    292.8800
    474    475    476   1    120.1000    585.7600
    474    475    484   1    120.0000    527.1840
    476    475    484   1    120.1000    585.7600
    475    476    477   1    122.0000    669.4400
    475    476    499   1    113.5000    292.8800
    477    476    499   1    113.5000    292.8800
    476    477    478   1    120.1000    585.7600
    476    477    483   1    120.1000    585.7600
    478    477    483   1    120.0000    527.1840
    477    478    479   1    120.0000    527.1840
    477    478    500   1    120.0000    292.8800
    479    478    500   1    120.0000    292.8800
    478    479    480   1    120.0000    527.1840
    478    479    501   1    120.0000    292.8800
    480    479    501   1    120.0000    292.8800
    479    480    481   1    120.0000    585.7600
    479    480    482   1    120.0000    527.1840
    481    480    482   1    120.0000    585.7600
    480    481    502   1    109.5000    292.8800
    480    481    503   1    109.5000    292.8800
    480    481    512   1    113.3140    627.6000
    502    481    503   1    107.8000    276.1440
    502    481    512   1    109.5000    292.8800
    503    481    512   1    109.5000    292.8800
    480    482    483   1    120.0000    527.1840
    480    482    504   1    120.0000    292.8800
    483    482    504   1    120.0000    292.8800
    477    483    482   1    120.0000    527.1840
    477    483    505   1    120.0000    292.8800
    482    483    505   1    120.0000    292.8800
    475    484    485   1    120.0000    527.1840
    475    484    506   1    120.0000    292.8800
    485    484    506   1    120.0000    292.8800
    472    485    484   1    120.0000    527.1840
    472    485    507   1    120.0000    292.8800
    484    485    507   1    120.0000    292.8800
    470    486    487   1    120.0000    527.1840
    470    486    508   1    120.0000    292.8800
    487    486    508   1    120.0000    292.8800
    467    487    486   1    120.0000    527.1840
    467    487    509   1    120.0000    292.8800
    486    487    509   1    120.0000    292.8800
    465    488    489   1    120.0000    527.1840
    465    488    510   1    120.0000    292.8800
    489    488    510   1    120.0000    292.8800
    462    489    488   1    120.0000    527.1840
    462    489    511   1    120.0000    292.8800
    488    489    511   1    120.0000    292.8800
    481    512    513   1    110.0000    418.4000
    481    512    541   1    112.5000    292.8800
    513    512    541   1    113.5000    292.8800
    512    513    514   1    120.1000    585.7600
    512    513    540   1    120.1000    585.7600
    514    513    540   1    120.0000    527.1840
    513    514    515   1    120.0000    527.1840
    513    514    542   1    120.0000    292.8800
    515    514    542   1    120.0000    292.8800
    514    515    516   1    120.0000    527.1840
    514    515    543   1    120.0000    292.8800
    516    515    543   1    120.0000    292.8800
    515    516    517   1    120.1000    585.7600
    515    516    539   1    120.0000    527.1840
    517    516    539   1    120.1000    585.7600
    516    517    518   1    122.0000    669.4400
    516    517    544   1    113.5000    292.8800
    518    517    544   1    113.5000    292.8800
    517    518    519   1    120.1000    585.7600
    517    518    538   1    120.1000    585.7600
    519    518    538   1    120.0000    527.1840
    518    519    520   1    120.0000    527.1840
    518    519    545   1    120.0000    292.8800
    520    519    545   1    120.0000    292.8800
    519    520    521   1    120.0000    527.1840
    519    520    546   1    120.0000    292.8800
    521    520    546   1    120.0000    292.8800
    520    521    522   1    120.1000    585.7600
    520    521    537   1    120.0000    527.1840
    522    521    537   1    120.1000    585.7600
    521    522    523   1    122.0000    669.4400
    521    522    547   1    113.5000    292.8800
    523    522    547   1    113.5000    292.8800
    522    523    524   1    120.1000    585.7600
    522    523    536   1    120.1000    585.7600
    524    523    536   1    120.0000    527.1840
    523    524    525   1    120.0000    527.1840
    523    524    548   1    120.0000    292.8800
    525    524    548   1    120.0000    292.8800
    524    525    526   1    120.0000    527.1840
    524    525    549   1    120.0000    292.8800
    526    525    549   1    120.0000    292.8800
    525    526    527   1    120.1000    585.7600
    525    526    535   1    120.0000    527.1840
    527    526    535   1    120.1000    585.7600
    526    527    528   1    122.0000    669.4400
    526    527    550   1    113.5000    292.8800
    528    527    550   1    113.5000    292.8800
    527    528    529   1    120.1000    585.7600
    527    528    534   1    120.1000    585.7600
    529    528    534   1    120.0000    527.1840
    528    529    530   1    120.0000    527.1840
    528    529    551   1    120.0000    292.8800
    530    529    551   1    120.0000    292.8800
    529    530    531   1    120.0000    527.1840
    529    530    552   1    120.0000    292.8800
    531    530    552   1    120.0000    292.8800
    530    531    532   1    120.0000    585.7600
    530    531    533   1    120.0000    527.1840
    532    531    533   1    120.0000    585.7600
    531    532    553   1    109.5000    292.8800
    531    532    554   1    109.5000    292.8800
    531    532    563   1    113.3140    627.6000
    553    532    554   1    107.8000    276.1440
    553    532    563   1    109.5000    292.8800
    554    532    563   1    109.5000    292.8800
    531    533    534   1    120.0000    527.1840
    531    533    555   1    120.0000    292.8800
    534    533    555   1    120.0000    292.8800
    528    534    533   1    120.0000    527.1840
    528    534    556   1    120.0000    292.8800
    533    534    556   1    120.0000    292.8800
    526    535    536   1    120.0000    527.1840
    526    535    557   1    120.0000    292.8800
    536    535    557   1    120.0000    292.8800
    523    536    535   1    120.0000    527.1840
    523    536    558   1    120.0000    292.8800
    535    536    558   1    120.0000    292.8800
    521    537    538   1    120.0000    527.1840
    521    537    559   1    120.0000    292.8800
    538    537    559   1    120.0000    292.8800
    518    538    537   1    120.0000    527.1840
    518    538    560   1    120.0000    292.8800
    537    538    560   1    120.0000    292.8800
    516    539    540   1    120.0000    527.1840
    516    539    561   1    120.0000    292.8800
    540    539    561   1    120.0000    292.8800
    513    540    539   1    120.0000    527.1840
    513    540    562   1    120.0000    292.8800
    539    540    562   1    120.0000    292.8800
    532    563    564   1    110.0000    418.4000
    532    563    592   1    112.5000    292.8800
    564    563    592   1    113.5000    292.8800
    563    564    565   1    120.1000    585.7600
    563    564    591   1    120.1000    585.7600
    565    564    591   1    120.0000    527.1840
    564    565    566   1    120.0000    527.1840
    564    565    593   1    120.0000    292.8800
    566    565    593   1    120.0000    292.8800
    565    566    567   1    120.0000    527.1840
    565    566    594   1    120.0000    292.8800
    567    566    594   1    120.0000    292.8800
    566    567    568   1    120.1000    585.7600
    566    567    590   1    120.0000    527.1840
    568    567    590   1    120.1000    585.7600
    567    568    569   1    122.0000    669.4400
    567    568    595   1    113.5000    292.8800
    569    568    595   1    113.5000    292.8800
    568    569    570   1    120.1000    585.7600
    568    569    589   1    120.1000    585.7600
    570    569    589   1    120.0000    527.1840
    569    570    571   1    120.0000    527.1840
    569    570    596   1    120.0000    292.8800
    571    570    596   1    120.0000    292.8800
    570    571    572   1    120.0000    527.1840
    570    571    597   1    120.0000    292.8800
    572    571    597   1    120.0000    292.8800
    571    572    573   1    120.1000    585.7600
    571    572    588   1    120.0000    527.1840
    573    572    588   1    120.1000    585.7600
    572    573    574   1    122.0000    669.4400
    572    573    598   1    113.5000    292.8800
    574    573    598   1    113.5000    292.8800
    573    574    575   1    120.1000    585.7600
    573    574    587   1    120.1000    585.7600
    575    574    587   1    120.0000    527.1840
    574    575    576   1    120.0000    527.1840
    574    575    599   1    120.0000    292.8800
    576    575    599   1    120.0000    292.8800
    575    576    577   1    120.0000    527.1840
    575    576    600   1    120.0000    292.8800
    577    576    600   1    120.0000    292.8800
    576    577    578   1    120.1000    585.7600
    576    577    586   1    120.0000    527.1840
    578    577    586   1    120.1000    585.7600
    577    578    579   1    122.0000    669.4400
    577    578    601   1    113.5000    292.8800
    579    578    601   1    113.5000    292.8800
    578    579    580   1    120.1000    585.7600
    578    579    585   1    120.1000    585.7600
    580    579    585   1    120.0000    527.1840
    579    580    581   1    120.0000    527.1840
    579    580    602   1    120.0000    292.8800
    581    580    602   1    120.0000    292.8800
    580    581    582   1    120.0000    527.1840
    580    581    603   1    120.0000    292.8800
    582    581    603   1    120.0000    292.8800
    581    582    583   1    120.0000    585.7600
    581    582    584   1    120.0000    527.1840
    583    582    584   1    120.0000    585.7600
    582    583    604   1    109.5000    292.8800
    582    583    605   1    109.5000    292.8800
    582    583    614   1    113.3140    627.6000
    604    583    605   1    107.8000    276.1440
    604    583    614   1    109.5000    292.8800
    605    583    614   1    109.5000    292.8800
    582    584    585   1    120.0000    527.1840
    582    584    606   1    120.0000    292.8800
    585    584    606   1    120.0000    292.8800
    579    585    584   1    120.0000    527.1840
    579    585    607   1    120.0000    292.8800
    584    585    607   1    120.0000    292.8800
    577    586    587   1    120.0000    527.1840
    577    586    608   1    120.0000    292.8800
    587    586    608   1    120.0000    292.8800
    574    587    586   1    120.0000    527.1840
    574    587    609   1    120.0000    292.8800
    586    587    609   1    120.0000    292.8800
    572    588    589   1    120.0000    527.1840
    572    588    610   1    120.0000    292.8800
    589    588    610   1    120.0000    292.8800
    569    589    588   1    120.0000    527.1840
    569    589    611   1    120.0000    292.8800
    588    589    611   1    120.0000    292.8800
    567    590    591   1    120.0000    527.1840
    567    590    612   1    120.0000    292.8800
    591    590    612   1    120.0000    292.8800
    564    591    590   1    120.0000    527.1840
    564    591    613   1    120.0000    292.8800
    590    591    613   1    120.0000    292.8800
    583    614    615   1    110.0000    418.4000
    583    614    643   1    112.5000    292.8800
    615    614    643   1    113.5000    292.8800
    614    615    616   1    120.1000    585.7600
    614    615    642   1    120.1000    585.7600
    616    615    642   1    120.0000    527.1840
    615    616    617   1    120.0000    527.1840
    615    616    644   1    120.0000    292.8800
    617    616    644   1    120.0000    292.8800
    616    617    618   1    120.0000    527.1840
    616    617    645   1    120.0000    292.8800
    618    617    645   1    120.0000    292.8800
    617    618    619   1    120.1000    585.7600
    617    618    641   1    120.0000    527.1840
    619    618    641   1    120.1000    585.7600
    618    619    620   1    122.0000    669.4400
    618    619    646   1    113.5000    292.8800
    620    619    646   1    113.5000    292.8800
    619    620    621   1    120.1000    585.7600
    619    620    640   1    120.1000    585.7600
    621    620    640   1    120.0000    527.1840
    620    621    622   1    120.0000    527.1840
    620    621    647   1    120.0000    292.8800
    622    621    647   1    120.0000    292.8800
    621    622    623   1    120.0000    527.1840
    621    622    648   1    120.0000    292.8800
    623    622    648   1    120.0000    292.8800
    622    623    624   1    120.1000    585.7600
    622    623    639   1    120.0000    527.1840
    624    623    639   1    120.1000    585.7600
    623    624    625   1    122.0000    669.4400
    623    624    649   1    113.5000    292.8800
    625    624    649   1    113.5000    292.8800
    624    625    626   1    120.1000    585.7600
    624    625    638   1    120.1000    585.7600
    626    625    638   1    120.0000    527.1840
    625    626    627   1    120.0000    527.1840
    625    626    650   1    120.0000    292.8800
    627    626    650   1    120.0000    292.8800
    626    627    628   1    120.0000    527.1840
    626    627    651   1    120.0000    292.8800
    628    627    651   1    120.0000    292.8800
    627    628    629   1    120.1000    585.7600
    627    628    637   1    120.0000    527.1840
    629    628    637   1    120.1000    585.7600
    628    629    630   1    122.0000    669.4400
    628    629    652   1    113.5000    292.8800
    630    629    652   1    113.5000    292.8800
    629    630    631   1    120.1000    585.7600
    629    630    636   1    120.1000    585.7600
    631    630    636   1    120.0000    527.1840
    630    631    632   1    120.0000    527.1840
    630    631    653   1    120.0000    292.8800
    632    631    653   1    120.0000    292.8800
    631    632    633   1    120.0000    527.1840
    631    632    654   1    120.0000    292.8800
    633    632    654   1    120.0000    292.8800
    632    633    634   1    120.0000    585.7600
    632    633    635   1    120.0000    527.1840
    634    633    635   1    120.0000    585.7600
    633    634    655   1    109.5000    292.8800
    633    634    656   1    109.5000    292.8800
    633    634    665   1    113.3140    627.6000
    655    634    656   1    107.8000    276.1440
    655    634    665   1    109.5000    292.8800
    656    634    665   1    109.5000    292.8800
    633    635    636   1    120.0000    527.1840
    633    635    657   1    120.0000    292.8800
    636    635    657   1    120.0000    292.8800
    630    636    635   1    120.0000    527.1840
    630    636    658   1    120.0000    292.8800
    635    636    658   1    120.0000    292.8800
    628    637    638   1    120.0000    527.1840
    628    637    659   1    120.0000    292.8800
    638    637    659   1    120.0000    292.8800
    625    638    637   1    120.0000    527.1840
    625    638    660   1    120.0000    292.8800
    637    638    660   1    120.0000    292.8800
    623    639    640   1    120.0000    527.1840
    623    639    661   1    120.0000    292.8800
    640    639    661   1    120.0000    292.8800
    620    640    639   1    120.0000    527.1840
    620    640    662   1    120.0000    292.8800
    639    640    662   1    120.0000    292.8800
    618    641    642   1    120.0000    527.1840
    618    641    663   1    120.0000    292.8800
    642    641    663   1    120.0000    292.8800
    615    642    641   1    120.0000    527.1840
    615    642    664   1    120.0000    292.8800
    641    642    664   1    120.0000    292.8800
    634    665    666   1    110.0000    418.4000
    634    665    694   1    112.5000    292.8800
    666    665    694   1    113.5000    292.8800
    665    666    667   1    120.1000    585.7600
    665    666    693   1    120.1000    585.7600
    667    666    693   1    120.0000    527.1840
    666    667    668   1    120.0000    527.1840
    666    667    695   1    120.0000    292.8800
    668    667    695   1    120.0000    292.8800
    667    668    669   1    120.0000    527.1840
    667    668    696   1    120.0000    292.8800
    669    668    696   1    120.0000    292.8800
    668    669    670   1    120.1000    585.7600
    668    669    692   1    120.0000    527.1840
    670    669    692   1    120.1000    585.7600
    669    670    671   1    122.0000    669.4400
    669    670    697   1    113.5000    292.8800
    671    670    697   1    113.5000    292.8800
    670    671    672   1    120.1000    585.7600
    670    671    691   1    120.1000    585.7600
    672    671    691   1    120.0000    527.1840
    671    672    673   1    120.0000    527.1840
    671    672    698   1    120.0000    292.8800
    673    672    698   1    120.0000    292.8800
    672    673    674   1    120.0000    527.1840
    672    673    699   1    120.0000    292.8800
    674    673    699   1    120.0000    292.8800
    673    674    675   1    120.1000    585.7600
    673    674    690   1    120.0000    527.1840
    675    674    690   1    120.1000    585.7600
    674    675    676   1    122.0000    669.4400
    674    675    700   1    113.5000    292.8800
    676    675    700   1    113.5000    292.8800
    675    676    677   1    120.1000    585.7600
    675    676    689   1    120.1000    585.7600
    677    676    689   1    120.0000    527.1840
    676    677    678   1    120.0000    527.1840
    676    677    701   1    120.0000    292.8800
    678    677    701   1    120.0000    292.8800
    677    678    679   1    120.0000    527.1840
    677    678    702   1    120.0000    292.8800
    679    678    702   1    120.0000    292.8800
    678    679    680   1    120.1000    585.7600
    678    679    688   1    120.0000    527.1840
    680    679    688   1    120.1000    585.7600
    679    680    681   1    122.0000    669.4400
    679    680    703   1    113.5000    292.8800
    681    680    703   1    113.5000    292.8800
    680    681    682   1    120.1000    585.7600
    680    681    687   1    120.1000    585.7600
    682    681    687   1    120.0000    527.1840
    681    682    683   1    120.0000    527.1840
    681    682    704   1    120.0000    292.8800
    683    682    704   1    120.0000    292.8800
    682    683    684   1    120.0000    527.1840
    682    683    705   1    120.0000    292.8800
    684    683    705   1    120.0000    292.8800
    683    684    685   1    120.0000    585.7600
    683    684    686   1    120.0000    527.1840
    685    684    686   1    120.0000    585.7600
    684    685    706   1    109.5000    292.8800
    684    685    707   1    109.5000    292.8800
    684    685    716   1    113.3140    627.6000
    706    685    707   1    107.8000    276.1440
    706    685    716   1    109.5000    292.8800
    707    685    716   1    109.5000    292.8800
    684    686    687   1    120.0000    527.1840
    684    686    708   1    120.0000    292.8800
    687    686    708   1    120.0000    292.8800
    681    687    686   1    120.0000    527.1840
    681    687    709   1    120.0000    292.8800
    686    687    709   1    120.0000    292.8800
    679    688    689   1    120.0000    527.1840
    679    688    710   1    120.0000    292.8800
    689    688    710   1    120.0000    292.8800
    676    689    688   1    120.0000    527.1840
    676    689    711   1    120.0000    292.8800
    688    689    711   1    120.0000    292.8800
    674    690    691   1    120.0000    527.1840
    674    690    712   1    120.0000    292.8800
    691    690    712   1    120.0000    292.8800
    671    691    690   1    120.0000    527.1840
    671    691    713   1    120.0000    292.8800
    690    691    713   1    120.0000    292.8800
    669    692    693   1    120.0000    527.1840
    669    692    714   1    120.0000    292.8800
    693    692    714   1    120.0000    292.8800
    666    693    692   1    120.0000    527.1840
    666    693    715   1    120.0000    292.8800
    692    693    715   1    120.0000    292.8800
    685    716    717   1    110.0000    418.4000
    685    716    745   1    112.5000    292.8800
    717    716    745   1    113.5000    292.8800
    716    717    718   1    120.1000    585.7600
    716    717    744   1    120.1000    585.7600
    718    717    744   1    120.0000    527.1840
    717    718    719   1    120.0000    527.1840
    717    718    746   1    120.0000    292.8800
    719    718    746   1    120.0000    292.8800
    718    719    720   1    120.0000    527.1840
    718    719    747   1    120.0000    292.8800
    720    719    747   1    120.0000    292.8800
    719    720    721   1    120.1000    585.7600
    719    720    743   1    120.0000    527.1840
    721    720    743   1    120.1000    585.7600
    720    721    722   1    122.0000    669.4400
    720    721    748   1    113.5000    292.8800
    722    721    748   1    113.5000    292.8800
    721    722    723   1    120.1000    585.7600
    721    722    742   1    120.1000    585.7600
    723    722    742   1    120.0000    527.1840
    722    723    724   1    120.0000    527.1840
    722    723    749   1    120.0000    292.8800
    724    723    749   1    120.0000    292.8800
    723    724    725   1    120.0000    527.1840
    723    724    750   1    120.0000    292.8800
    725    724    750   1    120.0000    292.8800
    724    725    726   1    120.1000    585.7600
    724    725    741   1    120.0000    527.1840
    726    725    741   1    120.1000    585.7600
    725    726    727   1    122.0000    669.4400
    725    726    751   1    113.5000    292.8800
    727    726    751   1    113.5000    292.8800
    726    727    728   1    120.1000    585.7600
    726    727    740   1    120.1000    585.7600
    728    727    740   1    120.0000    527.1840
    727    728    729   1    120.0000    527.1840
    727    728    752   1    120.0000    292.8800
    729    728    752   1    120.0000    292.8800
    728    729    730   1    120.0000    527.1840
    728    729    753   1    120.0000    292.8800
    730    729    753   1    120.0000    292.8800
    729    730    731   1    120.1000    585.7600
    729    730    739   1    120.0000    527.1840
    731    730    739   1    120.1000    585.7600
    730    731    732   1    122.0000    669.4400
    730    731    754   1    113.5000    292.8800
    732    731    754   1    113.5000    292.8800
    731    732    733   1    120.1000    585.7600
    731    732    738   1    120.1000    585.7600
    733    732    738   1    120.0000    527.1840
    732    733    734   1    120.0000    527.1840
    732    733    755   1    120.0000    292.8800
    734    733    755   1    120.0000    292.8800
    733    734    735   1    120.0000    527.1840
    733    734    756   1    120.0000    292.8800
    735    734    756   1    120.0000    292.8800
    734    735    736   1    120.0000    585.7600
    734    735    737   1    120.0000    527.1840
    736    735    737   1    120.0000    585.7600
    735    736    757   1    109.5000    292.8800
    735    736    758   1    109.5000    292.8800
    735    736    767   1    113.3140    627.6000
    757    736    758   1    107.8000    276.1440
    757    736    767   1    109.5000    292.8800
    758    736    767   1    109.5000    292.8800
    735    737    738   1    120.0000    527.1840
    735    737    759   1    120.0000    292.8800
    738    737    759   1    120.0000    292.8800
    732    738    737   1    120.0000    527.1840
    732    738    760   1    120.0000    292.8800
    737    738    760   1    120.0000    292.8800
    730    739    740   1    120.0000    527.1840
    730    739    761   1    120.0000    292.8800
    740    739    761   1    120.0000    292.8800
    727    740    739   1    120.0000    527.1840
    727    740    762   1    120.0000    292.8800
    739    740    762   1    120.0000    292.8800
    725    741    742   1    120.0000    527.1840
    725    741    763   1    120.0000    292.8800
    742    741    763   1    120.0000    292.8800
    722    742    741   1    120.0000    527.1840
    722    742    764   1    120.0000    292.8800
    741    742    764   1    120.0000    292.8800
    720    743    744   1    120.0000    527.1840
    720    743    765   1    120.0000    292.8800
    744    743    765   1    120.0000    292.8800
    717    744    743   1    120.0000    527.1840
    717    744    766   1    120.0000    292.8800
    743    744    766   1    120.0000    292.8800
    736    767    768   1    110.0000    418.4000
    736    767    796   1    112.5000    292.8800
    768    767    796   1    113.5000    292.8800
    767    768    769   1    120.1000    585.7600
    767    768    795   1    120.1000    585.7600
    769    768    795   1    120.0000    527.1840
    768    769    770   1    120.0000    527.1840
    768    769    797   1    120.0000    292.8800
    770    769    797   1    120.0000    292.8800
    769    770    771   1    120.0000    527.1840
    769    770    798   1    120.0000    292.8800
    771    770    798   1    120.0000    292.8800
    770    771    772   1    120.1000    585.7600
    770    771    794   1    120.0000    527.1840
    772    771    794   1    120.1000    585.7600
    771    772    773   1    122.0000    669.4400
    771    772    799   1    113.5000    292.8800
    773    772    799   1    113.5000    292.8800
    772    773    774   1    120.1000    585.7600
    772    773    793   1    120.1000    585.7600
    774    773    793   1    120.0000    527.1840
    773    774    775   1    120.0000    527.1840
    773    774    800   1    120.0000    292.8800
    775    774    800   1    120.0000    292.8800
    774    775    776   1    120.0000    527.1840
    774    775    801   1    120.0000    292.8800
    776    775    801   1    120.0000    292.8800
    775    776    777   1    120.1000    585.7600
    775    776    792   1    120.0000    527.1840
    777    776    792   1    120.1000    585.7600
    776    777    778   1    122.0000    669.4400
    776    777    802   1    113.5000    292.8800
    778    777    802   1    113.5000    292.8800
    777    778    779   1    120.1000    585.7600
    777    778    791   1    120.1000    585.7600
    779    778    791   1    120.0000    527.1840
    778    779    780   1    120.0000    527.1840
    778    779    803   1    120.0000    292.8800
    780    779    803   1    120.0000    292.8800
    779    780    781   1    120.0000    527.1840
    779    780    804   1    120.0000    292.8800
    781    780    804   1    120.0000    292.8800
    780    781    782   1    120.1000    585.7600
    780    781    790   1    120.0000    527.1840
    782    781    790   1    120.1000    585.7600
    781    782    783   1    122.0000    669.4400
    781    782    805   1    113.5000    292.8800
    783    782    805   1    113.5000    292.8800
    782    783    784   1    120.1000    585.7600
    782    783    789   1    120.1000    585.7600
    784    783    789   1    120.0000    527.1840
    783    784    785   1    120.0000    527.1840
    783    784    806   1    120.0000    292.8800
    785    784    806   1    120.0000    292.8800
    784    785    786   1    120.0000    527.1840
    784    785    807   1    120.0000    292.8800
    786    785    807   1    120.0000    292.8800
    785    786    787   1    120.0000    585.7600
    785    786    788   1    120.0000    527.1840
    787    786    788   1    120.0000    585.7600
    786    787    808   1    109.5000    292.8800
    786    787    809   1    109.5000    292.8800
    786    787    818   1    113.3140    627.6000
    808    787    809   1    107.8000    276.1440
    808    787    818   1    109.5000    292.8800
    809    787    818   1    109.5000    292.8800
    786    788    789   1    120.0000    527.1840
    786    788    810   1    120.0000    292.8800
    789    788    810   1    120.0000    292.8800
    783    789    788   1    120.0000    527.1840
    783    789    811   1    120.0000    292.8800
    788    789    811   1    120.0000    292.8800
    781    790    791   1    120.0000    527.1840
    781    790    812   1    120.0000    292.8800
    791    790    812   1    120.0000    292.8800
    778    791    790   1    120.0000    527.1840
    778    791    813   1    120.0000    292.8800
    790    791    813   1    120.0000    292.8800
    776    792    793   1    120.0000    527.1840
    776    792    814   1    120.0000    292.8800
    793    792    814   1    120.0000    292.8800
    773    793    792   1    120.0000    527.1840
    773    793    815   1    120.0000    292.8800
    792    793    815   1    120.0000    292.8800
    771    794    795   1    120.0000    527.1840
    771    794    816   1    120.0000    292.8800
    795    794    816   1    120.0000    292.8800
    768    795    794   1    120.0000    527.1840
    768    795    817   1    120.0000    292.8800
    794    795    817   1    120.0000    292.8800
    787    818    819   1    110.0000    418.4000
    787    818    847   1    112.5000    292.8800
    819    818    847   1    113.5000    292.8800
    818    819    820   1    120.1000    585.7600
    818    819    846   1    120.1000    585.7600
    820    819    846   1    120.0000    527.1840
    819    820    821   1    120.0000    527.1840
    819    820    848   1    120.0000    292.8800
    821    820    848   1    120.0000    292.8800
    820    821    822   1    120.0000    527.1840
    820    821    849   1    120.0000    292.8800
    822    821    849   1    120.0000    292.8800
    821    822    823   1    120.1000    585.7600
    821    822    845   1    120.0000    527.1840
    823    822    845   1    120.1000    585.7600
    822    823    824   1    122.0000    669.4400
    822    823    850   1    113.5000    292.8800
    824    823    850   1    113.5000    292.8800
    823    824    825   1    120.1000    585.7600
    823    824    844   1    120.1000    585.7600
    825    824    844   1    120.0000    527.1840
    824    825    826   1    120.0000    527.1840
    824    825    851   1    120.0000    292.8800
    826    825    851   1    120.0000    292.8800
    825    826    827   1    120.0000    527.1840
    825    826    852   1    120.0000    292.8800
    827    826    852   1    120.0000    292.8800
    826    827    828   1    120.1000    585.7600
    826    827    843   1    120.0000    527.1840
    828    827    843   1    120.1000    585.7600
    827    828    829   1    122.0000    669.4400
    827    828    853   1    113.5000    292.8800
    829    828    853   1    113.5000    292.8800
    828    829    830   1    120.1000    585.7600
    828    829    842   1    120.1000    585.7600
    830    829    842   1    120.0000    527.1840
    829    830    831   1    120.0000    527.1840
    829    830    854   1    120.0000    292.8800
    831    830    854   1    120.0000    292.8800
    830    831    832   1    120.0000    527.1840
    830    831    855   1    120.0000    292.8800
    832    831    855   1    120.0000    292.8800
    831    832    833   1    120.1000    585.7600
    831    832    841   1    120.0000    527.1840
    833    832    841   1    120.1000    585.7600
    832    833    834   1    122.0000    669.4400
    832    833    856   1    113.5000    292.8800
    834    833    856   1    113.5000    292.8800
    833    834    835   1    120.1000    585.7600
    833    834    840   1    120.1000    585.7600
    835    834    840   1    120.0000    527.1840
    834    835    836   1    120.0000    527.1840
    834    835    857   1    120.0000    292.8800
    836    835    857   1    120.0000    292.8800
    835    836    837   1    120.0000    527.1840
    835    836    858   1    120.0000    292.8800
    837    836    858   1    120.0000    292.8800
    836    837    838   1    120.0000    585.7600
    836    837    839   1    120.0000    527.1840
    838    837    839   1    120.0000    585.7600
    837    838    859   1    109.5000    292.8800
    837    838    860   1    109.5000    292.8800
    837    838    869   1    113.3140    627.6000
    859    838    860   1    107.8000    276.1440
    859    838    869   1    109.5000    292.8800
    860    838    869   1    109.5000    292.8800
    837    839    840   1    120.0000    527.1840
    837    839    861   1    120.0000    292.8800
    840    839    861   1    120.0000    292.8800
    834    840    839   1    120.0000    527.1840
    834    840    862   1    120.0000    292.8800
    839    840    862   1    120.0000    292.8800
    832    841    842   1    120.0000    527.1840
    832    841    863   1    120.0000    292.8800
    842    841    863   1    120.0000    292.8800
    829    842    841   1    120.0000    527.1840
    829    842    864   1    120.0000    292.8800
    841    842    864   1    120.0000    292.8800
    827    843    844   1    120.0000    527.1840
    827    843    865   1    120.0000    292.8800
    844    843    865   1    120.0000    292.8800
    824    844    843   1    120.0000    527.1840
    824    844    866   1    120.0000    292.8800
    843    844    866   1    120.0000    292.8800
    822    845    846   1    120.0000    527.1840
    822    845    867   1    120.0000    292.8800
    846    845    867   1    120.0000    292.8800
    819    846    845   1    120.0000    527.1840
    819    846    868   1    120.0000    292.8800
    845    846    868   1    120.0000    292.8800
    838    869    870   1    110.0000    418.4000
    838    869    898   1    112.5000    292.8800
    870    869    898   1    113.5000    292.8800
    869    870    871   1    120.1000    585.7600
    869    870    897   1    120.1000    585.7600
    871    870    897   1    120.0000    527.1840
    870    871    872   1    120.0000    527.1840
    870    871    899   1    120.0000    292.8800
    872    871    899   1    120.0000    292.8800
    871    872    873   1    120.0000    527.1840
    871    872    900   1    120.0000    292.8800
    873    872    900   1    120.0000    292.8800
    872    873    874   1    120.1000    585.7600
    872    873    896   1    120.0000    527.1840
    874    873    896   1    120.1000    585.7600
    873    874    875   1    122.0000    669.4400
    873    874    901   1    113.5000    292.8800
    875    874    901   1    113.5000    292.8800
    874    875    876   1    120.1000    585.7600
    874    875    895   1    120.1000    585.7600
    876    875    895   1    120.0000    527.1840
    875    876    877   1    120.0000    527.1840
    875    876    902   1    120.0000    292.8800
    877    876    902   1    120.0000    292.8800
    876    877    878   1    120.0000    527.1840
    876    877    903   1    120.0000    292.8800
    878    877    903   1    120.0000    292.8800
    877    878    879   1    120.1000    585.7600
    877    878    894   1    120.0000    527.1840
    879    878    894   1    120.1000    585.7600
    878    879    880   1    122.0000    669.4400
    878    879    904   1    113.5000    292.8800
    880    879    904   1    113.5000    292.8800
    879    880    881   1    120.1000    585.7600
    879    880    893   1    120.1000    585.7600
    881    880    893   1    120.0000    527.1840
    880    881    882   1    120.0000    527.1840
    880    881    905   1    120.0000    292.8800
    882    881    905   1    120.0000    292.8800
    881    882    883   1    120.0000    527.1840
    881    882    906   1    120.0000    292.8800
    883    882    906   1    120.0000    292.8800
    882    883    884   1    120.1000    585.7600
    882    883    892   1    120.0000    527.1840
    884    883    892   1    120.1000    585.7600
    883    884    885   1    122.0000    669.4400
    883    884    907   1    113.5000    292.8800
    885    884    907   1    113.5000    292.8800
    884    885    886   1    120.1000    585.7600
    884    885    891   1    120.1000    585.7600
    886    885    891   1    120.0000    527.1840
    885    886    887   1    120.0000    527.1840
    885    886    908   1    120.0000    292.8800
    887    886    908   1    120.0000    292.8800
    886    887    888   1    120.0000    527.1840
    886    887    909   1    120.0000    292.8800
    888    887    909   1    120.0000    292.8800
    887    888    889   1    120.0000    585.7600
    887    888    890   1    120.0000    527.1840
    889    888    890   1    120.0000    585.7600
    888    889    910   1    109.5000    292.8800
    888    889    911   1    109.5000    292.8800
    888    889    920   1    113.3140    627.6000
    910    889    911   1    107.8000    276.1440
    910    889    920   1    109.5000    292.8800
    911    889    920   1    109.5000    292.8800
    888    890    891   1    120.0000    527.1840
    888    890    912   1    120.0000    292.8800
    891    890    912   1    120.0000    292.8800
    885    891    890   1    120.0000    527.1840
    885    891    913   1    120.0000    292.8800
    890    891    913   1    120.0000    292.8800
    883    892    893   1    120.0000    527.1840
    883    892    914   1    120.0000    292.8800
    893    892    914   1    120.0000    292.8800
    880    893    892   1    120.0000    527.1840
    880    893    915   1    120.0000    292.8800
    892    893    915   1    120.0000    292.8800
    878    894    895   1    120.0000    527.1840
    878    894    916   1    120.0000    292.8800
    895    894    916   1    120.0000    292.8800
    875    895    894   1    120.0000    527.1840
    875    895    917   1    120.0000    292.8800
    894    895    917   1    120.0000    292.8800
    873    896    897   1    120.0000    527.1840
    873    896    918   1    120.0000    292.8800
    897    896    918   1    120.0000    292.8800
    870    897    896   1    120.0000    527.1840
    870    897    919   1    120.0000    292.8800
    896    897    919   1    120.0000    292.8800
    889    920    921   1    110.0000    418.4000
    889    920    949   1    112.5000    292.8800
    921    920    949   1    113.5000    292.8800
    920    921    922   1    120.1000    585.7600
    920    921    948   1    120.1000    585.7600
    922    921    948   1    120.0000    527.1840
    921    922    923   1    120.0000    527.1840
    921    922    950   1    120.0000    292.8800
    923    922    950   1    120.0000    292.8800
    922    923    924   1    120.0000    527.1840
    922    923    951   1    120.0000    292.8800
    924    923    951   1    120.0000    292.8800
    923    924    925   1    120.1000    585.7600
    923    924    947   1    120.0000    527.1840
    925    924    947   1    120.1000    585.7600
    924    925    926   1    122.0000    669.4400
    924    925    952   1    113.5000    292.8800
    926    925    952   1    113.5000    292.8800
    925    926    927   1    120.1000    585.7600
    925    926    946   1    120.1000    585.7600
    927    926    946   1    120.0000    527.1840
    926    927    928   1    120.0000    527.1840
    926    927    953   1    120.0000    292.8800
    928    927    953   1    120.0000    292.8800
    927    928    929   1    120.0000    527.1840
    927    928    954   1    120.0000    292.8800
    929    928    954   1    120.0000    292.8800
    928    929    930   1    120.1000    585.7600
    928    929    945   1    120.0000    527.1840
    930    929    945   1    120.1000    585.7600
    929    930    931   1    122.0000    669.4400
    929    930    955   1    113.5000    292.8800
    931    930    955   1    113.5000    292.8800
    930    931    932   1    120.1000    585.7600
    930    931    944   1    120.1000    585.7600
    932    931    944   1    120.0000    527.1840
    931    932    933   1    120.0000    527.1840
    931    932    956   1    120.0000    292.8800
    933    932    956   1    120.0000    292.8800
    932    933    934   1    120.0000    527.1840
    932    933    957   1    120.0000    292.8800
    934    933    957   1    120.0000    292.8800
    933    934    935   1    120.1000    585.7600
    933    934    943   1    120.0000    527.1840
    935    934    943   1    120.1000    585.7600
    934    935    936   1    122.0000    669.4400
    934    935    958   1    113.5000    292.8800
    936    935    958   1    113.5000    292.8800
    935    936    937   1    120.1000    585.7600
    935    936    942   1    120.1000    585.7600
    937    936    942   1    120.0000    527.1840
    936    937    938   1    120.0000    527.1840
    936    937    959   1    120.0000    292.8800
    938    937    959   1    120.0000    292.8800
    937    938    939   1    120.0000    527.1840
    937    938    960   1    120.0000    292.8800
    939    938    960   1    120.0000    292.8800
    938    939    940   1    120.0000    585.7600
    938    939    941   1    120.0000    527.1840
    940    939    941   1    120.0000    585.7600
    939    940    961   1    109.5000    292.8800
    939    940    962   1    109.5000    292.8800
    939    940    971   1    113.3140    627.6000
    961    940    962   1    107.8000    276.1440
    961    940    971   1    109.5000    292.8800
    962    940    971   1    109.5000    292.8800
    939    941    942   1    120.0000    527.1840
    939    941    963   1    120.0000    292.8800
    942    941    963   1    120.0000    292.8800
    936    942    941   1    120.0000    527.1840
    936    942    964   1    120.0000    292.8800
    941    942    964   1    120.0000    292.8800
    934    943    944   1    120.0000    527.1840
    934    943    965   1    120.0000    292.8800
    944    943    965   1    120.0000    292.8800
    931    944    943   1    120.0000    527.1840
    931    944    966   1    120.0000    292.8800
    943    944    966   1    120.0000    292.8800
    929    945    946   1    120.0000    527.1840
    929    945    967   1    120.0000    292.8800
    946    945    967   1    120.0000    292.8800
    926    946    945   1    120.0000    527.1840
    926    946    968   1    120.0000    292.8800
    945    946    968   1    120.0000    292.8800
    924    947    948   1    120.0000    527.1840
    924    947    969   1    120.0000    292.8800
    948    947    969   1    120.0000    292.8800
    921    948    947   1    120.0000    527.1840
    921    948    970   1    120.0000    292.8800
    947    948    970   1    120.0000    292.8800
    940    971    972   1    110.0000    418.4000
    940    971   1000   1    112.5000    292.8800
    972    971   1000   1    113.5000    292.8800
    971    972    973   1    120.1000    585.7600
    971    972    999   1    120.1000    585.7600
    973    972    999   1    120.0000    527.1840
    972    973    974   1    120.0000    527.1840
    972    973   1001   1    120.0000    292.8800
    974    973   1001   1    120.0000    292.8800
    973    974    975   1    120.0000    527.1840
    973    974   1002   1    120.0000    292.8800
    975    974   1002   1    120.0000    292.8800
    974    975    976   1    120.1000    585.7600
    974    975    998   1    120.0000    527.1840
    976    975    998   1    120.1000    585.7600
    975    976    977   1    122.0000    669.4400
    975    976   1003   1    113.5000    292.8800
    977    976   1003   1    113.5000    292.8800
    976    977    978   1    120.1000    585.7600
    976    977    997   1    120.1000    585.7600
    978    977    997   1    120.0000    527.1840
    977    978    979   1    120.0000    527.1840
    977    978   1004   1    120.0000    292.8800
    979    978   1004   1    120.0000    292.8800
    978    979    980   1    120.0000    527.1840
    978    979   1005   1    120.0000    292.8800
    980    979   1005   1    120.0000    292.8800
    979    980    981   1    120.1000    585.7600
    979    980    996   1    120.0000    527.1840
    981    980    996   1    120.1000    585.7600
    980    981    982   1    122.0000    669.4400
    980    981   1006   1    113.5000    292.8800
    982    981   1006   1    113.5000    292.8800
    981    982    983   1    120.1000    585.7600
    981    982    995   1    120.1000    585.7600
    983    982    995   1    120.0000    527.1840
    982    983    984   1    120.0000    527.1840
    982    983   1007   1    120.0000    292.8800
    984    983   1007   1    120.0000    292.8800
    983    984    985   1    120.0000    527.1840
    983    984   1008   1    120.0000    292.8800
    985    984   1008   1    120.0000    292.8800
    984    985    986   1    120.1000    585.7600
    984    985    994   1    120.0000    527.1840
    986    985    994   1    120.1000    585.7600
    985    986    987   1    122.0000    669.4400
    985    986   1009   1    113.5000    292.8800
    987    986   1009   1    113.5000    292.8800
    986    987    988   1    120.1000    585.7600
    986    987    993   1    120.1000    585.7600
    988    987    993   1    120.0000    527.1840
    987    988    989   1    120.0000    527.1840
    987    988   1010   1    120.0000    292.8800
    989    988   1010   1    120.0000    292.8800
    988    989    990   1    120.0000    527.1840
    988    989   1011   1    120.0000    292.8800
    990    989   1011   1    120.0000    292.8800
    989    990    991   1    120.0000    585.7600
    989    990    992   1    120.0000    527.1840
    991    990    992   1    120.0000    585.7600
    990    991   1012   1    109.5000    292.8800
    990    991   1013   1    109.5000    292.8800
    990    991   1022   1    109.5000    292.8800
   1012    991   1013   1    107.8000    276.1440
   1012    991   1022   1    107.8000    276.1440
   1013    991   1022   1    107.8000    276.1440
    990    992    993   1    120.0000    527.1840
    990    992   1014   1    120.0000    292.8800
    993    992   1014   1    120.0000    292.8800
    987    993    992   1    120.0000    527.1840
    987    993   1015   1    120.0000    292.8800
    992    993   1015   1    120.0000    292.8800
    985    994    995   1    120.0000    527.1840
    985    994   1016   1    120.0000    292.8800
    995    994   1016   1    120.0000    292.8800
    982    995    994   1    120.0000    527.1840
    982    995   1017   1    120.0000    292.8800
    994    995   1017   1    120.0000    292.8800
    980    996    997   1    120.0000    527.1840
    980    996   1018   1    120.0000    292.8800
    997    996   1018   1    120.0000    292.8800
    977    997    996   1    120.0000    527.1840
    977    997   1019   1    120.0000    292.8800
    996    997   1019   1    120.0000    292.8800
    975    998    999   1    120.0000    527.1840
    975    998   1020   1    120.0000    292.8800
    999    998   1020   1    120.0000    292.8800
    972    999    998   1    120.0000    527.1840
    972    999   1021   1    120.0000    292.8800
    998    999   1021   1    120.0000    292.8800

[ dihedrals ]
; Proper dihedrals
     30      1      2      3   5     0.00000     8.36800     0.00000  0.0
     30      1      2     29   5     0.00000     8.36800     0.00000  0.0
     52      1      2      3   5     0.00000     8.36800     0.00000  0.0
     52      1      2     29   5     0.00000     8.36800     0.00000  0.0
      1      2      3      4   5     0.00000    30.33400     0.00000  0.0
      1      2      3     31   5     0.00000    30.33400     0.00000  0.0
     29      2      3      4   5     0.00000    30.33400     0.00000  0.0
     29      2      3     31   5     0.00000    30.33400     0.00000  0.0
      1      2     29     28   5     0.00000    30.33400     0.00000  0.0
      1      2     29     51   5     0.00000    30.33400     0.00000  0.0
      3      2     29     28   5     0.00000    30.33400     0.00000  0.0
      3      2     29     51   5     0.00000    30.33400     0.00000  0.0
      2      3      4      5   5     0.00000    30.33400     0.00000  0.0
      2      3      4     32   5     0.00000    30.33400     0.00000  0.0
     31      3      4      5   5     0.00000    30.33400     0.00000  0.0
     31      3      4     32   5     0.00000    30.33400     0.00000  0.0
      3      4      5      6   5     0.00000    30.33400     0.00000  0.0
      3      4      5     28   5     0.00000    30.33400     0.00000  0.0
     32      4      5      6   5     0.00000    30.33400     0.00000  0.0
     32      4      5     28   5     0.00000    30.33400     0.00000  0.0
      4      5      6      7   5     0.00000     8.36800     0.00000  0.0
      4      5      6     33   5     0.00000     8.36800     0.00000  0.0
     28      5      6      7   5     0.00000     8.36800     0.00000  0.0
     28      5      6     33   5     0.00000     8.36800     0.00000  0.0
      4      5     28     29   5     0.00000    30.33400     0.00000  0.0
      4      5     28     50   5     0.00000    30.33400     0.00000  0.0
      6      5     28     29   5     0.00000    30.33400     0.00000  0.0
      6      5     28     50   5     0.00000    30.33400     0.00000  0.0
      5      6      7      8   5     0.00000     8.36800     0.00000  0.0
      5      6      7     27   5     0.00000     8.36800     0.00000  0.0
     33      6      7      8   5     0.00000     8.36800     0.00000  0.0
     33      6      7     27   5     0.00000     8.36800     0.00000  0.0
      6      7      8      9   5     0.00000    30.33400     0.00000  0.0
      6      7      8     34   5     0.00000    30.33400     0.00000  0.0
     27      7      8      9   5     0.00000    30.33400     0.00000  0.0
     27      7      8     34   5     0.00000    30.33400     0.00000  0.0
      6      7     27     26   5     0.00000    30.33400     0.00000  0.0
      6      7     27     49   5     0.00000    30.33400     0.00000  0.0
      8      7     27     26   5     0.00000    30.33400     0.00000  0.0
      8      7     27     49   5     0.00000    30.33400     0.00000  0.0
      7      8      9     10   5     0.00000    30.33400     0.00000  0.0
      7      8      9     35   5     0.00000    30.33400     0.00000  0.0
     34      8      9     10   5     0.00000    30.33400     0.00000  0.0
     34      8      9     35   5     0.00000    30.33400     0.00000  0.0
      8      9     10     11   5     0.00000    30.33400     0.00000  0.0
      8      9     10     26   5     0.00000    30.33400     0.00000  0.0
     35      9     10     11   5     0.00000    30.33400     0.00000  0.0
     35      9     10     26   5     0.00000    30.33400     0.00000  0.0
      9     10     11     12   5     0.00000     8.36800     0.00000  0.0
      9     10     11     36   5     0.00000     8.36800     0.00000  0.0
     26     10     11     12   5     0.00000     8.36800     0.00000  0.0
     26     10     11     36   5     0.00000     8.36800     0.00000  0.0
      9     10     26     27   5     0.00000    30.33400     0.00000  0.0
      9     10     26     48   5     0.00000    30.33400     0.00000  0.0
     11     10     26     27   5     0.00000    30.33400     0.00000  0.0
     11     10     26     48   5     0.00000    30.33400     0.00000  0.0
     10     11     12     13   5     0.00000     8.36800     0.00000  0.0
     10     11     12     25   5     0.00000     8.36800     0.00000  0.0
     36     11     12     13   5     0.00000     8.36800     0.00000  0.0
     36     11     12     25   5     0.00000     8.36800     0.00000  0.0
     11     12     13     14   5     0.00000    30.33400     0.00000  0.0
     11     12     13     37   5     0.00000    30.33400     0.00000  0.0
     25     12     13     14   5     0.00000    30.33400     0.00000  0.0
     25     12     13     37   5     0.00000    30.33400     0.00000  0.0
     11     12     25     24   5     0.00000    30.33400     0.00000  0.0
     11     12     25     47   5     0.00000    30.33400     0.00000  0.0
     13     12     25     24   5     0.00000    30.33400     0.00000  0.0
     13     12     25     47   5     0.00000    30.33400     0.00000  0.0
     12     13     14     15   5     0.00000    30.33400     0.00000  0.0
     12     13     14     38   5     0.00000    30.33400     0.00000  0.0
     37     13     14     15   5     0.00000    30.33400     0.00000  0.0
     37     13     14     38   5     0.00000    30.33400     0.00000  0.0
     13     14     15     16   5     0.00000    30.33400     0.00000  0.0
     13     14     15     24   5     0.00000    30.33400     0.00000  0.0
     38     14     15     16   5     0.00000    30.33400     0.00000  0.0
     38     14     15     24   5     0.00000    30.33400     0.00000  0.0
     14     15     16     17   5     0.00000     8.36800     0.00000  0.0
     14     15     16     39   5     0.00000     8.36800     0.00000  0.0
     24     15     16     17   5     0.00000     8.36800     0.00000  0.0
     24     15     16     39   5     0.00000     8.36800     0.00000  0.0
     14     15     24     25   5     0.00000    30.33400     0.00000  0.0
     14     15     24     46   5     0.00000    30.33400     0.00000  0.0
     16     15     24     25   5     0.00000    30.33400     0.00000  0.0
     16     15     24     46   5     0.00000    30.33400     0.00000  0.0
     15     16     17     18   5     0.00000     8.36800     0.00000  0.0
     15     16     17     23   5     0.00000     8.36800     0.00000  0.0
     39     16     17     18   5     0.00000     8.36800     0.00000  0.0
     39     16     17     23   5     0.00000     8.36800     0.00000  0.0
     16     17     18     19   5     0.00000    30.33400     0.00000  0.0
     16     17     18     40   5     0.00000    30.33400     0.00000  0.0
     23     17     18     19   5     0.00000    30.33400     0.00000  0.0
     23     17     18     40   5     0.00000    30.33400     0.00000  0.0
     16     17     23     22   5     0.00000    30.33400     0.00000  0.0
     16     17     23     45   5     0.00000    30.33400     0.00000  0.0
     18     17     23     22   5     0.00000    30.33400     0.00000  0.0
     18     17     23     45   5     0.00000    30.33400     0.00000  0.0
     17     18     19     20   5     0.00000    30.33400     0.00000  0.0
     17     18     19     41   5     0.00000    30.33400     0.00000  0.0
     40     18     19     20   5     0.00000    30.33400     0.00000  0.0
     40     18     19     41   5     0.00000    30.33400     0.00000  0.0
     18     19     20     21   5     0.00000    30.33400     0.00000  0.0
     18     19     20     22   5     0.00000    30.33400     0.00000  0.0
     41     19     20     21   5     0.00000    30.33400     0.00000  0.0
     41     19     20     22   5     0.00000    30.33400     0.00000  0.0
     19     20     21     42   5     0.00000     0.00000     0.00000  0.0
     19     20     21     43   5     0.00000     0.00000     0.00000  0.0
     19     20     21     53   5    -0.50208     2.55224     0.76986  0.0
     22     20     21     42   5     0.00000     0.00000     0.00000  0.0
     22     20     21     43   5     0.00000     0.00000     0.00000  0.0
     22     20     21     53   5    -0.50208     2.55224     0.76986  0.0
     19     20     22     23   5     0.00000    30.33400     0.00000  0.0
     19     20     22     44   5     0.00000    30.33400     0.00000  0.0
     21     20     22     23   5     0.00000    30.33400     0.00000  0.0
     21     20     22     44   5     0.00000    30.33400     0.00000  0.0
     20     21     53     54   5    -6.88268     4.64842     3.09198  0.0
     20     21     53     82   5     0.00000     0.00000     0.00000  0.0
     42     21     53     54   5     0.00000     0.00000     0.00000  0.0
     42     21     53     82   5     0.00000     0.00000     0.00000  0.0
     43     21     53     54   5     0.00000     0.00000     0.00000  0.0
     43     21     53     82   5     0.00000     0.00000     0.00000  0.0
     20     22     23     17   5     0.00000    30.33400     0.00000  0.0
     20     22     23     45   5     0.00000    30.33400     0.00000  0.0
     44     22     23     17   5     0.00000    30.33400     0.00000  0.0
     44     22     23     45   5     0.00000    30.33400     0.00000  0.0
     15     24     25     12   5     0.00000    30.33400     0.00000  0.0
     15     24     25     47   5     0.00000    30.33400     0.00000  0.0
     46     24     25     12   5     0.00000    30.33400     0.00000  0.0
     46     24     25     47   5     0.00000    30.33400     0.00000  0.0
     10     26     27      7   5     0.00000    30.33400     0.00000  0.0
     10     26     27     49   5     0.00000    30.33400     0.00000  0.0
     48     26     27      7   5     0.00000    30.33400     0.00000  0.0
     48     26     27     49   5     0.00000    30.33400     0.00000  0.0
      5     28     29      2   5     0.00000    30.33400     0.00000  0.0
      5     28     29     51   5     0.00000    30.33400     0.00000  0.0
     50     28     29      2   5     0.00000    30.33400     0.00000  0.0
     50     28     29     51   5     0.00000    30.33400     0.00000  0.0
     21     53     54     55   5    -8.36800    10.46000     0.00000  0.0
     21     53     54     81   5    -8.36800    10.46000     0.00000  0.0
     82     53     54     55   5     0.00000     8.36800     0.00000  0.0
     82     53     54     81   5     0.00000     8.36800     0.00000  0.0
     53     54     55     56   5     0.00000    30.33400     0.00000  0.0
     53     54     55     83   5     0.00000    30.33400     0.00000  0.0
     81     54     55     56   5     0.00000    30.33400     0.00000  0.0
     81     54     55     83   5     0.00000    30.33400     0.00000  0.0
     53     54     81     80   5     0.00000    30.33400     0.00000  0.0
     53     54     81    103   5     0.00000    30.33400     0.00000  0.0
     55     54     81     80   5     0.00000    30.33400     0.00000  0.0
     55     54     81    103   5     0.00000    30.33400     0.00000  0.0
     54     55     56     57   5     0.00000    30.33400     0.00000  0.0
     54     55     56     84   5     0.00000    30.33400     0.00000  0.0
     83     55     56     57   5     0.00000    30.33400     0.00000  0.0
     83     55     56     84   5     0.00000    30.33400     0.00000  0.0
     55     56     57     58   5     0.00000    30.33400     0.00000  0.0
     55     56     57     80   5     0.00000    30.33400     0.00000  0.0
     84     56     57     58   5     0.00000    30.33400     0.00000  0.0
     84     56     57     80   5     0.00000    30.33400     0.00000  0.0
     56     57     58     59   5     0.00000     8.36800     0.00000  0.0
     56     57     58     85   5     0.00000     8.36800     0.00000  0.0
     80     57     58     59   5     0.00000     8.36800     0.00000  0.0
     80     57     58     85   5     0.00000     8.36800     0.00000  0.0
     56     57     80     81   5     0.00000    30.33400     0.00000  0.0
     56     57     80    102   5     0.00000    30.33400     0.00000  0.0
     58     57     80     81   5     0.00000    30.33400     0.00000  0.0
     58     57     80    102   5     0.00000    30.33400     0.00000  0.0
     57     58     59     60   5     0.00000     8.36800     0.00000  0.0
     57     58     59     79   5     0.00000     8.36800     0.00000  0.0
     85     58     59     60   5     0.00000     8.36800     0.00000  0.0
     85     58     59     79   5     0.00000     8.36800     0.00000  0.0
     58     59     60     61   5     0.00000    30.33400     0.00000  0.0
     58     59     60     86   5     0.00000    30.33400     0.00000  0.0
     79     59     60     61   5     0.00000    30.33400     0.00000  0.0
     79     59     60     86   5     0.00000    30.33400     0.00000  0.0
     58     59     79     78   5     0.00000    30.33400     0.00000  0.0
     58     59     79    101   5     0.00000    30.33400     0.00000  0.0
     60     59     79     78   5     0.00000    30.33400     0.00000  0.0
     60     59     79    101   5     0.00000    30.33400     0.00000  0.0
     59     60     61     62   5     0.00000    30.33400     0.00000  0.0
     59     60     61     87   5     0.00000    30.33400     0.00000  0.0
     86     60     61     62   5     0.00000    30.33400     0.00000  0.0
     86     60     61     87   5     0.00000    30.33400     0.00000  0.0
     60     61     62     63   5     0.00000    30.33400     0.00000  0.0
     60     61     62     78   5     0.00000    30.33400     0.00000  0.0
     87     61     62     63   5     0.00000    30.33400     0.00000  0.0
     87     61     62     78   5     0.00000    30.33400     0.00000  0.0
     61     62     63     64   5     0.00000     8.36800     0.00000  0.0
     61     62     63     88   5     0.00000     8.36800     0.00000  0.0
     78     62     63     64   5     0.00000     8.36800     0.00000  0.0
     78     62     63     88   5     0.00000     8.36800     0.00000  0.0
     61     62     78     79   5     0.00000    30.33400     0.00000  0.0
     61     62     78    100   5     0.00000    30.33400     0.00000  0.0
     63     62     78     79   5     0.00000    30.33400     0.00000  0.0
     63     62     78    100   5     0.00000    30.33400     0.00000  0.0
     62     63     64     65   5     0.00000     8.36800     0.00000  0.0
     62     63     64     77   5     0.00000     8.36800     0.00000  0.0
     88     63     64     65   5     0.00000     8.36800     0.00000  0.0
     88     63     64     77   5     0.00000     8.36800     0.00000  0.0
     63     64     65     66   5     0.00000    30.33400     0.00000  0.0
     63     64     65     89   5     0.00000    30.33400     0.00000  0.0
     77     64     65     66   5     0.00000    30.33400     0.00000  0.0
     77     64     65     89   5     0.00000    30.33400     0.00000  0.0
     63     64     77     76   5     0.00000    30.33400     0.00000  0.0
     63     64     77     99   5     0.00000    30.33400     0.00000  0.0
     65     64     77     76   5     0.00000    30.33400     0.00000  0.0
     65     64     77     99   5     0.00000    30.33400     0.00000  0.0
     64     65     66     67   5     0.00000    30.33400     0.00000  0.0
     64     65     66     90   5     0.00000    30.33400     0.00000  0.0
     89     65     66     67   5     0.00000    30.33400     0.00000  0.0
     89     65     66     90   5     0.00000    30.33400     0.00000  0.0
     65     66     67     68   5     0.00000    30.33400     0.00000  0.0
     65     66     67     76   5     0.00000    30.33400     0.00000  0.0
     90     66     67     68   5     0.00000    30.33400     0.00000  0.0
     90     66     67     76   5     0.00000    30.33400     0.00000  0.0
     66     67     68     69   5     0.00000     8.36800     0.00000  0.0
     66     67     68     91   5     0.00000     8.36800     0.00000  0.0
     76     67     68     69   5     0.00000     8.36800     0.00000  0.0
     76     67     68     91   5     0.00000     8.36800     0.00000  0.0
     66     67     76     77   5     0.00000    30.33400     0.00000  0.0
     66     67     76     98   5     0.00000    30.33400     0.00000  0.0
     68     67     76     77   5     0.00000    30.33400     0.00000  0.0
     68     67     76     98   5     0.00000    30.33400     0.00000  0.0
     67     68     69     70   5     0.00000     8.36800     0.00000  0.0
     67     68     69     75   5     0.00000     8.36800     0.00000  0.0
     91     68     69     70   5     0.00000     8.36800     0.00000  0.0
     91     68     69     75   5     0.00000     8.36800     0.00000  0.0
     68     69     70     71   5     0.00000    30.33400     0.00000  0.0
     68     69     70     92   5     0.00000    30.33400     0.00000  0.0
     75     69     70     71   5     0.00000    30.33400     0.00000  0.0
     75     69     70     92   5     0.00000    30.33400     0.00000  0.0
     68     69     75     74   5     0.00000    30.33400     0.00000  0.0
     68     69     75     97   5     0.00000    30.33400     0.00000  0.0
     70     69     75     74   5     0.00000    30.33400     0.00000  0.0
     70     69     75     97   5     0.00000    30.33400     0.00000  0.0
     69     70     71     72   5     0.00000    30.33400     0.00000  0.0
     69     70     71     93   5     0.00000    30.33400     0.00000  0.0
     92     70     71     72   5     0.00000    30.33400     0.00000  0.0
     92     70     71     93   5     0.00000    30.33400     0.00000  0.0
     70     71     72     73   5     0.00000    30.33400     0.00000  0.0
     70     71     72     74   5     0.00000    30.33400     0.00000  0.0
     93     71     72     73   5     0.00000    30.33400     0.00000  0.0
     93     71     72     74   5     0.00000    30.33400     0.00000  0.0
     71     72     73     94   5     0.00000     0.00000     0.00000  0.0
     71     72     73     95   5     0.00000     0.00000     0.00000  0.0
     71     72     73    104   5    -0.50208     2.55224     0.76986  0.0
     74     72     73     94   5     0.00000     0.00000     0.00000  0.0
     74     72     73     95   5     0.00000     0.00000     0.00000  0.0
     74     72     73    104   5    -0.50208     2.55224     0.76986  0.0
     71     72     74     75   5     0.00000    30.33400     0.00000  0.0
     71     72     74     96   5     0.00000    30.33400     0.00000  0.0
     73     72     74     75   5     0.00000    30.33400     0.00000  0.0
     73     72     74     96   5     0.00000    30.33400     0.00000  0.0
     72     73    104    105   5    -6.88268     4.64842     3.09198  0.0
     72     73    104    133   5     0.00000     0.00000     0.00000  0.0
     94     73    104    105   5     0.00000     0.00000     0.00000  0.0
     94     73    104    133   5     0.00000     0.00000     0.00000  0.0
     95     73    104    105   5     0.00000     0.00000     0.00000  0.0
     95     73    104    133   5     0.00000     0.00000     0.00000  0.0
     72     74     75     69   5     0.00000    30.33400     0.00000  0.0
     72     74     75     97   5     0.00000    30.33400     0.00000  0.0
     96     74     75     69   5     0.00000    30.33400     0.00000  0.0
     96     74     75     97   5     0.00000    30.33400     0.00000  0.0
     67     76     77     64   5     0.00000    30.33400     0.00000  0.0
     67     76     77     99   5     0.00000    30.33400     0.00000  0.0
     98     76     77     64   5     0.00000    30.33400     0.00000  0.0
     98     76     77     99   5     0.00000    30.33400     0.00000  0.0
     62     78     79     59   5     0.00000    30.33400     0.00000  0.0
     62     78     79    101   5     0.00000    30.33400     0.00000  0.0
    100     78     79     59   5     0.00000    30.33400     0.00000  0.0
    100     78     79    101   5     0.00000    30.33400     0.00000  0.0
     57     80     81     54   5     0.00000    30.33400     0.00000  0.0
     57     80     81    103   5     0.00000    30.33400     0.00000  0.0
    102     80     81     54   5     0.00000    30.33400     0.00000  0.0
    102     80     81    103   5     0.00000    30.33400     0.00000  0.0
     73    104    105    106   5    -8.36800    10.46000     0.00000  0.0
     73    104    105    132   5    -8.36800    10.46000     0.00000  0.0
    133    104    105    106   5     0.00000     8.36800     0.00000  0.0
    133    104    105    132   5     0.00000     8.36800     0.00000  0.0
    104    105    106    107   5     0.00000    30.33400     0.00000  0.0
    104    105    106    134   5     0.00000    30.33400     0.00000  0.0
    132    105    106    107   5     0.00000    30.33400     0.00000  0.0
    132    105    106    134   5     0.00000    30.33400     0.00000  0.0
    104    105    132    131   5     0.00000    30.33400     0.00000  0.0
    104    105    132    154   5     0.00000    30.33400     0.00000  0.0
    106    105    132    131   5     0.00000    30.33400     0.00000  0.0
    106    105    132    154   5     0.00000    30.33400     0.00000  0.0
    105    106    107    108   5     0.00000    30.33400     0.00000  0.0
    105    106    107    135   5     0.00000    30.33400     0.00000  0.0
    134    106    107    108   5     0.00000    30.33400     0.00000  0.0
    134    106    107    135   5     0.00000    30.33400     0.00000  0.0
    106    107    108    109   5     0.00000    30.33400     0.00000  0.0
    106    107    108    131   5     0.00000    30.33400     0.00000  0.0
    135    107    108    109   5     0.00000    30.33400     0.00000  0.0
    135    107    108    131   5     0.00000    30.33400     0.00000  0.0
    107    108    109    110   5     0.00000     8.36800     0.00000  0.0
    107    108    109    136   5     0.00000     8.36800     0.00000  0.0
    131    108    109    110   5     0.00000     8.36800     0.00000  0.0
    131    108    109    136   5     0.00000     8.36800     0.00000  0.0
    107    108    131    132   5     0.00000    30.33400     0.00000  0.0
    107    108    131    153   5     0.00000    30.33400     0.00000  0.0
    109    108    131    132   5     0.00000    30.33400     0.00000  0.0
    109    108    131    153   5     0.00000    30.33400     0.00000  0.0
    108    109    110    111   5     0.00000     8.36800     0.00000  0.0
    108    109    110    130   5     0.00000     8.36800     0.00000  0.0
    136    109    110    111   5     0.00000     8.36800     0.00000  0.0
    136    109    110    130   5     0.00000     8.36800     0.00000  0.0
    109    110    111    112   5     0.00000    30.33400     0.00000  0.0
    109    110    111    137   5     0.00000    30.33400     0.00000  0.0
    130    110    111    112   5     0.00000    30.33400     0.00000  0.0
    130    110    111    137   5     0.00000    30.33400     0.00000  0.0
    109    110    130    129   5     0.00000    30.33400     0.00000  0.0
    109    110    130    152   5     0.00000    30.33400     0.00000  0.0
    111    110    130    129   5     0.00000    30.33400     0.00000  0.0
    111    110    130    152   5     0.00000    30.33400     0.00000  0.0
    110    111    112    113   5     0.00000    30.33400     0.00000  0.0
    110    111    112    138   5     0.00000    30.33400     0.00000  0.0
    137    111    112    113   5     0.00000    30.33400     0.00000  0.0
    137    111    112    138   5     0.00000    30.33400     0.00000  0.0
    111    112    113    114   5     0.00000    30.33400     0.00000  0.0
    111    112    113    129   5     0.00000    30.33400     0.00000  0.0
    138    112    113    114   5     0.00000    30.33400     0.00000  0.0
    138    112    113    129   5     0.00000    30.33400     0.00000  0.0
    112    113    114    115   5     0.00000     8.36800     0.00000  0.0
    112    113    114    139   5     0.00000     8.36800     0.00000  0.0
    129    113    114    115   5     0.00000     8.36800     0.00000  0.0
    129    113    114    139   5     0.00000     8.36800     0.00000  0.0
    112    113    129    130   5     0.00000    30.33400     0.00000  0.0
    112    113    129    151   5     0.00000    30.33400     0.00000  0.0
    114    113    129    130   5     0.00000    30.33400     0.00000  0.0
    114    113    129    151   5     0.00000    30.33400     0.00000  0.0
    113    114    115    116   5     0.00000     8.36800     0.00000  0.0
    113    114    115    128   5     0.00000     8.36800     0.00000  0.0
    139    114    115    116   5     0.00000     8.36800     0.00000  0.0
    139    114    115    128   5     0.00000     8.36800     0.00000  0.0
    114    115    116    117   5     0.00000    30.33400     0.00000  0.0
    114    115    116    140   5     0.00000    30.33400     0.00000  0.0
    128    115    116    117   5     0.00000    30.33400     0.00000  0.0
    128    115    116    140   5     0.00000    30.33400     0.00000  0.0
    114    115    128    127   5     0.00000    30.33400     0.00000  0.0
    114    115    128    150   5     0.00000    30.33400     0.00000  0.0
    116    115    128    127   5     0.00000    30.33400     0.00000  0.0
    116    115    128    150   5     0.00000    30.33400     0.00000  0.0
    115    116    117    118   5     0.00000    30.33400     0.00000  0.0
    115    116    117    141   5     0.00000    30.33400     0.00000  0.0
    140    116    117    118   5     0.00000    30.33400     0.00000  0.0
    140    116    117    141   5     0.00000    30.33400     0.00000  0.0
    116    117    118    119   5     0.00000    30.33400     0.00000  0.0
    116    117    118    127   5     0.00000    30.33400     0.00000  0.0
    141    117    118    119   5     0.00000    30.33400     0.00000  0.0
    141    117    118    127   5     0.00000    30.33400     0.00000  0.0
    117    118    119    120   5     0.00000     8.36800     0.00000  0.0
    117    118    119    142   5     0.00000     8.36800     0.00000  0.0
    127    118    119    120   5     0.00000     8.36800     0.00000  0.0
    127    118    119    142   5     0.00000     8.36800     0.00000  0.0
    117    118    127    128   5     0.00000    30.33400     0.00000  0.0
    117    118    127    149   5     0.00000    30.33400     0.00000  0.0
    119    118    127    128   5     0.00000    30.33400     0.00000  0.0
    119    118    127    149   5     0.00000    30.33400     0.00000  0.0
    118    119    120    121   5     0.00000     8.36800     0.00000  0.0
    118    119    120    126   5     0.00000     8.36800     0.00000  0.0
    142    119    120    121   5     0.00000     8.36800     0.00000  0.0
    142    119    120    126   5     0.00000     8.36800     0.00000  0.0
    119    120    121    122   5     0.00000    30.33400     0.00000  0.0
    119    120    121    143   5     0.00000    30.33400     0.00000  0.0
    126    120    121    122   5     0.00000    30.33400     0.00000  0.0
    126    120    121    143   5     0.00000    30.33400     0.00000  0.0
    119    120    126    125   5     0.00000    30.33400     0.00000  0.0
    119    120    126    148   5     0.00000    30.33400     0.00000  0.0
    121    120    126    125   5     0.00000    30.33400     0.00000  0.0
    121    120    126    148   5     0.00000    30.33400     0.00000  0.0
    120    121    122    123   5     0.00000    30.33400     0.00000  0.0
    120    121    122    144   5     0.00000    30.33400     0.00000  0.0
    143    121    122    123   5     0.00000    30.33400     0.00000  0.0
    143    121    122    144   5     0.00000    30.33400     0.00000  0.0
    121    122    123    124   5     0.00000    30.33400     0.00000  0.0
    121    122    123    125   5     0.00000    30.33400     0.00000  0.0
    144    122    123    124   5     0.00000    30.33400     0.00000  0.0
    144    122    123    125   5     0.00000    30.33400     0.00000  0.0
    122    123    124    145   5     0.00000     0.00000     0.00000  0.0
    122    123    124    146   5     0.00000     0.00000     0.00000  0.0
    122    123    124    155   5    -0.50208     2.55224     0.76986  0.0
    125    123    124    145   5     0.00000     0.00000     0.00000  0.0
    125    123    124    146   5     0.00000     0.00000     0.00000  0.0
    125    123    124    155   5    -0.50208     2.55224     0.76986  0.0
    122    123    125    126   5     0.00000    30.33400     0.00000  0.0
    122    123    125    147   5     0.00000    30.33400     0.00000  0.0
    124    123    125    126   5     0.00000    30.33400     0.00000  0.0
    124    123    125    147   5     0.00000    30.33400     0.00000  0.0
    123    124    155    156   5    -6.88268     4.64842     3.09198  0.0
    123    124    155    184   5     0.00000     0.00000     0.00000  0.0
    145    124    155    156   5     0.00000     0.00000     0.00000  0.0
    145    124    155    184   5     0.00000     0.00000     0.00000  0.0
    146    124    155    156   5     0.00000     0.00000     0.00000  0.0
    146    124    155    184   5     0.00000     0.00000     0.00000  0.0
    123    125    126    120   5     0.00000    30.33400     0.00000  0.0
    123    125    126    148   5     0.00000    30.33400     0.00000  0.0
    147    125    126    120   5     0.00000    30.33400     0.00000  0.0
    147    125    126    148   5     0.00000    30.33400     0.00000  0.0
    118    127    128    115   5     0.00000    30.33400     0.00000  0.0
    118    127    128    150   5     0.00000    30.33400     0.00000  0.0
    149    127    128    115   5     0.00000    30.33400     0.00000  0.0
    149    127    128    150   5     0.00000    30.33400     0.00000  0.0
    113    129    130    110   5     0.00000    30.33400     0.00000  0.0
    113    129    130    152   5     0.00000    30.33400     0.00000  0.0
    151    129    130    110   5     0.00000    30.33400     0.00000  0.0
    151    129    130    152   5     0.00000    30.33400     0.00000  0.0
    108    131    132    105   5     0.00000    30.33400     0.00000  0.0
    108    131    132    154   5     0.00000    30.33400     0.00000  0.0
    153    131    132    105   5     0.00000    30.33400     0.00000  0.0
    153    131    132    154   5     0.00000    30.33400     0.00000  0.0
    124    155    156    157   5    -8.36800    10.46000     0.00000  0.0
    124    155    156    183   5    -8.36800    10.46000     0.00000  0.0
    184    155    156    157   5     0.00000     8.36800     0.00000  0.0
    184    155    156    183   5     0.00000     8.36800     0.00000  0.0
    155    156    157    158   5     0.00000    30.33400     0.00000  0.0
    155    156    157    185   5     0.00000    30.33400     0.00000  0.0
    183    156    157    158   5     0.00000    30.33400     0.00000  0.0
    183    156    157    185   5     0.00000    30.33400     0.00000  0.0
    155    156    183    182   5     0.00000    30.33400     0.00000  0.0
    155    156    183    205   5     0.00000    30.33400     0.00000  0.0
    157    156    183    182   5     0.00000    30.33400     0.00000  0.0
    157    156    183    205   5     0.00000    30.33400     0.00000  0.0
    156    157    158    159   5     0.00000    30.33400     0.00000  0.0
    156    157    158    186   5     0.00000    30.33400     0.00000  0.0
    185    157    158    159   5     0.00000    30.33400     0.00000  0.0
    185    157    158    186   5     0.00000    30.33400     0.00000  0.0
    157    158    159    160   5     0.00000    30.33400     0.00000  0.0
    157    158    159    182   5     0.00000    30.33400     0.00000  0.0
    186    158    159    160   5     0.00000    30.33400     0.00000  0.0
    186    158    159    182   5     0.00000    30.33400     0.00000  0.0
    158    159    160    161   5     0.00000     8.36800     0.00000  0.0
    158    159    160    187   5     0.00000     8.36800     0.00000  0.0
    182    159    160    161   5     0.00000     8.36800     0.00000  0.0
    182    159    160    187   5     0.00000     8.36800     0.00000  0.0
    158    159    182    183   5     0.00000    30.33400     0.00000  0.0
    158    159    182    204   5     0.00000    30.33400     0.00000  0.0
    160    159    182    183   5     0.00000    30.33400     0.00000  0.0
    160    159    182    204   5     0.00000    30.33400     0.00000  0.0
    159    160    161    162   5     0.00000     8.36800     0.00000  0.0
    159    160    161    181   5     0.00000     8.36800     0.00000  0.0
    187    160    161    162   5     0.00000     8.36800     0.00000  0.0
    187    160    161    181   5     0.00000     8.36800     0.00000  0.0
    160    161    162    163   5     0.00000    30.33400     0.00000  0.0
    160    161    162    188   5     0.00000    30.33400     0.00000  0.0
    181    161    162    163   5     0.00000    30.33400     0.00000  0.0
    181    161    162    188   5     0.00000    30.33400     0.00000  0.0
    160    161    181    180   5     0.00000    30.33400     0.00000  0.0
    160    161    181    203   5     0.00000    30.33400     0.00000  0.0
    162    161    181    180   5     0.00000    30.33400     0.00000  0.0
    162    161    181    203   5     0.00000    30.33400     0.00000  0.0
    161    162    163    164   5     0.00000    30.33400     0.00000  0.0
    161    162    163    189   5     0.00000    30.33400     0.00000  0.0
    188    162    163    164   5     0.00000    30.33400     0.00000  0.0
    188    162    163    189   5     0.00000    30.33400     0.00000  0.0
    162    163    164    165   5     0.00000    30.33400     0.00000  0.0
    162    163    164    180   5     0.00000    30.33400     0.00000  0.0
    189    163    164    165   5     0.00000    30.33400     0.00000  0.0
    189    163    164    180   5     0.00000    30.33400     0.00000  0.0
    163    164    165    166   5     0.00000     8.36800     0.00000  0.0
    163    164    165    190   5     0.00000     8.36800     0.00000  0.0
    180    164    165    166   5     0.00000     8.36800     0.00000  0.0
    180    164    165    190   5     0.00000     8.36800     0.00000  0.0
    163    164    180    181   5     0.00000    30.33400     0.00000  0.0
    163    164    180    202   5     0.00000    30.33400     0.00000  0.0
    165    164    180    181   5     0.00000    30.33400     0.00000  0.0
    165    164    180    202   5     0.00000    30.33400     0.00000  0.0
    164    165    166    167   5     0.00000     8.36800     0.00000  0.0
    164    165    166    179   5     0.00000     8.36800     0.00000  0.0
    190    165    166    167   5     0.00000     8.36800     0.00000  0.0
    190    165    166    179   5     0.00000     8.36800     0.00000  0.0
    165    166    167    168   5     0.00000    30.33400     0.00000  0.0
    165    166    167    191   5     0.00000    30.33400     0.00000  0.0
    179    166    167    168   5     0.00000    30.33400     0.00000  0.0
    179    166    167    191   5     0.00000    30.33400     0.00000  0.0
    165    166    179    178   5     0.00000    30.33400     0.00000  0.0
    165    166    179    201   5     0.00000    30.33400     0.00000  0.0
    167    166    179    178   5     0.00000    30.33400     0.00000  0.0
    167    166    179    201   5     0.00000    30.33400     0.00000  0.0
    166    167    168    169   5     0.00000    30.33400     0.00000  0.0
    166    167    168    192   5     0.00000    30.33400     0.00000  0.0
    191    167    168    169   5     0.00000    30.33400     0.00000  0.0
    191    167    168    192   5     0.00000    30.33400     0.00000  0.0
    167    168    169    170   5     0.00000    30.33400     0.00000  0.0
    167    168    169    178   5     0.00000    30.33400     0.00000  0.0
    192    168    169    170   5     0.00000    30.33400     0.00000  0.0
    192    168    169    178   5     0.00000    30.33400     0.00000  0.0
    168    169    170    171   5     0.00000     8.36800     0.00000  0.0
    168    169    170    193   5     0.00000     8.36800     0.00000  0.0
    178    169    170    171   5     0.00000     8.36800     0.00000  0.0
    178    169    170    193   5     0.00000     8.36800     0.00000  0.0
    168    169    178    179   5     0.00000    30.33400     0.00000  0.0
    168    169    178    200   5     0.00000    30.33400     0.00000  0.0
    170    169    178    179   5     0.00000    30.33400     0.00000  0.0
    170    169    178    200   5     0.00000    30.33400     0.00000  0.0
    169    170    171    172   5     0.00000     8.36800     0.00000  0.0
    169    170    171    177   5     0.00000     8.36800     0.00000  0.0
    193    170    171    172   5     0.00000     8.36800     0.00000  0.0
    193    170    171    177   5     0.00000     8.36800     0.00000  0.0
    170    171    172    173   5     0.00000    30.33400     0.00000  0.0
    170    171    172    194   5     0.00000    30.33400     0.00000  0.0
    177    171    172    173   5     0.00000    30.33400     0.00000  0.0
    177    171    172    194   5     0.00000    30.33400     0.00000  0.0
    170    171    177    176   5     0.00000    30.33400     0.00000  0.0
    170    171    177    199   5     0.00000    30.33400     0.00000  0.0
    172    171    177    176   5     0.00000    30.33400     0.00000  0.0
    172    171    177    199   5     0.00000    30.33400     0.00000  0.0
    171    172    173    174   5     0.00000    30.33400     0.00000  0.0
    171    172    173    195   5     0.00000    30.33400     0.00000  0.0
    194    172    173    174   5     0.00000    30.33400     0.00000  0.0
    194    172    173    195   5     0.00000    30.33400     0.00000  0.0
    172    173    174    175   5     0.00000    30.33400     0.00000  0.0
    172    173    174    176   5     0.00000    30.33400     0.00000  0.0
    195    173    174    175   5     0.00000    30.33400     0.00000  0.0
    195    173    174    176   5     0.00000    30.33400     0.00000  0.0
    173    174    175    196   5     0.00000     0.00000     0.00000  0.0
    173    174    175    197   5     0.00000     0.00000     0.00000  0.0
    173    174    175    206   5    -0.50208     2.55224     0.76986  0.0
    176    174    175    196   5     0.00000     0.00000     0.00000  0.0
    176    174    175    197   5     0.00000     0.00000     0.00000  0.0
    176    174    175    206   5    -0.50208     2.55224     0.76986  0.0
    173    174    176    177   5     0.00000    30.33400     0.00000  0.0
    173    174    176    198   5     0.00000    30.33400     0.00000  0.0
    175    174    176    177   5     0.00000    30.33400     0.00000  0.0
    175    174    176    198   5     0.00000    30.33400     0.00000  0.0
    174    175    206    207   5    -6.88268     4.64842     3.09198  0.0
    174    175    206    235   5     0.00000     0.00000     0.00000  0.0
    196    175    206    207   5     0.00000     0.00000     0.00000  0.0
    196    175    206    235   5     0.00000     0.00000     0.00000  0.0
    197    175    206    207   5     0.00000     0.00000     0.00000  0.0
    197    175    206    235   5     0.00000     0.00000     0.00000  0.0
    174    176    177    171   5     0.00000    30.33400     0.00000  0.0
    174    176    177    199   5     0.00000    30.33400     0.00000  0.0
    198    176    177    171   5     0.00000    30.33400     0.00000  0.0
    198    176    177    199   5     0.00000    30.33400     0.00000  0.0
    169    178    179    166   5     0.00000    30.33400     0.00000  0.0
    169    178    179    201   5     0.00000    30.33400     0.00000  0.0
    200    178    179    166   5     0.00000    30.33400     0.00000  0.0
    200    178    179    201   5     0.00000    30.33400     0.00000  0.0
    164    180    181    161   5     0.00000    30.33400     0.00000  0.0
    164    180    181    203   5     0.00000    30.33400     0.00000  0.0
    202    180    181    161   5     0.00000    30.33400     0.00000  0.0
    202    180    181    203   5     0.00000    30.33400     0.00000  0.0
    159    182    183    156   5     0.00000    30.33400     0.00000  0.0
    159    182    183    205   5     0.00000    30.33400     0.00000  0.0
    204    182    183    156   5     0.00000    30.33400     0.00000  0.0
    204    182    183    205   5     0.00000    30.33400     0.00000  0.0
    175    206    207    208   5    -8.36800    10.46000     0.00000  0.0
    175    206    207    234   5    -8.36800    10.46000     0.00000  0.0
    235    206    207    208   5     0.00000     8.36800     0.00000  0.0
    235    206    207    234   5     0.00000     8.36800     0.00000  0.0
    206    207    208    209   5     0.00000    30.33400     0.00000  0.0
    206    207    208    236   5     0.00000    30.33400     0.00000  0.0
    234    207    208    209   5     0.00000    30.33400     0.00000  0.0
    234    207    208    236   5     0.00000    30.33400     0.00000  0.0
    206    207    234    233   5     0.00000    30.33400     0.00000  0.0
    206    207    234    256   5     0.00000    30.33400     0.00000  0.0
    208    207    234    233   5     0.00000    30.33400     0.00000  0.0
    208    207    234    256   5     0.00000    30.33400     0.00000  0.0
    207    208    209    210   5     0.00000    30.33400     0.00000  0.0
    207    208    209    237   5     0.00000    30.33400     0.00000  0.0
    236    208    209    210   5     0.00000    30.33400     0.00000  0.0
    236    208    209    237   5     0.00000    30.33400     0.00000  0.0
    208    209    210    211   5     0.00000    30.33400     0.00000  0.0
    208    209    210    233   5     0.00000    30.33400     0.00000  0.0
    237    209    210    211   5     0.00000    30.33400     0.00000  0.0
    237    209    210    233   5     0.00000    30.33400     0.00000  0.0
    209    210    211    212   5     0.00000     8.36800     0.00000  0.0
    209    210    211    238   5     0.00000     8.36800     0.00000  0.0
    233    210    211    212   5     0.00000     8.36800     0.00000  0.0
    233    210    211    238   5     0.00000     8.36800     0.00000  0.0
    209    210    233    234   5     0.00000    30.33400     0.00000  0.0
    209    210    233    255   5     0.00000    30.33400     0.00000  0.0
    211    210    233    234   5     0.00000    30.33400     0.00000  0.0
    211    210    233    255   5     0.00000    30.33400     0.00000  0.0
    210    211    212    213   5     0.00000     8.36800     0.00000  0.0
    210    211    212    232   5     0.00000     8.36800     0.00000  0.0
    238    211    212    213   5     0.00000     8.36800     0.00000  0.0
    238    211    212    232   5     0.00000     8.36800     0.00000  0.0
    211    212    213    214   5     0.00000    30.33400     0.00000  0.0
    211    212    213    239   5     0.00000    30.33400     0.00000  0.0
    232    212    213    214   5     0.00000    30.33400     0.00000  0.0
    232    212    213    239   5     0.00000    30.33400     0.00000  0.0
    211    212    232    231   5     0.00000    30.33400     0.00000  0.0
    211    212    232    254   5     0.00000    30.33400     0.00000  0.0
    213    212    232    231   5     0.00000    30.33400     0.00000  0.0
    213    212    232    254   5     0.00000    30.33400     0.00000  0.0
    212    213    214    215   5     0.00000    30.33400     0.00000  0.0
    212    213    214    240   5     0.00000    30.33400     0.00000  0.0
    239    213    214    215   5     0.00000    30.33400     0.00000  0.0
    239    213    214    240   5     0.00000    30.33400     0.00000  0.0
    213    214    215    216   5     0.00000    30.33400     0.00000  0.0
    213    214    215    231   5     0.00000    30.33400     0.00000  0.0
    240    214    215    216   5     0.00000    30.33400     0.00000  0.0
    240    214    215    231   5     0.00000    30.33400     0.00000  0.0
    214    215    216    217   5     0.00000     8.36800     0.00000  0.0
    214    215    216    241   5     0.00000     8.36800     0.00000  0.0
    231    215    216    217   5     0.00000     8.36800     0.00000  0.0
    231    215    216    241   5     0.00000     8.36800     0.00000  0.0
    214    215    231    232   5     0.00000    30.33400     0.00000  0.0
    214    215    231    253   5     0.00000    30.33400     0.00000  0.0
    216    215    231    232   5     0.00000    30.33400     0.00000  0.0
    216    215    231    253   5     0.00000    30.33400     0.00000  0.0
    215    216    217    218   5     0.00000     8.36800     0.00000  0.0
    215    216    217    230   5     0.00000     8.36800     0.00000  0.0
    241    216    217    218   5     0.00000     8.36800     0.00000  0.0
    241    216    217    230   5     0.00000     8.36800     0.00000  0.0
    216    217    218    219   5     0.00000    30.33400     0.00000  0.0
    216    217    218    242   5     0.00000    30.33400     0.00000  0.0
    230    217    218    219   5     0.00000    30.33400     0.00000  0.0
    230    217    218    242   5     0.00000    30.33400     0.00000  0.0
    216    217    230    229   5     0.00000    30.33400     0.00000  0.0
    216    217    230    252   5     0.00000    30.33400     0.00000  0.0
    218    217    230    229   5     0.00000    30.33400     0.00000  0.0
    218    217    230    252   5     0.00000    30.33400     0.00000  0.0
    217    218    219    220   5     0.00000    30.33400     0.00000  0.0
    217    218    219    243   5     0.00000    30.33400     0.00000  0.0
    242    218    219    220   5     0.00000    30.33400     0.00000  0.0
    242    218    219    243   5     0.00000    30.33400     0.00000  0.0
    218    219    220    221   5     0.00000    30.33400     0.00000  0.0
    218    219    220    229   5     0.00000    30.33400     0.00000  0.0
    243    219    220    221   5     0.00000    30.33400     0.00000  0.0
    243    219    220    229   5     0.00000    30.33400     0.00000  0.0
    219    220    221    222   5     0.00000     8.36800     0.00000  0.0
    219    220    221    244   5     0.00000     8.36800     0.00000  0.0
    229    220    221    222   5     0.00000     8.36800     0.00000  0.0
    229    220    221    244   5     0.00000     8.36800     0.00000  0.0
    219    220    229    230   5     0.00000    30.33400     0.00000  0.0
    219    220    229    251   5     0.00000    30.33400     0.00000  0.0
    221    220    229    230   5     0.00000    30.33400     0.00000  0.0
    221    220    229    251   5     0.00000    30.33400     0.00000  0.0
    220    221    222    223   5     0.00000     8.36800     0.00000  0.0
    220    221    222    228   5     0.00000     8.36800     0.00000  0.0
    244    221    222    223   5     0.00000     8.36800     0.00000  0.0
    244    221    222    228   5     0.00000     8.36800     0.00000  0.0
    221    222    223    224   5     0.00000    30.33400     0.00000  0.0
    221    222    223    245   5     0.00000    30.33400     0.00000  0.0
    228    222    223    224   5     0.00000    30.33400     0.00000  0.0
    228    222    223    245   5     0.00000    30.33400     0.00000  0.0
    221    222    228    227   5     0.00000    30.33400     0.00000  0.0
    221    222    228    250   5     0.00000    30.33400     0.00000  0.0
    223    222    228    227   5     0.00000    30.33400     0.00000  0.0
    223    222    228    250   5     0.00000    30.33400     0.00000  0.0
    222    223    224    225   5     0.00000    30.33400     0.00000  0.0
    222    223    224    246   5     0.00000    30.33400     0.00000  0.0
    245    223    224    225   5     0.00000    30.33400     0.00000  0.0
    245    223    224    246   5     0.00000    30.33400     0.00000  0.0
    223    224    225    226   5     0.00000    30.33400     0.00000  0.0
    223    224    225    227   5     0.00000    30.33400     0.00000  0.0
    246    224    225    226   5     0.00000    30.33400     0.00000  0.0
    246    224    225    227   5     0.00000    30.33400     0.00000  0.0
    224    225    226    247   5     0.00000     0.00000     0.00000  0.0
    224    225    226    248   5     0.00000     0.00000     0.00000  0.0
    224    225    226    257   5    -0.50208     2.55224     0.76986  0.0
    227    225    226    247   5     0.00000     0.00000     0.00000  0.0
    227    225    226    248   5     0.00000     0.00000     0.00000  0.0
    227    225    226    257   5    -0.50208     2.55224     0.76986  0.0
    224    225    227    228   5     0.00000    30.33400     0.00000  0.0
    224    225    227    249   5     0.00000    30.33400     0.00000  0.0
    226    225    227    228   5     0.00000    30.33400     0.00000  0.0
    226    225    227    249   5     0.00000    30.33400     0.00000  0.0
    225    226    257    258   5    -6.88268     4.64842     3.09198  0.0
    225    226    257    286   5     0.00000     0.00000     0.00000  0.0
    247    226    257    258   5     0.00000     0.00000     0.00000  0.0
    247    226    257    286   5     0.00000     0.00000     0.00000  0.0
    248    226    257    258   5     0.00000     0.00000     0.00000  0.0
    248    226    257    286   5     0.00000     0.00000     0.00000  0.0
    225    227    228    222   5     0.00000    30.33400     0.00000  0.0
    225    227    228    250   5     0.00000    30.33400     0.00000  0.0
    249    227    228    222   5     0.00000    30.33400     0.00000  0.0
    249    227    228    250   5     0.00000    30.33400     0.00000  0.0
    220    229    230    217   5     0.00000    30.33400     0.00000  0.0
    220    229    230    252   5     0.00000    30.33400     0.00000  0.0
    251    229    230    217   5     0.00000    30.33400     0.00000  0.0
    251    229    230    252   5     0.00000    30.33400     0.00000  0.0
    215    231    232    212   5     0.00000    30.33400     0.00000  0.0
    215    231    232    254   5     0.00000    30.33400     0.00000  0.0
    253    231    232    212   5     0.00000    30.33400     0.00000  0.0
    253    231    232    254   5     0.00000    30.33400     0.00000  0.0
    210    233    234    207   5     0.00000    30.33400     0.00000  0.0
    210    233    234    256   5     0.00000    30.33400     0.00000  0.0
    255    233    234    207   5     0.00000    30.33400     0.00000  0.0
    255    233    234    256   5     0.00000    30.33400     0.00000  0.0
    226    257    258    259   5    -8.36800    10.46000     0.00000  0.0
    226    257    258    285   5    -8.36800    10.46000     0.00000  0.0
    286    257    258    259   5     0.00000     8.36800     0.00000  0.0
    286    257    258    285   5     0.00000     8.36800     0.00000  0.0
    257    258    259    260   5     0.00000    30.33400     0.00000  0.0
    257    258    259    287   5     0.00000    30.33400     0.00000  0.0
    285    258    259    260   5     0.00000    30.33400     0.00000  0.0
    285    258    259    287   5     0.00000    30.33400     0.00000  0.0
    257    258    285    284   5     0.00000    30.33400     0.00000  0.0
    257    258    285    307   5     0.00000    30.33400     0.00000  0.0
    259    258    285    284   5     0.00000    30.33400     0.00000  0.0
    259    258    285    307   5     0.00000    30.33400     0.00000  0.0
    258    259    260    261   5     0.00000    30.33400     0.00000  0.0
    258    259    260    288   5     0.00000    30.33400     0.00000  0.0
    287    259    260    261   5     0.00000    30.33400     0.00000  0.0
    287    259    260    288   5     0.00000    30.33400     0.00000  0.0
    259    260    261    262   5     0.00000    30.33400     0.00000  0.0
    259    260    261    284   5     0.00000    30.33400     0.00000  0.0
    288    260    261    262   5     0.00000    30.33400     0.00000  0.0
    288    260    261    284   5     0.00000    30.33400     0.00000  0.0
    260    261    262    263   5     0.00000     8.36800     0.00000  0.0
    260    261    262    289   5     0.00000     8.36800     0.00000  0.0
    284    261    262    263   5     0.00000     8.36800     0.00000  0.0
    284    261    262    289   5     0.00000     8.36800     0.00000  0.0
    260    261    284    285   5     0.00000    30.33400     0.00000  0.0
    260    261    284    306   5     0.00000    30.33400     0.00000  0.0
    262    261    284    285   5     0.00000    30.33400     0.00000  0.0
    262    261    284    306   5     0.00000    30.33400     0.00000  0.0
    261    262    263    264   5     0.00000     8.36800     0.00000  0.0
    261    262    263    283   5     0.00000     8.36800     0.00000  0.0
    289    262    263    264   5     0.00000     8.36800     0.00000  0.0
    289    262    263    283   5     0.00000     8.36800     0.00000  0.0
    262    263    264    265   5     0.00000    30.33400     0.00000  0.0
    262    263    264    290   5     0.00000    30.33400     0.00000  0.0
    283    263    264    265   5     0.00000    30.33400     0.00000  0.0
    283    263    264    290   5     0.00000    30.33400     0.00000  0.0
    262    263    283    282   5     0.00000    30.33400     0.00000  0.0
    262    263    283    305   5     0.00000    30.33400     0.00000  0.0
    264    263    283    282   5     0.00000    30.33400     0.00000  0.0
    264    263    283    305   5     0.00000    30.33400     0.00000  0.0
    263    264    265    266   5     0.00000    30.33400     0.00000  0.0
    263    264    265    291   5     0.00000    30.33400     0.00000  0.0
    290    264    265    266   5     0.00000    30.33400     0.00000  0.0
    290    264    265    291   5     0.00000    30.33400     0.00000  0.0
    264    265    266    267   5     0.00000    30.33400     0.00000  0.0
    264    265    266    282   5     0.00000    30.33400     0.00000  0.0
    291    265    266    267   5     0.00000    30.33400     0.00000  0.0
    291    265    266    282   5     0.00000    30.33400     0.00000  0.0
    265    266    267    268   5     0.00000     8.36800     0.00000  0.0
    265    266    267    292   5     0.00000     8.36800     0.00000  0.0
    282    266    267    268   5     0.00000     8.36800     0.00000  0.0
    282    266    267    292   5     0.00000     8.36800     0.00000  0.0
    265    266    282    283   5     0.00000    30.33400     0.00000  0.0
    265    266    282    304   5     0.00000    30.33400     0.00000  0.0
    267    266    282    283   5     0.00000    30.33400     0.00000  0.0
    267    266    282    304   5     0.00000    30.33400     0.00000  0.0
    266    267    268    269   5     0.00000     8.36800     0.00000  0.0
    266    267    268    281   5     0.00000     8.36800     0.00000  0.0
    292    267    268    269   5     0.00000     8.36800     0.00000  0.0
    292    267    268    281   5     0.00000     8.36800     0.00000  0.0
    267    268    269    270   5     0.00000    30.33400     0.00000  0.0
    267    268    269    293   5     0.00000    30.33400     0.00000  0.0
    281    268    269    270   5     0.00000    30.33400     0.00000  0.0
    281    268    269    293   5     0.00000    30.33400     0.00000  0.0
    267    268    281    280   5     0.00000    30.33400     0.00000  0.0
    267    268    281    303   5     0.00000    30.33400     0.00000  0.0
    269    268    281    280   5     0.00000    30.33400     0.00000  0.0
    269    268    281    303   5     0.00000    30.33400     0.00000  0.0
    268    269    270    271   5     0.00000    30.33400     0.00000  0.0
    268    269    270    294   5     0.00000    30.33400     0.00000  0.0
    293    269    270    271   5     0.00000    30.33400     0.00000  0.0
    293    269    270    294   5     0.00000    30.33400     0.00000  0.0
    269    270    271    272   5     0.00000    30.33400     0.00000  0.0
    269    270    271    280   5     0.00000    30.33400     0.00000  0.0
    294    270    271    272   5     0.00000    30.33400     0.00000  0.0
    294    270    271    280   5     0.00000    30.33400     0.00000  0.0
    270    271    272    273   5     0.00000     8.36800     0.00000  0.0
    270    271    272    295   5     0.00000     8.36800     0.00000  0.0
    280    271    272    273   5     0.00000     8.36800     0.00000  0.0
    280    271    272    295   5     0.00000     8.36800     0.00000  0.0
    270    271    280    281   5     0.00000    30.33400     0.00000  0.0
    270    271    280    302   5     0.00000    30.33400     0.00000  0.0
    272    271    280    281   5     0.00000    30.33400     0.00000  0.0
    272    271    280    302   5     0.00000    30.33400     0.00000  0.0
    271    272    273    274   5     0.00000     8.36800     0.00000  0.0
    271    272    273    279   5     0.00000     8.36800     0.00000  0.0
    295    272    273    274   5     0.00000     8.36800     0.00000  0.0
    295    272    273    279   5     0.00000     8.36800     0.00000  0.0
    272    273    274    275   5     0.00000    30.33400     0.00000  0.0
    272    273    274    296   5     0.00000    30.33400     0.00000  0.0
    279    273    274    275   5     0.00000    30.33400     0.00000  0.0
    279    273    274    296   5     0.00000    30.33400     0.00000  0.0
    272    273    279    278   5     0.00000    30.33400     0.00000  0.0
    272    273    279    301   5     0.00000    30.33400     0.00000  0.0
    274    273    279    278   5     0.00000    30.33400     0.00000  0.0
    274    273    279    301   5     0.00000    30.33400     0.00000  0.0
    273    274    275    276   5     0.00000    30.33400     0.00000  0.0
    273    274    275    297   5     0.00000    30.33400     0.00000  0.0
    296    274    275    276   5     0.00000    30.33400     0.00000  0.0
    296    274    275    297   5     0.00000    30.33400     0.00000  0.0
    274    275    276    277   5     0.00000    30.33400     0.00000  0.0
    274    275    276    278   5     0.00000    30.33400     0.00000  0.0
    297    275    276    277   5     0.00000    30.33400     0.00000  0.0
    297    275    276    278   5     0.00000    30.33400     0.00000  0.0
    275    276    277    298   5     0.00000     0.00000     0.00000  0.0
    275    276    277    299   5     0.00000     0.00000     0.00000  0.0
    275    276    277    308   5    -0.50208     2.55224     0.76986  0.0
    278    276    277    298   5     0.00000     0.00000     0.00000  0.0
    278    276    277    299   5     0.00000     0.00000     0.00000  0.0
    278    276    277    308   5    -0.50208     2.55224     0.76986  0.0
    275    276    278    279   5     0.00000    30.33400     0.00000  0.0
    275    276    278    300   5     0.00000    30.33400     0.00000  0.0
    277    276    278    279   5     0.00000    30.33400     0.00000  0.0
    277    276    278    300   5     0.00000    30.33400     0.00000  0.0
    276    277    308    309   5    -6.88268     4.64842     3.09198  0.0
    276    277    308    337   5     0.00000     0.00000     0.00000  0.0
    298    277    308    309   5     0.00000     0.00000     0.00000  0.0
    298    277    308    337   5     0.00000     0.00000     0.00000  0.0
    299    277    308    309   5     0.00000     0.00000     0.00000  0.0
    299    277    308    337   5     0.00000     0.00000     0.00000  0.0
    276    278    279    273   5     0.00000    30.33400     0.00000  0.0
    276    278    279    301   5     0.00000    30.33400     0.00000  0.0
    300    278    279    273   5     0.00000    30.33400     0.00000  0.0
    300    278    279    301   5     0.00000    30.33400     0.00000  0.0
    271    280    281    268   5     0.00000    30.33400     0.00000  0.0
    271    280    281    303   5     0.00000    30.33400     0.00000  0.0
    302    280    281    268   5     0.00000    30.33400     0.00000  0.0
    302    280    281    303   5     0.00000    30.33400     0.00000  0.0
    266    282    283    263   5     0.00000    30.33400     0.00000  0.0
    266    282    283    305   5     0.00000    30.33400     0.00000  0.0
    304    282    283    263   5     0.00000    30.33400     0.00000  0.0
    304    282    283    305   5     0.00000    30.33400     0.00000  0.0
    261    284    285    258   5     0.00000    30.33400     0.00000  0.0
    261    284    285    307   5     0.00000    30.33400     0.00000  0.0
    306    284    285    258   5     0.00000    30.33400     0.00000  0.0
    306    284    285    307   5     0.00000    30.33400     0.00000  0.0
    277    308    309    310   5    -8.36800    10.46000     0.00000  0.0
    277    308    309    336   5    -8.36800    10.46000     0.00000  0.0
    337    308    309    310   5     0.00000     8.36800     0.00000  0.0
    337    308    309    336   5     0.00000     8.36800     0.00000  0.0
    308    309    310    311   5     0.00000    30.33400     0.00000  0.0
    308    309    310    338   5     0.00000    30.33400     0.00000  0.0
    336    309    310    311   5     0.00000    30.33400     0.00000  0.0
    336    309    310    338   5     0.00000    30.33400     0.00000  0.0
    308    309    336    335   5     0.00000    30.33400     0.00000  0.0
    308    309    336    358   5     0.00000    30.33400     0.00000  0.0
    310    309    336    335   5     0.00000    30.33400     0.00000  0.0
    310    309    336    358   5     0.00000    30.33400     0.00000  0.0
    309    310    311    312   5     0.00000    30.33400     0.00000  0.0
    309    310    311    339   5     0.00000    30.33400     0.00000  0.0
    338    310    311    312   5     0.00000    30.33400     0.00000  0.0
    338    310    311    339   5     0.00000    30.33400     0.00000  0.0
    310    311    312    313   5     0.00000    30.33400     0.00000  0.0
    310    311    312    335   5     0.00000    30.33400     0.00000  0.0
    339    311    312    313   5     0.00000    30.33400     0.00000  0.0
    339    311    312    335   5     0.00000    30.33400     0.00000  0.0
    311    312    313    314   5     0.00000     8.36800     0.00000  0.0
    311    312    313    340   5     0.00000     8.36800     0.00000  0.0
    335    312    313    314   5     0.00000     8.36800     0.00000  0.0
    335    312    313    340   5     0.00000     8.36800     0.00000  0.0
    311    312    335    336   5     0.00000    30.33400     0.00000  0.0
    311    312    335    357   5     0.00000    30.33400     0.00000  0.0
    313    312    335    336   5     0.00000    30.33400     0.00000  0.0
    313    312    335    357   5     0.00000    30.33400     0.00000  0.0
    312    313    314    315   5     0.00000     8.36800     0.00000  0.0
    312    313    314    334   5     0.00000     8.36800     0.00000  0.0
    340    313    314    315   5     0.00000     8.36800     0.00000  0.0
    340    313    314    334   5     0.00000     8.36800     0.00000  0.0
    313    314    315    316   5     0.00000    30.33400     0.00000  0.0
    313    314    315    341   5     0.00000    30.33400     0.00000  0.0
    334    314    315    316   5     0.00000    30.33400     0.00000  0.0
    334    314    315    341   5     0.00000    30.33400     0.00000  0.0
    313    314    334    333   5     0.00000    30.33400     0.00000  0.0
    313    314    334    356   5     0.00000    30.33400     0.00000  0.0
    315    314    334    333   5     0.00000    30.33400     0.00000  0.0
    315    314    334    356   5     0.00000    30.33400     0.00000  0.0
    314    315    316    317   5     0.00000    30.33400     0.00000  0.0
    314    315    316    342   5     0.00000    30.33400     0.00000  0.0
    341    315    316    317   5     0.00000    30.33400     0.00000  0.0
    341    315    316    342   5     0.00000    30.33400     0.00000  0.0
    315    316    317    318   5     0.00000    30.33400     0.00000  0.0
    315    316    317    333   5     0.00000    30.33400     0.00000  0.0
    342    316    317    318   5     0.00000    30.33400     0.00000  0.0
    342    316    317    333   5     0.00000    30.33400     0.00000  0.0
    316    317    318    319   5     0.00000     8.36800     0.00000  0.0
    316    317    318    343   5     0.00000     8.36800     0.00000  0.0
    333    317    318    319   5     0.00000     8.36800     0.00000  0.0
    333    317    318    343   5     0.00000     8.36800     0.00000  0.0
    316    317    333    334   5     0.00000    30.33400     0.00000  0.0
    316    317    333    355   5     0.00000    30.33400     0.00000  0.0
    318    317    333    334   5     0.00000    30.33400     0.00000  0.0
    318    317    333    355   5     0.00000    30.33400     0.00000  0.0
    317    318    319    320   5     0.00000     8.36800     0.00000  0.0
    317    318    319    332   5     0.00000     8.36800     0.00000  0.0
    343    318    319    320   5     0.00000     8.36800     0.00000  0.0
    343    318    319    332   5     0.00000     8.36800     0.00000  0.0
    318    319    320    321   5     0.00000    30.33400     0.00000  0.0
    318    319    320    344   5     0.00000    30.33400     0.00000  0.0
    332    319    320    321   5     0.00000    30.33400     0.00000  0.0
    332    319    320    344   5     0.00000    30.33400     0.00000  0.0
    318    319    332    331   5     0.00000    30.33400     0.00000  0.0
    318    319    332    354   5     0.00000    30.33400     0.00000  0.0
    320    319    332    331   5     0.00000    30.33400     0.00000  0.0
    320    319    332    354   5     0.00000    30.33400     0.00000  0.0
    319    320    321    322   5     0.00000    30.33400     0.00000  0.0
    319    320    321    345   5     0.00000    30.33400     0.00000  0.0
    344    320    321    322   5     0.00000    30.33400     0.00000  0.0
    344    320    321    345   5     0.00000    30.33400     0.00000  0.0
    320    321    322    323   5     0.00000    30.33400     0.00000  0.0
    320    321    322    331   5     0.00000    30.33400     0.00000  0.0
    345    321    322    323   5     0.00000    30.33400     0.00000  0.0
    345    321    322    331   5     0.00000    30.33400     0.00000  0.0
    321    322    323    324   5     0.00000     8.36800     0.00000  0.0
    321    322    323    346   5     0.00000     8.36800     0.00000  0.0
    331    322    323    324   5     0.00000     8.36800     0.00000  0.0
    331    322    323    346   5     0.00000     8.36800     0.00000  0.0
    321    322    331    332   5     0.00000    30.33400     0.00000  0.0
    321    322    331    353   5     0.00000    30.33400     0.00000  0.0
    323    322    331    332   5     0.00000    30.33400     0.00000  0.0
    323    322    331    353   5     0.00000    30.33400     0.00000  0.0
    322    323    324    325   5     0.00000     8.36800     0.00000  0.0
    322    323    324    330   5     0.00000     8.36800     0.00000  0.0
    346    323    324    325   5     0.00000     8.36800     0.00000  0.0
    346    323    324    330   5     0.00000     8.36800     0.00000  0.0
    323    324    325    326   5     0.00000    30.33400     0.00000  0.0
    323    324    325    347   5     0.00000    30.33400     0.00000  0.0
    330    324    325    326   5     0.00000    30.33400     0.00000  0.0
    330    324    325    347   5     0.00000    30.33400     0.00000  0.0
    323    324    330    329   5     0.00000    30.33400     0.00000  0.0
    323    324    330    352   5     0.00000    30.33400     0.00000  0.0
    325    324    330    329   5     0.00000    30.33400     0.00000  0.0
    325    324    330    352   5     0.00000    30.33400     0.00000  0.0
    324    325    326    327   5     0.00000    30.33400     0.00000  0.0
    324    325    326    348   5     0.00000    30.33400     0.00000  0.0
    347    325    326    327   5     0.00000    30.33400     0.00000  0.0
    347    325    326    348   5     0.00000    30.33400     0.00000  0.0
    325    326    327    328   5     0.00000    30.33400     0.00000  0.0
    325    326    327    329   5     0.00000    30.33400     0.00000  0.0
    348    326    327    328   5     0.00000    30.33400     0.00000  0.0
    348    326    327    329   5     0.00000    30.33400     0.00000  0.0
    326    327    328    349   5     0.00000     0.00000     0.00000  0.0
    326    327    328    350   5     0.00000     0.00000     0.00000  0.0
    326    327    328    359   5    -0.50208     2.55224     0.76986  0.0
    329    327    328    349   5     0.00000     0.00000     0.00000  0.0
    329    327    328    350   5     0.00000     0.00000     0.00000  0.0
    329    327    328    359   5    -0.50208     2.55224     0.76986  0.0
    326    327    329    330   5     0.00000    30.33400     0.00000  0.0
    326    327    329    351   5     0.00000    30.33400     0.00000  0.0
    328    327    329    330   5     0.00000    30.33400     0.00000  0.0
    328    327    329    351   5     0.00000    30.33400     0.00000  0.0
    327    328    359    360   5    -6.88268     4.64842     3.09198  0.0
    327    328    359    388   5     0.00000     0.00000     0.00000  0.0
    349    328    359    360   5     0.00000     0.00000     0.00000  0.0
    349    328    359    388   5     0.00000     0.00000     0.00000  0.0
    350    328    359    360   5     0.00000     0.00000     0.00000  0.0
    350    328    359    388   5     0.00000     0.00000     0.00000  0.0
    327    329    330    324   5     0.00000    30.33400     0.00000  0.0
    327    329    330    352   5     0.00000    30.33400     0.00000  0.0
    351    329    330    324   5     0.00000    30.33400     0.00000  0.0
    351    329    330    352   5     0.00000    30.33400     0.00000  0.0
    322    331    332    319   5     0.00000    30.33400     0.00000  0.0
    322    331    332    354   5     0.00000    30.33400     0.00000  0.0
    353    331    332    319   5     0.00000    30.33400     0.00000  0.0
    353    331    332    354   5     0.00000    30.33400     0.00000  0.0
    317    333    334    314   5     0.00000    30.33400     0.00000  0.0
    317    333    334    356   5     0.00000    30.33400     0.00000  0.0
    355    333    334    314   5     0.00000    30.33400     0.00000  0.0
    355    333    334    356   5     0.00000    30.33400     0.00000  0.0
    312    335    336    309   5     0.00000    30.33400     0.00000  0.0
    312    335    336    358   5     0.00000    30.33400     0.00000  0.0
    357    335    336    309   5     0.00000    30.33400     0.00000  0.0
    357    335    336    358   5     0.00000    30.33400     0.00000  0.0
    328    359    360    361   5    -8.36800    10.46000     0.00000  0.0
    328    359    360    387   5    -8.36800    10.46000     0.00000  0.0
    388    359    360    361   5     0.00000     8.36800     0.00000  0.0
    388    359    360    387   5     0.00000     8.36800     0.00000  0.0
    359    360    361    362   5     0.00000    30.33400     0.00000  0.0
    359    360    361    389   5     0.00000    30.33400     0.00000  0.0
    387    360    361    362   5     0.00000    30.33400     0.00000  0.0
    387    360    361    389   5     0.00000    30.33400     0.00000  0.0
    359    360    387    386   5     0.00000    30.33400     0.00000  0.0
    359    360    387    409   5     0.00000    30.33400     0.00000  0.0
    361    360    387    386   5     0.00000    30.33400     0.00000  0.0
    361    360    387    409   5     0.00000    30.33400     0.00000  0.0
    360    361    362    363   5     0.00000    30.33400     0.00000  0.0
    360    361    362    390   5     0.00000    30.33400     0.00000  0.0
    389    361    362    363   5     0.00000    30.33400     0.00000  0.0
    389    361    362    390   5     0.00000    30.33400     0.00000  0.0
    361    362    363    364   5     0.00000    30.33400     0.00000  0.0
    361    362    363    386   5     0.00000    30.33400     0.00000  0.0
    390    362    363    364   5     0.00000    30.33400     0.00000  0.0
    390    362    363    386   5     0.00000    30.33400     0.00000  0.0
    362    363    364    365   5     0.00000     8.36800     0.00000  0.0
    362    363    364    391   5     0.00000     8.36800     0.00000  0.0
    386    363    364    365   5     0.00000     8.36800     0.00000  0.0
    386    363    364    391   5     0.00000     8.36800     0.00000  0.0
    362    363    386    387   5     0.00000    30.33400     0.00000  0.0
    362    363    386    408   5     0.00000    30.33400     0.00000  0.0
    364    363    386    387   5     0.00000    30.33400     0.00000  0.0
    364    363    386    408   5     0.00000    30.33400     0.00000  0.0
    363    364    365    366   5     0.00000     8.36800     0.00000  0.0
    363    364    365    385   5     0.00000     8.36800     0.00000  0.0
    391    364    365    366   5     0.00000     8.36800     0.00000  0.0
    391    364    365    385   5     0.00000     8.36800     0.00000  0.0
    364    365    366    367   5     0.00000    30.33400     0.00000  0.0
    364    365    366    392   5     0.00000    30.33400     0.00000  0.0
    385    365    366    367   5     0.00000    30.33400     0.00000  0.0
    385    365    366    392   5     0.00000    30.33400     0.00000  0.0
    364    365    385    384   5     0.00000    30.33400     0.00000  0.0
    364    365    385    407   5     0.00000    30.33400     0.00000  0.0
    366    365    385    384   5     0.00000    30.33400     0.00000  0.0
    366    365    385    407   5     0.00000    30.33400     0.00000  0.0
    365    366    367    368   5     0.00000    30.33400     0.00000  0.0
    365    366    367    393   5     0.00000    30.33400     0.00000  0.0
    392    366    367    368   5     0.00000    30.33400     0.00000  0.0
    392    366    367    393   5     0.00000    30.33400     0.00000  0.0
    366    367    368    369   5     0.00000    30.33400     0.00000  0.0
    366    367    368    384   5     0.00000    30.33400     0.00000  0.0
    393    367    368    369   5     0.00000    30.33400     0.00000  0.0
    393    367    368    384   5     0.00000    30.33400     0.00000  0.0
    367    368    369    370   5     0.00000     8.36800     0.00000  0.0
    367    368    369    394   5     0.00000     8.36800     0.00000  0.0
    384    368    369    370   5     0.00000     8.36800     0.00000  0.0
    384    368    369    394   5     0.00000     8.36800     0.00000  0.0
    367    368    384    385   5     0.00000    30.33400     0.00000  0.0
    367    368    384    406   5     0.00000    30.33400     0.00000  0.0
    369    368    384    385   5     0.00000    30.33400     0.00000  0.0
    369    368    384    406   5     0.00000    30.33400     0.00000  0.0
    368    369    370    371   5     0.00000     8.36800     0.00000  0.0
    368    369    370    383   5     0.00000     8.36800     0.00000  0.0
    394    369    370    371   5     0.00000     8.36800     0.00000  0.0
    394    369    370    383   5     0.00000     8.36800     0.00000  0.0
    369    370    371    372   5     0.00000    30.33400     0.00000  0.0
    369    370    371    395   5     0.00000    30.33400     0.00000  0.0
    383    370    371    372   5     0.00000    30.33400     0.00000  0.0
    383    370    371    395   5     0.00000    30.33400     0.00000  0.0
    369    370    383    382   5     0.00000    30.33400     0.00000  0.0
    369    370    383    405   5     0.00000    30.33400     0.00000  0.0
    371    370    383    382   5     0.00000    30.33400     0.00000  0.0
    371    370    383    405   5     0.00000    30.33400     0.00000  0.0
    370    371    372    373   5     0.00000    30.33400     0.00000  0.0
    370    371    372    396   5     0.00000    30.33400     0.00000  0.0
    395    371    372    373   5     0.00000    30.33400     0.00000  0.0
    395    371    372    396   5     0.00000    30.33400     0.00000  0.0
    371    372    373    374   5     0.00000    30.33400     0.00000  0.0
    371    372    373    382   5     0.00000    30.33400     0.00000  0.0
    396    372    373    374   5     0.00000    30.33400     0.00000  0.0
    396    372    373    382   5     0.00000    30.33400     0.00000  0.0
    372    373    374    375   5     0.00000     8.36800     0.00000  0.0
    372    373    374    397   5     0.00000     8.36800     0.00000  0.0
    382    373    374    375   5     0.00000     8.36800     0.00000  0.0
    382    373    374    397   5     0.00000     8.36800     0.00000  0.0
    372    373    382    383   5     0.00000    30.33400     0.00000  0.0
    372    373    382    404   5     0.00000    30.33400     0.00000  0.0
    374    373    382    383   5     0.00000    30.33400     0.00000  0.0
    374    373    382    404   5     0.00000    30.33400     0.00000  0.0
    373    374    375    376   5     0.00000     8.36800     0.00000  0.0
    373    374    375    381   5     0.00000     8.36800     0.00000  0.0
    397    374    375    376   5     0.00000     8.36800     0.00000  0.0
    397    374    375    381   5     0.00000     8.36800     0.00000  0.0
    374    375    376    377   5     0.00000    30.33400     0.00000  0.0
    374    375    376    398   5     0.00000    30.33400     0.00000  0.0
    381    375    376    377   5     0.00000    30.33400     0.00000  0.0
    381    375    376    398   5     0.00000    30.33400     0.00000  0.0
    374    375    381    380   5     0.00000    30.33400     0.00000  0.0
    374    375    381    403   5     0.00000    30.33400     0.00000  0.0
    376    375    381    380   5     0.00000    30.33400     0.00000  0.0
    376    375    381    403   5     0.00000    30.33400     0.00000  0.0
    375    376    377    378   5     0.00000    30.33400     0.00000  0.0
    375    376    377    399   5     0.00000    30.33400     0.00000  0.0
    398    376    377    378   5     0.00000    30.33400     0.00000  0.0
    398    376    377    399   5     0.00000    30.33400     0.00000  0.0
    376    377    378    379   5     0.00000    30.33400     0.00000  0.0
    376    377    378    380   5     0.00000    30.33400     0.00000  0.0
    399    377    378    379   5     0.00000    30.33400     0.00000  0.0
    399    377    378    380   5     0.00000    30.33400     0.00000  0.0
    377    378    379    400   5     0.00000     0.00000     0.00000  0.0
    377    378    379    401   5     0.00000     0.00000     0.00000  0.0
    377    378    379    410   5    -0.50208     2.55224     0.76986  0.0
    380    378    379    400   5     0.00000     0.00000     0.00000  0.0
    380    378    379    401   5     0.00000     0.00000     0.00000  0.0
    380    378    379    410   5    -0.50208     2.55224     0.76986  0.0
    377    378    380    381   5     0.00000    30.33400     0.00000  0.0
    377    378    380    402   5     0.00000    30.33400     0.00000  0.0
    379    378    380    381   5     0.00000    30.33400     0.00000  0.0
    379    378    380    402   5     0.00000    30.33400     0.00000  0.0
    378    379    410    411   5    -6.88268     4.64842     3.09198  0.0
    378    379    410    439   5     0.00000     0.00000     0.00000  0.0
    400    379    410    411   5     0.00000     0.00000     0.00000  0.0
    400    379    410    439   5     0.00000     0.00000     0.00000  0.0
    401    379    410    411   5     0.00000     0.00000     0.00000  0.0
    401    379    410    439   5     0.00000     0.00000     0.00000  0.0
    378    380    381    375   5     0.00000    30.33400     0.00000  0.0
    378    380    381    403   5     0.00000    30.33400     0.00000  0.0
    402    380    381    375   5     0.00000    30.33400     0.00000  0.0
    402    380    381    403   5     0.00000    30.33400     0.00000  0.0
    373    382    383    370   5     0.00000    30.33400     0.00000  0.0
    373    382    383    405   5     0.00000    30.33400     0.00000  0.0
    404    382    383    370   5     0.00000    30.33400     0.00000  0.0
    404    382    383    405   5     0.00000    30.33400     0.00000  0.0
    368    384    385    365   5     0.00000    30.33400     0.00000  0.0
    368    384    385    407   5     0.00000    30.33400     0.00000  0.0
    406    384    385    365   5     0.00000    30.33400     0.00000  0.0
    406    384    385    407   5     0.00000    30.33400     0.00000  0.0
    363    386    387    360   5     0.00000    30.33400     0.00000  0.0
    363    386    387    409   5     0.00000    30.33400     0.00000  0.0
    408    386    387    360   5     0.00000    30.33400     0.00000  0.0
    408    386    387    409   5     0.00000    30.33400     0.00000  0.0
    379    410    411    412   5    -8.36800    10.46000     0.00000  0.0
    379    410    411    438   5    -8.36800    10.46000     0.00000  0.0
    439    410    411    412   5     0.00000     8.36800     0.00000  0.0
    439    410    411    438   5     0.00000     8.36800     0.00000  0.0
    410    411    412    413   5     0.00000    30.33400     0.00000  0.0
    410    411    412    440   5     0.00000    30.33400     0.00000  0.0
    438    411    412    413   5     0.00000    30.33400     0.00000  0.0
    438    411    412    440   5     0.00000    30.33400     0.00000  0.0
    410    411    438    437   5     0.00000    30.33400     0.00000  0.0
    410    411    438    460   5     0.00000    30.33400     0.00000  0.0
    412    411    438    437   5     0.00000    30.33400     0.00000  0.0
    412    411    438    460   5     0.00000    30.33400     0.00000  0.0
    411    412    413    414   5     0.00000    30.33400     0.00000  0.0
    411    412    413    441   5     0.00000    30.33400     0.00000  0.0
    440    412    413    414   5     0.00000    30.33400     0.00000  0.0
    440    412    413    441   5     0.00000    30.33400     0.00000  0.0
    412    413    414    415   5     0.00000    30.33400     0.00000  0.0
    412    413    414    437   5     0.00000    30.33400     0.00000  0.0
    441    413    414    415   5     0.00000    30.33400     0.00000  0.0
    441    413    414    437   5     0.00000    30.33400     0.00000  0.0
    413    414    415    416   5     0.00000     8.36800     0.00000  0.0
    413    414    415    442   5     0.00000     8.36800     0.00000  0.0
    437    414    415    416   5     0.00000     8.36800     0.00000  0.0
    437    414    415    442   5     0.00000     8.36800     0.00000  0.0
    413    414    437    438   5     0.00000    30.33400     0.00000  0.0
    413    414    437    459   5     0.00000    30.33400     0.00000  0.0
    415    414    437    438   5     0.00000    30.33400     0.00000  0.0
    415    414    437    459   5     0.00000    30.33400     0.00000  0.0
    414    415    416    417   5     0.00000     8.36800     0.00000  0.0
    414    415    416    436   5     0.00000     8.36800     0.00000  0.0
    442    415    416    417   5     0.00000     8.36800     0.00000  0.0
    442    415    416    436   5     0.00000     8.36800     0.00000  0.0
    415    416    417    418   5     0.00000    30.33400     0.00000  0.0
    415    416    417    443   5     0.00000    30.33400     0.00000  0.0
    436    416    417    418   5     0.00000    30.33400     0.00000  0.0
    436    416    417    443   5     0.00000    30.33400     0.00000  0.0
    415    416    436    435   5     0.00000    30.33400     0.00000  0.0
    415    416    436    458   5     0.00000    30.33400     0.00000  0.0
    417    416    436    435   5     0.00000    30.33400     0.00000  0.0
    417    416    436    458   5     0.00000    30.33400     0.00000  0.0
    416    417    418    419   5     0.00000    30.33400     0.00000  0.0
    416    417    418    444   5     0.00000    30.33400     0.00000  0.0
    443    417    418    419   5     0.00000    30.33400     0.00000  0.0
    443    417    418    444   5     0.00000    30.33400     0.00000  0.0
    417    418    419    420   5     0.00000    30.33400     0.00000  0.0
    417    418    419    435   5     0.00000    30.33400     0.00000  0.0
    444    418    419    420   5     0.00000    30.33400     0.00000  0.0
    444    418    419    435   5     0.00000    30.33400     0.00000  0.0
    418    419    420    421   5     0.00000     8.36800     0.00000  0.0
    418    419    420    445   5     0.00000     8.36800     0.00000  0.0
    435    419    420    421   5     0.00000     8.36800     0.00000  0.0
    435    419    420    445   5     0.00000     8.36800     0.00000  0.0
    418    419    435    436   5     0.00000    30.33400     0.00000  0.0
    418    419    435    457   5     0.00000    30.33400     0.00000  0.0
    420    419    435    436   5     0.00000    30.33400     0.00000  0.0
    420    419    435    457   5     0.00000    30.33400     0.00000  0.0
    419    420    421    422   5     0.00000     8.36800     0.00000  0.0
    419    420    421    434   5     0.00000     8.36800     0.00000  0.0
    445    420    421    422   5     0.00000     8.36800     0.00000  0.0
    445    420    421    434   5     0.00000     8.36800     0.00000  0.0
    420    421    422    423   5     0.00000    30.33400     0.00000  0.0
    420    421    422    446   5     0.00000    30.33400     0.00000  0.0
    434    421    422    423   5     0.00000    30.33400     0.00000  0.0
    434    421    422    446   5     0.00000    30.33400     0.00000  0.0
    420    421    434    433   5     0.00000    30.33400     0.00000  0.0
    420    421    434    456   5     0.00000    30.33400     0.00000  0.0
    422    421    434    433   5     0.00000    30.33400     0.00000  0.0
    422    421    434    456   5     0.00000    30.33400     0.00000  0.0
    421    422    423    424   5     0.00000    30.33400     0.00000  0.0
    421    422    423    447   5     0.00000    30.33400     0.00000  0.0
    446    422    423    424   5     0.00000    30.33400     0.00000  0.0
    446    422    423    447   5     0.00000    30.33400     0.00000  0.0
    422    423    424    425   5     0.00000    30.33400     0.00000  0.0
    422    423    424    433   5     0.00000    30.33400     0.00000  0.0
    447    423    424    425   5     0.00000    30.33400     0.00000  0.0
    447    423    424    433   5     0.00000    30.33400     0.00000  0.0
    423    424    425    426   5     0.00000     8.36800     0.00000  0.0
    423    424    425    448   5     0.00000     8.36800     0.00000  0.0
    433    424    425    426   5     0.00000     8.36800     0.00000  0.0
    433    424    425    448   5     0.00000     8.36800     0.00000  0.0
    423    424    433    434   5     0.00000    30.33400     0.00000  0.0
    423    424    433    455   5     0.00000    30.33400     0.00000  0.0
    425    424    433    434   5     0.00000    30.33400     0.00000  0.0
    425    424    433    455   5     0.00000    30.33400     0.00000  0.0
    424    425    426    427   5     0.00000     8.36800     0.00000  0.0
    424    425    426    432   5     0.00000     8.36800     0.00000  0.0
    448    425    426    427   5     0.00000     8.36800     0.00000  0.0
    448    425    426    432   5     0.00000     8.36800     0.00000  0.0
    425    426    427    428   5     0.00000    30.33400     0.00000  0.0
    425    426    427    449   5     0.00000    30.33400     0.00000  0.0
    432    426    427    428   5     0.00000    30.33400     0.00000  0.0
    432    426    427    449   5     0.00000    30.33400     0.00000  0.0
    425    426    432    431   5     0.00000    30.33400     0.00000  0.0
    425    426    432    454   5     0.00000    30.33400     0.00000  0.0
    427    426    432    431   5     0.00000    30.33400     0.00000  0.0
    427    426    432    454   5     0.00000    30.33400     0.00000  0.0
    426    427    428    429   5     0.00000    30.33400     0.00000  0.0
    426    427    428    450   5     0.00000    30.33400     0.00000  0.0
    449    427    428    429   5     0.00000    30.33400     0.00000  0.0
    449    427    428    450   5     0.00000    30.33400     0.00000  0.0
    427    428    429    430   5     0.00000    30.33400     0.00000  0.0
    427    428    429    431   5     0.00000    30.33400     0.00000  0.0
    450    428    429    430   5     0.00000    30.33400     0.00000  0.0
    450    428    429    431   5     0.00000    30.33400     0.00000  0.0
    428    429    430    451   5     0.00000     0.00000     0.00000  0.0
    428    429    430    452   5     0.00000     0.00000     0.00000  0.0
    428    429    430    461   5    -0.50208     2.55224     0.76986  0.0
    431    429    430    451   5     0.00000     0.00000     0.00000  0.0
    431    429    430    452   5     0.00000     0.00000     0.00000  0.0
    431    429    430    461   5    -0.50208     2.55224     0.76986  0.0
    428    429    431    432   5     0.00000    30.33400     0.00000  0.0
    428    429    431    453   5     0.00000    30.33400     0.00000  0.0
    430    429    431    432   5     0.00000    30.33400     0.00000  0.0
    430    429    431    453   5     0.00000    30.33400     0.00000  0.0
    429    430    461    462   5    -6.88268     4.64842     3.09198  0.0
    429    430    461    490   5     0.00000     0.00000     0.00000  0.0
    451    430    461    462   5     0.00000     0.00000     0.00000  0.0
    451    430    461    490   5     0.00000     0.00000     0.00000  0.0
    452    430    461    462   5     0.00000     0.00000     0.00000  0.0
    452    430    461    490   5     0.00000     0.00000     0.00000  0.0
    429    431    432    426   5     0.00000    30.33400     0.00000  0.0
    429    431    432    454   5     0.00000    30.33400     0.00000  0.0
    453    431    432    426   5     0.00000    30.33400     0.00000  0.0
    453    431    432    454   5     0.00000    30.33400     0.00000  0.0
    424    433    434    421   5     0.00000    30.33400     0.00000  0.0
    424    433    434    456   5     0.00000    30.33400     0.00000  0.0
    455    433    434    421   5     0.00000    30.33400     0.00000  0.0
    455    433    434    456   5     0.00000    30.33400     0.00000  0.0
    419    435    436    416   5     0.00000    30.33400     0.00000  0.0
    419    435    436    458   5     0.00000    30.33400     0.00000  0.0
    457    435    436    416   5     0.00000    30.33400     0.00000  0.0
    457    435    436    458   5     0.00000    30.33400     0.00000  0.0
    414    437    438    411   5     0.00000    30.33400     0.00000  0.0
    414    437    438    460   5     0.00000    30.33400     0.00000  0.0
    459    437    438    411   5     0.00000    30.33400     0.00000  0.0
    459    437    438    460   5     0.00000    30.33400     0.00000  0.0
    430    461    462    463   5    -8.36800    10.46000     0.00000  0.0
    430    461    462    489   5    -8.36800    10.46000     0.00000  0.0
    490    461    462    463   5     0.00000     8.36800     0.00000  0.0
    490    461    462    489   5     0.00000     8.36800     0.00000  0.0
    461    462    463    464   5     0.00000    30.33400     0.00000  0.0
    461    462    463    491   5     0.00000    30.33400     0.00000  0.0
    489    462    463    464   5     0.00000    30.33400     0.00000  0.0
    489    462    463    491   5     0.00000    30.33400     0.00000  0.0
    461    462    489    488   5     0.00000    30.33400     0.00000  0.0
    461    462    489    511   5     0.00000    30.33400     0.00000  0.0
    463    462    489    488   5     0.00000    30.33400     0.00000  0.0
    463    462    489    511   5     0.00000    30.33400     0.00000  0.0
    462    463    464    465   5     0.00000    30.33400     0.00000  0.0
    462    463    464    492   5     0.00000    30.33400     0.00000  0.0
    491    463    464    465   5     0.00000    30.33400     0.00000  0.0
    491    463    464    492   5     0.00000    30.33400     0.00000  0.0
    463    464    465    466   5     0.00000    30.33400     0.00000  0.0
    463    464    465    488   5     0.00000    30.33400     0.00000  0.0
    492    464    465    466   5     0.00000    30.33400     0.00000  0.0
    492    464    465    488   5     0.00000    30.33400     0.00000  0.0
    464    465    466    467   5     0.00000     8.36800     0.00000  0.0
    464    465    466    493   5     0.00000     8.36800     0.00000  0.0
    488    465    466    467   5     0.00000     8.36800     0.00000  0.0
    488    465    466    493   5     0.00000     8.36800     0.00000  0.0
    464    465    488    489   5     0.00000    30.33400     0.00000  0.0
    464    465    488    510   5     0.00000    30.33400     0.00000  0.0
    466    465    488    489   5     0.00000    30.33400     0.00000  0.0
    466    465    488    510   5     0.00000    30.33400     0.00000  0.0
    465    466    467    468   5     0.00000     8.36800     0.00000  0.0
    465    466    467    487   5     0.00000     8.36800     0.00000  0.0
    493    466    467    468   5     0.00000     8.36800     0.00000  0.0
    493    466    467    487   5     0.00000     8.36800     0.00000  0.0
    466    467    468    469   5     0.00000    30.33400     0.00000  0.0
    466    467    468    494   5     0.00000    30.33400     0.00000  0.0
    487    467    468    469   5     0.00000    30.33400     0.00000  0.0
    487    467    468    494   5     0.00000    30.33400     0.00000  0.0
    466    467    487    486   5     0.00000    30.33400     0.00000  0.0
    466    467    487    509   5     0.00000    30.33400     0.00000  0.0
    468    467    487    486   5     0.00000    30.33400     0.00000  0.0
    468    467    487    509   5     0.00000    30.33400     0.00000  0.0
    467    468    469    470   5     0.00000    30.33400     0.00000  0.0
    467    468    469    495   5     0.00000    30.33400     0.00000  0.0
    494    468    469    470   5     0.00000    30.33400     0.00000  0.0
    494    468    469    495   5     0.00000    30.33400     0.00000  0.0
    468    469    470    471   5     0.00000    30.33400     0.00000  0.0
    468    469    470    486   5     0.00000    30.33400     0.00000  0.0
    495    469    470    471   5     0.00000    30.33400     0.00000  0.0
    495    469    470    486   5     0.00000    30.33400     0.00000  0.0
    469    470    471    472   5     0.00000     8.36800     0.00000  0.0
    469    470    471    496   5     0.00000     8.36800     0.00000  0.0
    486    470    471    472   5     0.00000     8.36800     0.00000  0.0
    486    470    471    496   5     0.00000     8.36800     0.00000  0.0
    469    470    486    487   5     0.00000    30.33400     0.00000  0.0
    469    470    486    508   5     0.00000    30.33400     0.00000  0.0
    471    470    486    487   5     0.00000    30.33400     0.00000  0.0
    471    470    486    508   5     0.00000    30.33400     0.00000  0.0
    470    471    472    473   5     0.00000     8.36800     0.00000  0.0
    470    471    472    485   5     0.00000     8.36800     0.00000  0.0
    496    471    472    473   5     0.00000     8.36800     0.00000  0.0
    496    471    472    485   5     0.00000     8.36800     0.00000  0.0
    471    472    473    474   5     0.00000    30.33400     0.00000  0.0
    471    472    473    497   5     0.00000    30.33400     0.00000  0.0
    485    472    473    474   5     0.00000    30.33400     0.00000  0.0
    485    472    473    497   5     0.00000    30.33400     0.00000  0.0
    471    472    485    484   5     0.00000    30.33400     0.00000  0.0
    471    472    485    507   5     0.00000    30.33400     0.00000  0.0
    473    472    485    484   5     0.00000    30.33400     0.00000  0.0
    473    472    485    507   5     0.00000    30.33400     0.00000  0.0
    472    473    474    475   5     0.00000    30.33400     0.00000  0.0
    472    473    474    498   5     0.00000    30.33400     0.00000  0.0
    497    473    474    475   5     0.00000    30.33400     0.00000  0.0
    497    473    474    498   5     0.00000    30.33400     0.00000  0.0
    473    474    475    476   5     0.00000    30.33400     0.00000  0.0
    473    474    475    484   5     0.00000    30.33400     0.00000  0.0
    498    474    475    476   5     0.00000    30.33400     0.00000  0.0
    498    474    475    484   5     0.00000    30.33400     0.00000  0.0
    474    475    476    477   5     0.00000     8.36800     0.00000  0.0
    474    475    476    499   5     0.00000     8.36800     0.00000  0.0
    484    475    476    477   5     0.00000     8.36800     0.00000  0.0
    484    475    476    499   5     0.00000     8.36800     0.00000  0.0
    474    475    484    485   5     0.00000    30.33400     0.00000  0.0
    474    475    484    506   5     0.00000    30.33400     0.00000  0.0
    476    475    484    485   5     0.00000    30.33400     0.00000  0.0
    476    475    484    506   5     0.00000    30.33400     0.00000  0.0
    475    476    477    478   5     0.00000     8.36800     0.00000  0.0
    475    476    477    483   5     0.00000     8.36800     0.00000  0.0
    499    476    477    478   5     0.00000     8.36800     0.00000  0.0
    499    476    477    483   5     0.00000     8.36800     0.00000  0.0
    476    477    478    479   5     0.00000    30.33400     0.00000  0.0
    476    477    478    500   5     0.00000    30.33400     0.00000  0.0
    483    477    478    479   5     0.00000    30.33400     0.00000  0.0
    483    477    478    500   5     0.00000    30.33400     0.00000  0.0
    476    477    483    482   5     0.00000    30.33400     0.00000  0.0
    476    477    483    505   5     0.00000    30.33400     0.00000  0.0
    478    477    483    482   5     0.00000    30.33400     0.00000  0.0
    478    477    483    505   5     0.00000    30.33400     0.00000  0.0
    477    478    479    480   5     0.00000    30.33400     0.00000  0.0
    477    478    479    501   5     0.00000    30.33400     0.00000  0.0
    500    478    479    480   5     0.00000    30.33400     0.00000  0.0
    500    478    479    501   5     0.00000    30.33400     0.00000  0.0
    478    479    480    481   5     0.00000    30.33400     0.00000  0.0
    478    479    480    482   5     0.00000    30.33400     0.00000  0.0
    501    479    480    481   5     0.00000    30.33400     0.00000  0.0
    501    479    480    482   5     0.00000    30.33400     0.00000  0.0
    479    480    481    502   5     0.00000     0.00000     0.00000  0.0
    479    480    481    503   5     0.00000     0.00000     0.00000  0.0
    479    480    481    512   5    -0.50208     2.55224     0.76986  0.0
    482    480    481    502   5     0.00000     0.00000     0.00000  0.0
    482    480    481    503   5     0.00000     0.00000     0.00000  0.0
    482    480    481    512   5    -0.50208     2.55224     0.76986  0.0
    479    480    482    483   5     0.00000    30.33400     0.00000  0.0
    479    480    482    504   5     0.00000    30.33400     0.00000  0.0
    481    480    482    483   5     0.00000    30.33400     0.00000  0.0
    481    480    482    504   5     0.00000    30.33400     0.00000  0.0
    480    481    512    513   5    -6.88268     4.64842     3.09198  0.0
    480    481    512    541   5     0.00000     0.00000     0.00000  0.0
    502    481    512    513   5     0.00000     0.00000     0.00000  0.0
    502    481    512    541   5     0.00000     0.00000     0.00000  0.0
    503    481    512    513   5     0.00000     0.00000     0.00000  0.0
    503    481    512    541   5     0.00000     0.00000     0.00000  0.0
    480    482    483    477   5     0.00000    30.33400     0.00000  0.0
    480    482    483    505   5     0.00000    30.33400     0.00000  0.0
    504    482    483    477   5     0.00000    30.33400     0.00000  0.0
    504    482    483    505   5     0.00000    30.33400     0.00000  0.0
    475    484    485    472   5     0.00000    30.33400     0.00000  0.0
    475    484    485    507   5     0.00000    30.33400     0.00000  0.0
    506    484    485    472   5     0.00000    30.33400     0.00000  0.0
    506    484    485    507   5     0.00000    30.33400     0.00000  0.0
    470    486    487    467   5     0.00000    30.33400     0.00000  0.0
    470    486    487    509   5     0.00000    30.33400     0.00000  0.0
    508    486    487    467   5     0.00000    30.33400     0.00000  0.0
    508    486    487    509   5     0.00000    30.33400     0.00000  0.0
    465    488    489    462   5     0.00000    30.33400     0.00000  0.0
    465    488    489    511   5     0.00000    30.33400     0.00000  0.0
    510    488    489    462   5     0.00000    30.33400     0.00000  0.0
    510    488    489    511   5     0.00000    30.33400     0.00000  0.0
    481    512    513    514   5    -8.36800    10.46000     0.00000  0.0
    481    512    513    540   5    -8.36800    10.46000     0.00000  0.0
    541    512    513    514   5     0.00000     8.36800     0.00000  0.0
    541    512    513    540   5     0.00000     8.36800     0.00000  0.0
    512    513    514    515   5     0.00000    30.33400     0.00000  0.0
    512    513    514    542   5     0.00000    30.33400     0.00000  0.0
    540    513    514    515   5     0.00000    30.33400     0.00000  0.0
    540    513    514    542   5     0.00000    30.33400     0.00000  0.0
    512    513    540    539   5     0.00000    30.33400     0.00000  0.0
    512    513    540    562   5     0.00000    30.33400     0.00000  0.0
    514    513    540    539   5     0.00000    30.33400     0.00000  0.0
    514    513    540    562   5     0.00000    30.33400     0.00000  0.0
    513    514    515    516   5     0.00000    30.33400     0.00000  0.0
    513    514    515    543   5     0.00000    30.33400     0.00000  0.0
    542    514    515    516   5     0.00000    30.33400     0.00000  0.0
    542    514    515    543   5     0.00000    30.33400     0.00000  0.0
    514    515    516    517   5     0.00000    30.33400     0.00000  0.0
    514    515    516    539   5     0.00000    30.33400     0.00000  0.0
    543    515    516    517   5     0.00000    30.33400     0.00000  0.0
    543    515    516    539   5     0.00000    30.33400     0.00000  0.0
    515    516    517    518   5     0.00000     8.36800     0.00000  0.0
    515    516    517    544   5     0.00000     8.36800     0.00000  0.0
    539    516    517    518   5     0.00000     8.36800     0.00000  0.0
    539    516    517    544   5     0.00000     8.36800     0.00000  0.0
    515    516    539    540   5     0.00000    30.33400     0.00000  0.0
    515    516    539    561   5     0.00000    30.33400     0.00000  0.0
    517    516    539    540   5     0.00000    30.33400     0.00000  0.0
    517    516    539    561   5     0.00000    30.33400     0.00000  0.0
    516    517    518    519   5     0.00000     8.36800     0.00000  0.0
    516    517    518    538   5     0.00000     8.36800     0.00000  0.0
    544    517    518    519   5     0.00000     8.36800     0.00000  0.0
    544    517    518    538   5     0.00000     8.36800     0.00000  0.0
    517    518    519    520   5     0.00000    30.33400     0.00000  0.0
    517    518    519    545   5     0.00000    30.33400     0.00000  0.0
    538    518    519    520   5     0.00000    30.33400     0.00000  0.0
    538    518    519    545   5     0.00000    30.33400     0.00000  0.0
    517    518    538    537   5     0.00000    30.33400     0.00000  0.0
    517    518    538    560   5     0.00000    30.33400     0.00000  0.0
    519    518    538    537   5     0.00000    30.33400     0.00000  0.0
    519    518    538    560   5     0.00000    30.33400     0.00000  0.0
    518    519    520    521   5     0.00000    30.33400     0.00000  0.0
    518    519    520    546   5     0.00000    30.33400     0.00000  0.0
    545    519    520    521   5     0.00000    30.33400     0.00000  0.0
    545    519    520    546   5     0.00000    30.33400     0.00000  0.0
    519    520    521    522   5     0.00000    30.33400     0.00000  0.0
    519    520    521    537   5     0.00000    30.33400     0.00000  0.0
    546    520    521    522   5     0.00000    30.33400     0.00000  0.0
    546    520    521    537   5     0.00000    30.33400     0.00000  0.0
    520    521    522    523   5     0.00000     8.36800     0.00000  0.0
    520    521    522    547   5     0.00000     8.36800     0.00000  0.0
    537    521    522    523   5     0.00000     8.36800     0.00000  0.0
    537    521    522    547   5     0.00000     8.36800     0.00000  0.0
    520    521    537    538   5     0.00000    30.33400     0.00000  0.0
    520    521    537    559   5     0.00000    30.33400     0.00000  0.0
    522    521    537    538   5     0.00000    30.33400     0.00000  0.0
    522    521    537    559   5     0.00000    30.33400     0.00000  0.0
    521    522    523    524   5     0.00000     8.36800     0.00000  0.0
    521    522    523    536   5     0.00000     8.36800     0.00000  0.0
    547    522    523    524   5     0.00000     8.36800     0.00000  0.0
    547    522    523    536   5     0.00000     8.36800     0.00000  0.0
    522    523    524    525   5     0.00000    30.33400     0.00000  0.0
    522    523    524    548   5     0.00000    30.33400     0.00000  0.0
    536    523    524    525   5     0.00000    30.33400     0.00000  0.0
    536    523    524    548   5     0.00000    30.33400     0.00000  0.0
    522    523    536    535   5     0.00000    30.33400     0.00000  0.0
    522    523    536    558   5     0.00000    30.33400     0.00000  0.0
    524    523    536    535   5     0.00000    30.33400     0.00000  0.0
    524    523    536    558   5     0.00000    30.33400     0.00000  0.0
    523    524    525    526   5     0.00000    30.33400     0.00000  0.0
    523    524    525    549   5     0.00000    30.33400     0.00000  0.0
    548    524    525    526   5     0.00000    30.33400     0.00000  0.0
    548    524    525    549   5     0.00000    30.33400     0.00000  0.0
    524    525    526    527   5     0.00000    30.33400     0.00000  0.0
    524    525    526    535   5     0.00000    30.33400     0.00000  0.0
    549    525    526    527   5     0.00000    30.33400     0.00000  0.0
    549    525    526    535   5     0.00000    30.33400     0.00000  0.0
    525    526    527    528   5     0.00000     8.36800     0.00000  0.0
    525    526    527    550   5     0.00000     8.36800     0.00000  0.0
    535    526    527    528   5     0.00000     8.36800     0.00000  0.0
    535    526    527    550   5     0.00000     8.36800     0.00000  0.0
    525    526    535    536   5     0.00000    30.33400     0.00000  0.0
    525    526    535    557   5     0.00000    30.33400     0.00000  0.0
    527    526    535    536   5     0.00000    30.33400     0.00000  0.0
    527    526    535    557   5     0.00000    30.33400     0.00000  0.0
    526    527    528    529   5     0.00000     8.36800     0.00000  0.0
    526    527    528    534   5     0.00000     8.36800     0.00000  0.0
    550    527    528    529   5     0.00000     8.36800     0.00000  0.0
    550    527    528    534   5     0.00000     8.36800     0.00000  0.0
    527    528    529    530   5     0.00000    30.33400     0.00000  0.0
    527    528    529    551   5     0.00000    30.33400     0.00000  0.0
    534    528    529    530   5     0.00000    30.33400     0.00000  0.0
    534    528    529    551   5     0.00000    30.33400     0.00000  0.0
    527    528    534    533   5     0.00000    30.33400     0.00000  0.0
    527    528    534    556   5     0.00000    30.33400     0.00000  0.0
    529    528    534    533   5     0.00000    30.33400     0.00000  0.0
    529    528    534    556   5     0.00000    30.33400     0.00000  0.0
    528    529    530    531   5     0.00000    30.33400     0.00000  0.0
    528    529    530    552   5     0.00000    30.33400     0.00000  0.0
    551    529    530    531   5     0.00000    30.33400     0.00000  0.0
    551    529    530    552   5     0.00000    30.33400     0.00000  0.0
    529    530    531    532   5     0.00000    30.33400     0.00000  0.0
    529    530    531    533   5     0.00000    30.33400     0.00000  0.0
    552    530    531    532   5     0.00000    30.33400     0.00000  0.0
    552    530    531    533   5     0.00000    30.33400     0.00000  0.0
    530    531    532    553   5     0.00000     0.00000     0.00000  0.0
    530    531    532    554   5     0.00000     0.00000     0.00000  0.0
    530    531    532    563   5    -0.50208     2.55224     0.76986  0.0
    533    531    532    553   5     0.00000     0.00000     0.00000  0.0
    533    531    532    554   5     0.00000     0.00000     0.00000  0.0
    533    531    532    563   5    -0.50208     2.55224     0.76986  0.0
    530    531    533    534   5     0.00000    30.33400     0.00000  0.0
    530    531    533    555   5     0.00000    30.33400     0.00000  0.0
    532    531    533    534   5     0.00000    30.33400     0.00000  0.0
    532    531    533    555   5     0.00000    30.33400     0.00000  0.0
    531    532    563    564   5    -6.88268     4.64842     3.09198  0.0
    531    532    563    592   5     0.00000     0.00000     0.00000  0.0
    553    532    563    564   5     0.00000     0.00000     0.00000  0.0
    553    532    563    592   5     0.00000     0.00000     0.00000  0.0
    554    532    563    564   5     0.00000     0.00000     0.00000  0.0
    554    532    563    592   5     0.00000     0.00000     0.00000  0.0
    531    533    534    528   5     0.00000    30.33400     0.00000  0.0
    531    533    534    556   5     0.00000    30.33400     0.00000  0.0
    555    533    534    528   5     0.00000    30.33400     0.00000  0.0
    555    533    534    556   5     0.00000    30.33400     0.00000  0.0
    526    535    536    523   5     0.00000    30.33400     0.00000  0.0
    526    535    536    558   5     0.00000    30.33400     0.00000  0.0
    557    535    536    523   5     0.00000    30.33400     0.00000  0.0
    557    535    536    558   5     0.00000    30.33400     0.00000  0.0
    521    537    538    518   5     0.00000    30.33400     0.00000  0.0
    521    537    538    560   5     0.00000    30.33400     0.00000  0.0
    559    537    538    518   5     0.00000    30.33400     0.00000  0.0
    559    537    538    560   5     0.00000    30.33400     0.00000  0.0
    516    539    540    513   5     0.00000    30.33400     0.00000  0.0
    516    539    540    562   5     0.00000    30.33400     0.00000  0.0
    561    539    540    513   5     0.00000    30.33400     0.00000  0.0
    561    539    540    562   5     0.00000    30.33400     0.00000  0.0
    532    563    564    565   5    -8.36800    10.46000     0.00000  0.0
    532    563    564    591   5    -8.36800    10.46000     0.00000  0.0
    592    563    564    565   5     0.00000     8.36800     0.00000  0.0
    592    563    564    591   5     0.00000     8.36800     0.00000  0.0
    563    564    565    566   5     0.00000    30.33400     0.00000  0.0
    563    564    565    593   5     0.00000    30.33400     0.00000  0.0
    591    564    565    566   5     0.00000    30.33400     0.00000  0.0
    591    564    565    593   5     0.00000    30.33400     0.00000  0.0
    563    564    591    590   5     0.00000    30.33400     0.00000  0.0
    563    564    591    613   5     0.00000    30.33400     0.00000  0.0
    565    564    591    590   5     0.00000    30.33400     0.00000  0.0
    565    564    591    613   5     0.00000    30.33400     0.00000  0.0
    564    565    566    567   5     0.00000    30.33400     0.00000  0.0
    564    565    566    594   5     0.00000    30.33400     0.00000  0.0
    593    565    566    567   5     0.00000    30.33400     0.00000  0.0
    593    565    566    594   5     0.00000    30.33400     0.00000  0.0
    565    566    567    568   5     0.00000    30.33400     0.00000  0.0
    565    566    567    590   5     0.00000    30.33400     0.00000  0.0
    594    566    567    568   5     0.00000    30.33400     0.00000  0.0
    594    566    567    590   5     0.00000    30.33400     0.00000  0.0
    566    567    568    569   5     0.00000     8.36800     0.00000  0.0
    566    567    568    595   5     0.00000     8.36800     0.00000  0.0
    590    567    568    569   5     0.00000     8.36800     0.00000  0.0
    590    567    568    595   5     0.00000     8.36800     0.00000  0.0
    566    567    590    591   5     0.00000    30.33400     0.00000  0.0
    566    567    590    612   5     0.00000    30.33400     0.00000  0.0
    568    567    590    591   5     0.00000    30.33400     0.00000  0.0
    568    567    590    612   5     0.00000    30.33400     0.00000  0.0
    567    568    569    570   5     0.00000     8.36800     0.00000  0.0
    567    568    569    589   5     0.00000     8.36800     0.00000  0.0
    595    568    569    570   5     0.00000     8.36800     0.00000  0.0
    595    568    569    589   5     0.00000     8.36800     0.00000  0.0
    568    569    570    571   5     0.00000    30.33400     0.00000  0.0
    568    569    570    596   5     0.00000    30.33400     0.00000  0.0
    589    569    570    571   5     0.00000    30.33400     0.00000  0.0
    589    569    570    596   5     0.00000    30.33400     0.00000  0.0
    568    569    589    588   5     0.00000    30.33400     0.00000  0.0
    568    569    589    611   5     0.00000    30.33400     0.00000  0.0
    570    569    589    588   5     0.00000    30.33400     0.00000  0.0
    570    569    589    611   5     0.00000    30.33400     0.00000  0.0
    569    570    571    572   5     0.00000    30.33400     0.00000  0.0
    569    570    571    597   5     0.00000    30.33400     0.00000  0.0
    596    570    571    572   5     0.00000    30.33400     0.00000  0.0
    596    570    571    597   5     0.00000    30.33400     0.00000  0.0
    570    571    572    573   5     0.00000    30.33400     0.00000  0.0
    570    571    572    588   5     0.00000    30.33400     0.00000  0.0
    597    571    572    573   5     0.00000    30.33400     0.00000  0.0
    597    571    572    588   5     0.00000    30.33400     0.00000  0.0
    571    572    573    574   5     0.00000     8.36800     0.00000  0.0
    571    572    573    598   5     0.00000     8.36800     0.00000  0.0
    588    572    573    574   5     0.00000     8.36800     0.00000  0.0
    588    572    573    598   5     0.00000     8.36800     0.00000  0.0
    571    572    588    589   5     0.00000    30.33400     0.00000  0.0
    571    572    588    610   5     0.00000    30.33400     0.00000  0.0
    573    572    588    589   5     0.00000    30.33400     0.00000  0.0
    573    572    588    610   5     0.00000    30.33400     0.00000  0.0
    572    573    574    575   5     0.00000     8.36800     0.00000  0.0
    572    573    574    587   5     0.00000     8.36800     0.00000  0.0
    598    573    574    575   5     0.00000     8.36800     0.00000  0.0
    598    573    574    587   5     0.00000     8.36800     0.00000  0.0
    573    574    575    576   5     0.00000    30.33400     0.00000  0.0
    573    574    575    599   5     0.00000    30.33400     0.00000  0.0
    587    574    575    576   5     0.00000    30.33400     0.00000  0.0
    587    574    575    599   5     0.00000    30.33400     0.00000  0.0
    573    574    587    586   5     0.00000    30.33400     0.00000  0.0
    573    574    587    609   5     0.00000    30.33400     0.00000  0.0
    575    574    587    586   5     0.00000    30.33400     0.00000  0.0
    575    574    587    609   5     0.00000    30.33400     0.00000  0.0
    574    575    576    577   5     0.00000    30.33400     0.00000  0.0
    574    575    576    600   5     0.00000    30.33400     0.00000  0.0
    599    575    576    577   5     0.00000    30.33400     0.00000  0.0
    599    575    576    600   5     0.00000    30.33400     0.00000  0.0
    575    576    577    578   5     0.00000    30.33400     0.00000  0.0
    575    576    577    586   5     0.00000    30.33400     0.00000  0.0
    600    576    577    578   5     0.00000    30.33400     0.00000  0.0
    600    576    577    586   5     0.00000    30.33400     0.00000  0.0
    576    577    578    579   5     0.00000     8.36800     0.00000  0.0
    576    577    578    601   5     0.00000     8.36800     0.00000  0.0
    586    577    578    579   5     0.00000     8.36800     0.00000  0.0
    586    577    578    601   5     0.00000     8.36800     0.00000  0.0
    576    577    586    587   5     0.00000    30.33400     0.00000  0.0
    576    577    586    608   5     0.00000    30.33400     0.00000  0.0
    578    577    586    587   5     0.00000    30.33400     0.00000  0.0
    578    577    586    608   5     0.00000    30.33400     0.00000  0.0
    577    578    579    580   5     0.00000     8.36800     0.00000  0.0
    577    578    579    585   5     0.00000     8.36800     0.00000  0.0
    601    578    579    580   5     0.00000     8.36800     0.00000  0.0
    601    578    579    585   5     0.00000     8.36800     0.00000  0.0
    578    579    580    581   5     0.00000    30.33400     0.00000  0.0
    578    579    580    602   5     0.00000    30.33400     0.00000  0.0
    585    579    580    581   5     0.00000    30.33400     0.00000  0.0
    585    579    580    602   5     0.00000    30.33400     0.00000  0.0
    578    579    585    584   5     0.00000    30.33400     0.00000  0.0
    578    579    585    607   5     0.00000    30.33400     0.00000  0.0
    580    579    585    584   5     0.00000    30.33400     0.00000  0.0
    580    579    585    607   5     0.00000    30.33400     0.00000  0.0
    579    580    581    582   5     0.00000    30.33400     0.00000  0.0
    579    580    581    603   5     0.00000    30.33400     0.00000  0.0
    602    580    581    582   5     0.00000    30.33400     0.00000  0.0
    602    580    581    603   5     0.00000    30.33400     0.00000  0.0
    580    581    582    583   5     0.00000    30.33400     0.00000  0.0
    580    581    582    584   5     0.00000    30.33400     0.00000  0.0
    603    581    582    583   5     0.00000    30.33400     0.00000  0.0
    603    581    582    584   5     0.00000    30.33400     0.00000  0.0
    581    582    583    604   5     0.00000     0.00000     0.00000  0.0
    581    582    583    605   5     0.00000     0.00000     0.00000  0.0
    581    582    583    614   5    -0.50208     2.55224     0.76986  0.0
    584    582    583    604   5     0.00000     0.00000     0.00000  0.0
    584    582    583    605   5     0.00000     0.00000     0.00000  0.0
    584    582    583    614   5    -0.50208     2.55224     0.76986  0.0
    581    582    584    585   5     0.00000    30.33400     0.00000  0.0
    581    582    584    606   5     0.00000    30.33400     0.00000  0.0
    583    582    584    585   5     0.00000    30.33400     0.00000  0.0
    583    582    584    606   5     0.00000    30.33400     0.00000  0.0
    582    583    614    615   5    -6.88268     4.64842     3.09198  0.0
    582    583    614    643   5     0.00000     0.00000     0.00000  0.0
    604    583    614    615   5     0.00000     0.00000     0.00000  0.0
    604    583    614    643   5     0.00000     0.00000     0.00000  0.0
    605    583    614    615   5     0.00000     0.00000     0.00000  0.0
    605    583    614    643   5     0.00000     0.00000     0.00000  0.0
    582    584    585    579   5     0.00000    30.33400     0.00000  0.0
    582    584    585    607   5     0.00000    30.33400     0.00000  0.0
    606    584    585    579   5     0.00000    30.33400     0.00000  0.0
    606    584    585    607   5     0.00000    30.33400     0.00000  0.0
    577    586    587    574   5     0.00000    30.33400     0.00000  0.0
    577    586    587    609   5     0.00000    30.33400     0.00000  0.0
    608    586    587    574   5     0.00000    30.33400     0.00000  0.0
    608    586    587    609   5     0.00000    30.33400     0.00000  0.0
    572    588    589    569   5     0.00000    30.33400     0.00000  0.0
    572    588    589    611   5     0.00000    30.33400     0.00000  0.0
    610    588    589    569   5     0.00000    30.33400     0.00000  0.0
    610    588    589    611   5     0.00000    30.33400     0.00000  0.0
    567    590    591    564   5     0.00000    30.33400     0.00000  0.0
    567    590    591    613   5     0.00000    30.33400     0.00000  0.0
    612    590    591    564   5     0.00000    30.33400     0.00000  0.0
    612    590    591    613   5     0.00000    30.33400     0.00000  0.0
    583    614    615    616   5    -8.36800    10.46000     0.00000  0.0
    583    614    615    642   5    -8.36800    10.46000     0.00000  0.0
    643    614    615    616   5     0.00000     8.36800     0.00000  0.0
    643    614    615    642   5     0.00000     8.36800     0.00000  0.0
    614    615    616    617   5     0.00000    30.33400     0.00000  0.0
    614    615    616    644   5     0.00000    30.33400     0.00000  0.0
    642    615    616    617   5     0.00000    30.33400     0.00000  0.0
    642    615    616    644   5     0.00000    30.33400     0.00000  0.0
    614    615    642    641   5     0.00000    30.33400     0.00000  0.0
    614    615    642    664   5     0.00000    30.33400     0.00000  0.0
    616    615    642    641   5     0.00000    30.33400     0.00000  0.0
    616    615    642    664   5     0.00000    30.33400     0.00000  0.0
    615    616    617    618   5     0.00000    30.33400     0.00000  0.0
    615    616    617    645   5     0.00000    30.33400     0.00000  0.0
    644    616    617    618   5     0.00000    30.33400     0.00000  0.0
    644    616    617    645   5     0.00000    30.33400     0.00000  0.0
    616    617    618    619   5     0.00000    30.33400     0.00000  0.0
    616    617    618    641   5     0.00000    30.33400     0.00000  0.0
    645    617    618    619   5     0.00000    30.33400     0.00000  0.0
    645    617    618    641   5     0.00000    30.33400     0.00000  0.0
    617    618    619    620   5     0.00000     8.36800     0.00000  0.0
    617    618    619    646   5     0.00000     8.36800     0.00000  0.0
    641    618    619    620   5     0.00000     8.36800     0.00000  0.0
    641    618    619    646   5     0.00000     8.36800     0.00000  0.0
    617    618    641    642   5     0.00000    30.33400     0.00000  0.0
    617    618    641    663   5     0.00000    30.33400     0.00000  0.0
    619    618    641    642   5     0.00000    30.33400     0.00000  0.0
    619    618    641    663   5     0.00000    30.33400     0.00000  0.0
    618    619    620    621   5     0.00000     8.36800     0.00000  0.0
    618    619    620    640   5     0.00000     8.36800     0.00000  0.0
    646    619    620    621   5     0.00000     8.36800     0.00000  0.0
    646    619    620    640   5     0.00000     8.36800     0.00000  0.0
    619    620    621    622   5     0.00000    30.33400     0.00000  0.0
    619    620    621    647   5     0.00000    30.33400     0.00000  0.0
    640    620    621    622   5     0.00000    30.33400     0.00000  0.0
    640    620    621    647   5     0.00000    30.33400     0.00000  0.0
    619    620    640    639   5     0.00000    30.33400     0.00000  0.0
    619    620    640    662   5     0.00000    30.33400     0.00000  0.0
    621    620    640    639   5     0.00000    30.33400     0.00000  0.0
    621    620    640    662   5     0.00000    30.33400     0.00000  0.0
    620    621    622    623   5     0.00000    30.33400     0.00000  0.0
    620    621    622    648   5     0.00000    30.33400     0.00000  0.0
    647    621    622    623   5     0.00000    30.33400     0.00000  0.0
    647    621    622    648   5     0.00000    30.33400     0.00000  0.0
    621    622    623    624   5     0.00000    30.33400     0.00000  0.0
    621    622    623    639   5     0.00000    30.33400     0.00000  0.0
    648    622    623    624   5     0.00000    30.33400     0.00000  0.0
    648    622    623    639   5     0.00000    30.33400     0.00000  0.0
    622    623    624    625   5     0.00000     8.36800     0.00000  0.0
    622    623    624    649   5     0.00000     8.36800     0.00000  0.0
    639    623    624    625   5     0.00000     8.36800     0.00000  0.0
    639    623    624    649   5     0.00000     8.36800     0.00000  0.0
    622    623    639    640   5     0.00000    30.33400     0.00000  0.0
    622    623    639    661   5     0.00000    30.33400     0.00000  0.0
    624    623    639    640   5     0.00000    30.33400     0.00000  0.0
    624    623    639    661   5     0.00000    30.33400     0.00000  0.0
    623    624    625    626   5     0.00000     8.36800     0.00000  0.0
    623    624    625    638   5     0.00000     8.36800     0.00000  0.0
    649    624    625    626   5     0.00000     8.36800     0.00000  0.0
    649    624    625    638   5     0.00000     8.36800     0.00000  0.0
    624    625    626    627   5     0.00000    30.33400     0.00000  0.0
    624    625    626    650   5     0.00000    30.33400     0.00000  0.0
    638    625    626    627   5     0.00000    30.33400     0.00000  0.0
    638    625    626    650   5     0.00000    30.33400     0.00000  0.0
    624    625    638    637   5     0.00000    30.33400     0.00000  0.0
    624    625    638    660   5     0.00000    30.33400     0.00000  0.0
    626    625    638    637   5     0.00000    30.33400     0.00000  0.0
    626    625    638    660   5     0.00000    30.33400     0.00000  0.0
    625    626    627    628   5     0.00000    30.33400     0.00000  0.0
    625    626    627    651   5     0.00000    30.33400     0.00000  0.0
    650    626    627    628   5     0.00000    30.33400     0.00000  0.0
    650    626    627    651   5     0.00000    30.33400     0.00000  0.0
    626    627    628    629   5     0.00000    30.33400     0.00000  0.0
    626    627    628    637   5     0.00000    30.33400     0.00000  0.0
    651    627    628    629   5     0.00000    30.33400     0.00000  0.0
    651    627    628    637   5     0.00000    30.33400     0.00000  0.0
    627    628    629    630   5     0.00000     8.36800     0.00000  0.0
    627    628    629    652   5     0.00000     8.36800     0.00000  0.0
    637    628    629    630   5     0.00000     8.36800     0.00000  0.0
    637    628    629    652   5     0.00000     8.36800     0.00000  0.0
    627    628    637    638   5     0.00000    30.33400     0.00000  0.0
    627    628    637    659   5     0.00000    30.33400     0.00000  0.0
    629    628    637    638   5     0.00000    30.33400     0.00000  0.0
    629    628    637    659   5     0.00000    30.33400     0.00000  0.0
    628    629    630    631   5     0.00000     8.36800     0.00000  0.0
    628    629    630    636   5     0.00000     8.36800     0.00000  0.0
    652    629    630    631   5     0.00000     8.36800     0.00000  0.0
    652    629    630    636   5     0.00000     8.36800     0.00000  0.0
    629    630    631    632   5     0.00000    30.33400     0.00000  0.0
    629    630    631    653   5     0.00000    30.33400     0.00000  0.0
    636    630    631    632   5     0.00000    30.33400     0.00000  0.0
    636    630    631    653   5     0.00000    30.33400     0.00000  0.0
    629    630    636    635   5     0.00000    30.33400     0.00000  0.0
    629    630    636    658   5     0.00000    30.33400     0.00000  0.0
    631    630    636    635   5     0.00000    30.33400     0.00000  0.0
    631    630    636    658   5     0.00000    30.33400     0.00000  0.0
    630    631    632    633   5     0.00000    30.33400     0.00000  0.0
    630    631    632    654   5     0.00000    30.33400     0.00000  0.0
    653    631    632    633   5     0.00000    30.33400     0.00000  0.0
    653    631    632    654   5     0.00000    30.33400     0.00000  0.0
    631    632    633    634   5     0.00000    30.33400     0.00000  0.0
    631    632    633    635   5     0.00000    30.33400     0.00000  0.0
    654    632    633    634   5     0.00000    30.33400     0.00000  0.0
    654    632    633    635   5     0.00000    30.33400     0.00000  0.0
    632    633    634    655   5     0.00000     0.00000     0.00000  0.0
    632    633    634    656   5     0.00000     0.00000     0.00000  0.0
    632    633    634    665   5    -0.50208     2.55224     0.76986  0.0
    635    633    634    655   5     0.00000     0.00000     0.00000  0.0
    635    633    634    656   5     0.00000     0.00000     0.00000  0.0
    635    633    634    665   5    -0.50208     2.55224     0.76986  0.0
    632    633    635    636   5     0.00000    30.33400     0.00000  0.0
    632    633    635    657   5     0.00000    30.33400     0.00000  0.0
    634    633    635    636   5     0.00000    30.33400     0.00000  0.0
    634    633    635    657   5     0.00000    30.33400     0.00000  0.0
    633    634    665    666   5    -6.88268     4.64842     3.09198  0.0
    633    634    665    694   5     0.00000     0.00000     0.00000  0.0
    655    634    665    666   5     0.00000     0.00000     0.00000  0.0
    655    634    665    694   5     0.00000     0.00000     0.00000  0.0
    656    634    665    666   5     0.00000     0.00000     0.00000  0.0
    656    634    665    694   5     0.00000     0.00000     0.00000  0.0
    633    635    636    630   5     0.00000    30.33400     0.00000  0.0
    633    635    636    658   5     0.00000    30.33400     0.00000  0.0
    657    635    636    630   5     0.00000    30.33400     0.00000  0.0
    657    635    636    658   5     0.00000    30.33400     0.00000  0.0
    628    637    638    625   5     0.00000    30.33400     0.00000  0.0
    628    637    638    660   5     0.00000    30.33400     0.00000  0.0
    659    637    638    625   5     0.00000    30.33400     0.00000  0.0
    659    637    638    660   5     0.00000    30.33400     0.00000  0.0
    623    639    640    620   5     0.00000    30.33400     0.00000  0.0
    623    639    640    662   5     0.00000    30.33400     0.00000  0.0
    661    639    640    620   5     0.00000    30.33400     0.00000  0.0
    661    639    640    662   5     0.00000    30.33400     0.00000  0.0
    618    641    642    615   5     0.00000    30.33400     0.00000  0.0
    618    641    642    664   5     0.00000    30.33400     0.00000  0.0
    663    641    642    615   5     0.00000    30.33400     0.00000  0.0
    663    641    642    664   5     0.00000    30.33400     0.00000  0.0
    634    665    666    667   5    -8.36800    10.46000     0.00000  0.0
    634    665    666    693   5    -8.36800    10.46000     0.00000  0.0
    694    665    666    667   5     0.00000     8.36800     0.00000  0.0
    694    665    666    693   5     0.00000     8.36800     0.00000  0.0
    665    666    667    668   5     0.00000    30.33400     0.00000  0.0
    665    666    667    695   5     0.00000    30.33400     0.00000  0.0
    693    666    667    668   5     0.00000    30.33400     0.00000  0.0
    693    666    667    695   5     0.00000    30.33400     0.00000  0.0
    665    666    693    692   5     0.00000    30.33400     0.00000  0.0
    665    666    693    715   5     0.00000    30.33400     0.00000  0.0
    667    666    693    692   5     0.00000    30.33400     0.00000  0.0
    667    666    693    715   5     0.00000    30.33400     0.00000  0.0
    666    667    668    669   5     0.00000    30.33400     0.00000  0.0
    666    667    668    696   5     0.00000    30.33400     0.00000  0.0
    695    667    668    669   5     0.00000    30.33400     0.00000  0.0
    695    667    668    696   5     0.00000    30.33400     0.00000  0.0
    667    668    669    670   5     0.00000    30.33400     0.00000  0.0
    667    668    669    692   5     0.00000    30.33400     0.00000  0.0
    696    668    669    670   5     0.00000    30.33400     0.00000  0.0
    696    668    669    692   5     0.00000    30.33400     0.00000  0.0
    668    669    670    671   5     0.00000     8.36800     0.00000  0.0
    668    669    670    697   5     0.00000     8.36800     0.00000  0.0
    692    669    670    671   5     0.00000     8.36800     0.00000  0.0
    692    669    670    697   5     0.00000     8.36800     0.00000  0.0
    668    669    692    693   5     0.00000    30.33400     0.00000  0.0
    668    669    692    714   5     0.00000    30.33400     0.00000  0.0
    670    669    692    693   5     0.00000    30.33400     0.00000  0.0
    670    669    692    714   5     0.00000    30.33400     0.00000  0.0
    669    670    671    672   5     0.00000     8.36800     0.00000  0.0
    669    670    671    691   5     0.00000     8.36800     0.00000  0.0
    697    670    671    672   5     0.00000     8.36800     0.00000  0.0
    697    670    671    691   5     0.00000     8.36800     0.00000  0.0
    670    671    672    673   5     0.00000    30.33400     0.00000  0.0
    670    671    672    698   5     0.00000    30.33400     0.00000  0.0
    691    671    672    673   5     0.00000    30.33400     0.00000  0.0
    691    671    672    698   5     0.00000    30.33400     0.00000  0.0
    670    671    691    690   5     0.00000    30.33400     0.00000  0.0
    670    671    691    713   5     0.00000    30.33400     0.00000  0.0
    672    671    691    690   5     0.00000    30.33400     0.00000  0.0
    672    671    691    713   5     0.00000    30.33400     0.00000  0.0
    671    672    673    674   5     0.00000    30.33400     0.00000  0.0
    671    672    673    699   5     0.00000    30.33400     0.00000  0.0
    698    672    673    674   5     0.00000    30.33400     0.00000  0.0
    698    672    673    699   5     0.00000    30.33400     0.00000  0.0
    672    673    674    675   5     0.00000    30.33400     0.00000  0.0
    672    673    674    690   5     0.00000    30.33400     0.00000  0.0
    699    673    674    675   5     0.00000    30.33400     0.00000  0.0
    699    673    674    690   5     0.00000    30.33400     0.00000  0.0
    673    674    675    676   5     0.00000     8.36800     0.00000  0.0
    673    674    675    700   5     0.00000     8.36800     0.00000  0.0
    690    674    675    676   5     0.00000     8.36800     0.00000  0.0
    690    674    675    700   5     0.00000     8.36800     0.00000  0.0
    673    674    690    691   5     0.00000    30.33400     0.00000  0.0
    673    674    690    712   5     0.00000    30.33400     0.00000  0.0
    675    674    690    691   5     0.00000    30.33400     0.00000  0.0
    675    674    690    712   5     0.00000    30.33400     0.00000  0.0
    674    675    676    677   5     0.00000     8.36800     0.00000  0.0
    674    675    676    689   5     0.00000     8.36800     0.00000  0.0
    700    675    676    677   5     0.00000     8.36800     0.00000  0.0
    700    675    676    689   5     0.00000     8.36800     0.00000  0.0
    675    676    677    678   5     0.00000    30.33400     0.00000  0.0
    675    676    677    701   5     0.00000    30.33400     0.00000  0.0
    689    676    677    678   5     0.00000    30.33400     0.00000  0.0
    689    676    677    701   5     0.00000    30.33400     0.00000  0.0
    675    676    689    688   5     0.00000    30.33400     0.00000  0.0
    675    676    689    711   5     0.00000    30.33400     0.00000  0.0
    677    676    689    688   5     0.00000    30.33400     0.00000  0.0
    677    676    689    711   5     0.00000    30.33400     0.00000  0.0
    676    677    678    679   5     0.00000    30.33400     0.00000  0.0
    676    677    678    702   5     0.00000    30.33400     0.00000  0.0
    701    677    678    679   5     0.00000    30.33400     0.00000  0.0
    701    677    678    702   5     0.00000    30.33400     0.00000  0.0
    677    678    679    680   5     0.00000    30.33400     0.00000  0.0
    677    678    679    688   5     0.00000    30.33400     0.00000  0.0
    702    678    679    680   5     0.00000    30.33400     0.00000  0.0
    702    678    679    688   5     0.00000    30.33400     0.00000  0.0
    678    679    680    681   5     0.00000     8.36800     0.00000  0.0
    678    679    680    703   5     0.00000     8.36800     0.00000  0.0
    688    679    680    681   5     0.00000     8.36800     0.00000  0.0
    688    679    680    703   5     0.00000     8.36800     0.00000  0.0
    678    679    688    689   5     0.00000    30.33400     0.00000  0.0
    678    679    688    710   5     0.00000    30.33400     0.00000  0.0
    680    679    688    689   5     0.00000    30.33400     0.00000  0.0
    680    679    688    710   5     0.00000    30.33400     0.00000  0.0
    679    680    681    682   5     0.00000     8.36800     0.00000  0.0
    679    680    681    687   5     0.00000     8.36800     0.00000  0.0
    703    680    681    682   5     0.00000     8.36800     0.00000  0.0
    703    680    681    687   5     0.00000     8.36800     0.00000  0.0
    680    681    682    683   5     0.00000    30.33400     0.00000  0.0
    680    681    682    704   5     0.00000    30.33400     0.00000  0.0
    687    681    682    683   5     0.00000    30.33400     0.00000  0.0
    687    681    682    704   5     0.00000    30.33400     0.00000  0.0
    680    681    687    686   5     0.00000    30.33400     0.00000  0.0
    680    681    687    709   5     0.00000    30.33400     0.00000  0.0
    682    681    687    686   5     0.00000    30.33400     0.00000  0.0
    682    681    687    709   5     0.00000    30.33400     0.00000  0.0
    681    682    683    684   5     0.00000    30.33400     0.00000  0.0
    681    682    683    705   5     0.00000    30.33400     0.00000  0.0
    704    682    683    684   5     0.00000    30.33400     0.00000  0.0
    704    682    683    705   5     0.00000    30.33400     0.00000  0.0
    682    683    684    685   5     0.00000    30.33400     0.00000  0.0
    682    683    684    686   5     0.00000    30.33400     0.00000  0.0
    705    683    684    685   5     0.00000    30.33400     0.00000  0.0
    705    683    684    686   5     0.00000    30.33400     0.00000  0.0
    683    684    685    706   5     0.00000     0.00000     0.00000  0.0
    683    684    685    707   5     0.00000     0.00000     0.00000  0.0
    683    684    685    716   5    -0.50208     2.55224     0.76986  0.0
    686    684    685    706   5     0.00000     0.00000     0.00000  0.0
    686    684    685    707   5     0.00000     0.00000     0.00000  0.0
    686    684    685    716   5    -0.50208     2.55224     0.76986  0.0
    683    684    686    687   5     0.00000    30.33400     0.00000  0.0
    683    684    686    708   5     0.00000    30.33400     0.00000  0.0
    685    684    686    687   5     0.00000    30.33400     0.00000  0.0
    685    684    686    708   5     0.00000    30.33400     0.00000  0.0
    684    685    716    717   5    -6.88268     4.64842     3.09198  0.0
    684    685    716    745   5     0.00000     0.00000     0.00000  0.0
    706    685    716    717   5     0.00000     0.00000     0.00000  0.0
    706    685    716    745   5     0.00000     0.00000     0.00000  0.0
    707    685    716    717   5     0.00000     0.00000     0.00000  0.0
    707    685    716    745   5     0.00000     0.00000     0.00000  0.0
    684    686    687    681   5     0.00000    30.33400     0.00000  0.0
    684    686    687    709   5     0.00000    30.33400     0.00000  0.0
    708    686    687    681   5     0.00000    30.33400     0.00000  0.0
    708    686    687    709   5     0.00000    30.33400     0.00000  0.0
    679    688    689    676   5     0.00000    30.33400     0.00000  0.0
    679    688    689    711   5     0.00000    30.33400     0.00000  0.0
    710    688    689    676   5     0.00000    30.33400     0.00000  0.0
    710    688    689    711   5     0.00000    30.33400     0.00000  0.0
    674    690    691    671   5     0.00000    30.33400     0.00000  0.0
    674    690    691    713   5     0.00000    30.33400     0.00000  0.0
    712    690    691    671   5     0.00000    30.33400     0.00000  0.0
    712    690    691    713   5     0.00000    30.33400     0.00000  0.0
    669    692    693    666   5     0.00000    30.33400     0.00000  0.0
    669    692    693    715   5     0.00000    30.33400     0.00000  0.0
    714    692    693    666   5     0.00000    30.33400     0.00000  0.0
    714    692    693    715   5     0.00000    30.33400     0.00000  0.0
    685    716    717    718   5    -8.36800    10.46000     0.00000  0.0
    685    716    717    744   5    -8.36800    10.46000     0.00000  0.0
    745    716    717    718   5     0.00000     8.36800     0.00000  0.0
    745    716    717    744   5     0.00000     8.36800     0.00000  0.0
    716    717    718    719   5     0.00000    30.33400     0.00000  0.0
    716    717    718    746   5     0.00000    30.33400     0.00000  0.0
    744    717    718    719   5     0.00000    30.33400     0.00000  0.0
    744    717    718    746   5     0.00000    30.33400     0.00000  0.0
    716    717    744    743   5     0.00000    30.33400     0.00000  0.0
    716    717    744    766   5     0.00000    30.33400     0.00000  0.0
    718    717    744    743   5     0.00000    30.33400     0.00000  0.0
    718    717    744    766   5     0.00000    30.33400     0.00000  0.0
    717    718    719    720   5     0.00000    30.33400     0.00000  0.0
    717    718    719    747   5     0.00000    30.33400     0.00000  0.0
    746    718    719    720   5     0.00000    30.33400     0.00000  0.0
    746    718    719    747   5     0.00000    30.33400     0.00000  0.0
    718    719    720    721   5     0.00000    30.33400     0.00000  0.0
    718    719    720    743   5     0.00000    30.33400     0.00000  0.0
    747    719    720    721   5     0.00000    30.33400     0.00000  0.0
    747    719    720    743   5     0.00000    30.33400     0.00000  0.0
    719    720    721    722   5     0.00000     8.36800     0.00000  0.0
    719    720    721    748   5     0.00000     8.36800     0.00000  0.0
    743    720    721    722   5     0.00000     8.36800     0.00000  0.0
    743    720    721    748   5     0.00000     8.36800     0.00000  0.0
    719    720    743    744   5     0.00000    30.33400     0.00000  0.0
    719    720    743    765   5     0.00000    30.33400     0.00000  0.0
    721    720    743    744   5     0.00000    30.33400     0.00000  0.0
    721    720    743    765   5     0.00000    30.33400     0.00000  0.0
    720    721    722    723   5     0.00000     8.36800     0.00000  0.0
    720    721    722    742   5     0.00000     8.36800     0.00000  0.0
    748    721    722    723   5     0.00000     8.36800     0.00000  0.0
    748    721    722    742   5     0.00000     8.36800     0.00000  0.0
    721    722    723    724   5     0.00000    30.33400     0.00000  0.0
    721    722    723    749   5     0.00000    30.33400     0.00000  0.0
    742    722    723    724   5     0.00000    30.33400     0.00000  0.0
    742    722    723    749   5     0.00000    30.33400     0.00000  0.0
    721    722    742    741   5     0.00000    30.33400     0.00000  0.0
    721    722    742    764   5     0.00000    30.33400     0.00000  0.0
    723    722    742    741   5     0.00000    30.33400     0.00000  0.0
    723    722    742    764   5     0.00000    30.33400     0.00000  0.0
    722    723    724    725   5     0.00000    30.33400     0.00000  0.0
    722    723    724    750   5     0.00000    30.33400     0.00000  0.0
    749    723    724    725   5     0.00000    30.33400     0.00000  0.0
    749    723    724    750   5     0.00000    30.33400     0.00000  0.0
    723    724    725    726   5     0.00000    30.33400     0.00000  0.0
    723    724    725    741   5     0.00000    30.33400     0.00000  0.0
    750    724    725    726   5     0.00000    30.33400     0.00000  0.0
    750    724    725    741   5     0.00000    30.33400     0.00000  0.0
    724    725    726    727   5     0.00000     8.36800     0.00000  0.0
    724    725    726    751   5     0.00000     8.36800     0.00000  0.0
    741    725    726    727   5     0.00000     8.36800     0.00000  0.0
    741    725    726    751   5     0.00000     8.36800     0.00000  0.0
    724    725    741    742   5     0.00000    30.33400     0.00000  0.0
    724    725    741    763   5     0.00000    30.33400     0.00000  0.0
    726    725    741    742   5     0.00000    30.33400     0.00000  0.0
    726    725    741    763   5     0.00000    30.33400     0.00000  0.0
    725    726    727    728   5     0.00000     8.36800     0.00000  0.0
    725    726    727    740   5     0.00000     8.36800     0.00000  0.0
    751    726    727    728   5     0.00000     8.36800     0.00000  0.0
    751    726    727    740   5     0.00000     8.36800     0.00000  0.0
    726    727    728    729   5     0.00000    30.33400     0.00000  0.0
    726    727    728    752   5     0.00000    30.33400     0.00000  0.0
    740    727    728    729   5     0.00000    30.33400     0.00000  0.0
    740    727    728    752   5     0.00000    30.33400     0.00000  0.0
    726    727    740    739   5     0.00000    30.33400     0.00000  0.0
    726    727    740    762   5     0.00000    30.33400     0.00000  0.0
    728    727    740    739   5     0.00000    30.33400     0.00000  0.0
    728    727    740    762   5     0.00000    30.33400     0.00000  0.0
    727    728    729    730   5     0.00000    30.33400     0.00000  0.0
    727    728    729    753   5     0.00000    30.33400     0.00000  0.0
    752    728    729    730   5     0.00000    30.33400     0.00000  0.0
    752    728    729    753   5     0.00000    30.33400     0.00000  0.0
    728    729    730    731   5     0.00000    30.33400     0.00000  0.0
    728    729    730    739   5     0.00000    30.33400     0.00000  0.0
    753    729    730    731   5     0.00000    30.33400     0.00000  0.0
    753    729    730    739   5     0.00000    30.33400     0.00000  0.0
    729    730    731    732   5     0.00000     8.36800     0.00000  0.0
    729    730    731    754   5     0.00000     8.36800     0.00000  0.0
    739    730    731    732   5     0.00000     8.36800     0.00000  0.0
    739    730    731    754   5     0.00000     8.36800     0.00000  0.0
    729    730    739    740   5     0.00000    30.33400     0.00000  0.0
    729    730    739    761   5     0.00000    30.33400     0.00000  0.0
    731    730    739    740   5     0.00000    30.33400     0.00000  0.0
    731    730    739    761   5     0.00000    30.33400     0.00000  0.0
    730    731    732    733   5     0.00000     8.36800     0.00000  0.0
    730    731    732    738   5     0.00000     8.36800     0.00000  0.0
    754    731    732    733   5     0.00000     8.36800     0.00000  0.0
    754    731    732    738   5     0.00000     8.36800     0.00000  0.0
    731    732    733    734   5     0.00000    30.33400     0.00000  0.0
    731    732    733    755   5     0.00000    30.33400     0.00000  0.0
    738    732    733    734   5     0.00000    30.33400     0.00000  0.0
    738    732    733    755   5     0.00000    30.33400     0.00000  0.0
    731    732    738    737   5     0.00000    30.33400     0.00000  0.0
    731    732    738    760   5     0.00000    30.33400     0.00000  0.0
    733    732    738    737   5     0.00000    30.33400     0.00000  0.0
    733    732    738    760   5     0.00000    30.33400     0.00000  0.0
    732    733    734    735   5     0.00000    30.33400     0.00000  0.0
    732    733    734    756   5     0.00000    30.33400     0.00000  0.0
    755    733    734    735   5     0.00000    30.33400     0.00000  0.0
    755    733    734    756   5     0.00000    30.33400     0.00000  0.0
    733    734    735    736   5     0.00000    30.33400     0.00000  0.0
    733    734    735    737   5     0.00000    30.33400     0.00000  0.0
    756    734    735    736   5     0.00000    30.33400     0.00000  0.0
    756    734    735    737   5     0.00000    30.33400     0.00000  0.0
    734    735    736    757   5     0.00000     0.00000     0.00000  0.0
    734    735    736    758   5     0.00000     0.00000     0.00000  0.0
    734    735    736    767   5    -0.50208     2.55224     0.76986  0.0
    737    735    736    757   5     0.00000     0.00000     0.00000  0.0
    737    735    736    758   5     0.00000     0.00000     0.00000  0.0
    737    735    736    767   5    -0.50208     2.55224     0.76986  0.0
    734    735    737    738   5     0.00000    30.33400     0.00000  0.0
    734    735    737    759   5     0.00000    30.33400     0.00000  0.0
    736    735    737    738   5     0.00000    30.33400     0.00000  0.0
    736    735    737    759   5     0.00000    30.33400     0.00000  0.0
    735    736    767    768   5    -6.88268     4.64842     3.09198  0.0
    735    736    767    796   5     0.00000     0.00000     0.00000  0.0
    757    736    767    768   5     0.00000     0.00000     0.00000  0.0
    757    736    767    796   5     0.00000     0.00000     0.00000  0.0
    758    736    767    768   5     0.00000     0.00000     0.00000  0.0
    758    736    767    796   5     0.00000     0.00000     0.00000  0.0
    735    737    738    732   5     0.00000    30.33400     0.00000  0.0
    735    737    738    760   5     0.00000    30.33400     0.00000  0.0
    759    737    738    732   5     0.00000    30.33400     0.00000  0.0
    759    737    738    760   5     0.00000    30.33400     0.00000  0.0
    730    739    740    727   5     0.00000    30.33400     0.00000  0.0
    730    739    740    762   5     0.00000    30.33400     0.00000  0.0
    761    739    740    727   5     0.00000    30.33400     0.00000  0.0
    761    739    740    762   5     0.00000    30.33400     0.00000  0.0
    725    741    742    722   5     0.00000    30.33400     0.00000  0.0
    725    741    742    764   5     0.00000    30.33400     0.00000  0.0
    763    741    742    722   5     0.00000    30.33400     0.00000  0.0
    763    741    742    764   5     0.00000    30.33400     0.00000  0.0
    720    743    744    717   5     0.00000    30.33400     0.00000  0.0
    720    743    744    766   5     0.00000    30.33400     0.00000  0.0
    765    743    744    717   5     0.00000    30.33400     0.00000  0.0
    765    743    744    766   5     0.00000    30.33400     0.00000  0.0
    736    767    768    769   5    -8.36800    10.46000     0.00000  0.0
    736    767    768    795   5    -8.36800    10.46000     0.00000  0.0
    796    767    768    769   5     0.00000     8.36800     0.00000  0.0
    796    767    768    795   5     0.00000     8.36800     0.00000  0.0
    767    768    769    770   5     0.00000    30.33400     0.00000  0.0
    767    768    769    797   5     0.00000    30.33400     0.00000  0.0
    795    768    769    770   5     0.00000    30.33400     0.00000  0.0
    795    768    769    797   5     0.00000    30.33400     0.00000  0.0
    767    768    795    794   5     0.00000    30.33400     0.00000  0.0
    767    768    795    817   5     0.00000    30.33400     0.00000  0.0
    769    768    795    794   5     0.00000    30.33400     0.00000  0.0
    769    768    795    817   5     0.00000    30.33400     0.00000  0.0
    768    769    770    771   5     0.00000    30.33400     0.00000  0.0
    768    769    770    798   5     0.00000    30.33400     0.00000  0.0
    797    769    770    771   5     0.00000    30.33400     0.00000  0.0
    797    769    770    798   5     0.00000    30.33400     0.00000  0.0
    769    770    771    772   5     0.00000    30.33400     0.00000  0.0
    769    770    771    794   5     0.00000    30.33400     0.00000  0.0
    798    770    771    772   5     0.00000    30.33400     0.00000  0.0
    798    770    771    794   5     0.00000    30.33400     0.00000  0.0
    770    771    772    773   5     0.00000     8.36800     0.00000  0.0
    770    771    772    799   5     0.00000     8.36800     0.00000  0.0
    794    771    772    773   5     0.00000     8.36800     0.00000  0.0
    794    771    772    799   5     0.00000     8.36800     0.00000  0.0
    770    771    794    795   5     0.00000    30.33400     0.00000  0.0
    770    771    794    816   5     0.00000    30.33400     0.00000  0.0
    772    771    794    795   5     0.00000    30.33400     0.00000  0.0
    772    771    794    816   5     0.00000    30.33400     0.00000  0.0
    771    772    773    774   5     0.00000     8.36800     0.00000  0.0
    771    772    773    793   5     0.00000     8.36800     0.00000  0.0
    799    772    773    774   5     0.00000     8.36800     0.00000  0.0
    799    772    773    793   5     0.00000     8.36800     0.00000  0.0
    772    773    774    775   5     0.00000    30.33400     0.00000  0.0
    772    773    774    800   5     0.00000    30.33400     0.00000  0.0
    793    773    774    775   5     0.00000    30.33400     0.00000  0.0
    793    773    774    800   5     0.00000    30.33400     0.00000  0.0
    772    773    793    792   5     0.00000    30.33400     0.00000  0.0
    772    773    793    815   5     0.00000    30.33400     0.00000  0.0
    774    773    793    792   5     0.00000    30.33400     0.00000  0.0
    774    773    793    815   5     0.00000    30.33400     0.00000  0.0
    773    774    775    776   5     0.00000    30.33400     0.00000  0.0
    773    774    775    801   5     0.00000    30.33400     0.00000  0.0
    800    774    775    776   5     0.00000    30.33400     0.00000  0.0
    800    774    775    801   5     0.00000    30.33400     0.00000  0.0
    774    775    776    777   5     0.00000    30.33400     0.00000  0.0
    774    775    776    792   5     0.00000    30.33400     0.00000  0.0
    801    775    776    777   5     0.00000    30.33400     0.00000  0.0
    801    775    776    792   5     0.00000    30.33400     0.00000  0.0
    775    776    777    778   5     0.00000     8.36800     0.00000  0.0
    775    776    777    802   5     0.00000     8.36800     0.00000  0.0
    792    776    777    778   5     0.00000     8.36800     0.00000  0.0
    792    776    777    802   5     0.00000     8.36800     0.00000  0.0
    775    776    792    793   5     0.00000    30.33400     0.00000  0.0
    775    776    792    814   5     0.00000    30.33400     0.00000  0.0
    777    776    792    793   5     0.00000    30.33400     0.00000  0.0
    777    776    792    814   5     0.00000    30.33400     0.00000  0.0
    776    777    778    779   5     0.00000     8.36800     0.00000  0.0
    776    777    778    791   5     0.00000     8.36800     0.00000  0.0
    802    777    778    779   5     0.00000     8.36800     0.00000  0.0
    802    777    778    791   5     0.00000     8.36800     0.00000  0.0
    777    778    779    780   5     0.00000    30.33400     0.00000  0.0
    777    778    779    803   5     0.00000    30.33400     0.00000  0.0
    791    778    779    780   5     0.00000    30.33400     0.00000  0.0
    791    778    779    803   5     0.00000    30.33400     0.00000  0.0
    777    778    791    790   5     0.00000    30.33400     0.00000  0.0
    777    778    791    813   5     0.00000    30.33400     0.00000  0.0
    779    778    791    790   5     0.00000    30.33400     0.00000  0.0
    779    778    791    813   5     0.00000    30.33400     0.00000  0.0
    778    779    780    781   5     0.00000    30.33400     0.00000  0.0
    778    779    780    804   5     0.00000    30.33400     0.00000  0.0
    803    779    780    781   5     0.00000    30.33400     0.00000  0.0
    803    779    780    804   5     0.00000    30.33400     0.00000  0.0
    779    780    781    782   5     0.00000    30.33400     0.00000  0.0
    779    780    781    790   5     0.00000    30.33400     0.00000  0.0
    804    780    781    782   5     0.00000    30.33400     0.00000  0.0
    804    780    781    790   5     0.00000    30.33400     0.00000  0.0
    780    781    782    783   5     0.00000     8.36800     0.00000  0.0
    780    781    782    805   5     0.00000     8.36800     0.00000  0.0
    790    781    782    783   5     0.00000     8.36800     0.00000  0.0
    790    781    782    805   5     0.00000     8.36800     0.00000  0.0
    780    781    790    791   5     0.00000    30.33400     0.00000  0.0
    780    781    790    812   5     0.00000    30.33400     0.00000  0.0
    782    781    790    791   5     0.00000    30.33400     0.00000  0.0
    782    781    790    812   5     0.00000    30.33400     0.00000  0.0
    781    782    783    784   5     0.00000     8.36800     0.00000  0.0
    781    782    783    789   5     0.00000     8.36800     0.00000  0.0
    805    782    783    784   5     0.00000     8.36800     0.00000  0.0
    805    782    783    789   5     0.00000     8.36800     0.00000  0.0
    782    783    784    785   5     0.00000    30.33400     0.00000  0.0
    782    783    784    806   5     0.00000    30.33400     0.00000  0.0
    789    783    784    785   5     0.00000    30.33400     0.00000  0.0
    789    783    784    806   5     0.00000    30.33400     0.00000  0.0
    782    783    789    788   5     0.00000    30.33400     0.00000  0.0
    782    783    789    811   5     0.00000    30.33400     0.00000  0.0
    784    783    789    788   5     0.00000    30.33400     0.00000  0.0
    784    783    789    811   5     0.00000    30.33400     0.00000  0.0
    783    784    785    786   5     0.00000    30.33400     0.00000  0.0
    783    784    785    807   5     0.00000    30.33400     0.00000  0.0
    806    784    785    786   5     0.00000    30.33400     0.00000  0.0
    806    784    785    807   5     0.00000    30.33400     0.00000  0.0
    784    785    786    787   5     0.00000    30.33400     0.00000  0.0
    784    785    786    788   5     0.00000    30.33400     0.00000  0.0
    807    785    786    787   5     0.00000    30.33400     0.00000  0.0
    807    785    786    788   5     0.00000    30.33400     0.00000  0.0
    785    786    787    808   5     0.00000     0.00000     0.00000  0.0
    785    786    787    809   5     0.00000     0.00000     0.00000  0.0
    785    786    787    818   5    -0.50208     2.55224     0.76986  0.0
    788    786    787    808   5     0.00000     0.00000     0.00000  0.0
    788    786    787    809   5     0.00000     0.00000     0.00000  0.0
    788    786    787    818   5    -0.50208     2.55224     0.76986  0.0
    785    786    788    789   5     0.00000    30.33400     0.00000  0.0
    785    786    788    810   5     0.00000    30.33400     0.00000  0.0
    787    786    788    789   5     0.00000    30.33400     0.00000  0.0
    787    786    788    810   5     0.00000    30.33400     0.00000  0.0
    786    787    818    819   5    -6.88268     4.64842     3.09198  0.0
    786    787    818    847   5     0.00000     0.00000     0.00000  0.0
    808    787    818    819   5     0.00000     0.00000     0.00000  0.0
    808    787    818    847   5     0.00000     0.00000     0.00000  0.0
    809    787    818    819   5     0.00000     0.00000     0.00000  0.0
    809    787    818    847   5     0.00000     0.00000     0.00000  0.0
    786    788    789    783   5     0.00000    30.33400     0.00000  0.0
    786    788    789    811   5     0.00000    30.33400     0.00000  0.0
    810    788    789    783   5     0.00000    30.33400     0.00000  0.0
    810    788    789    811   5     0.00000    30.33400     0.00000  0.0
    781    790    791    778   5     0.00000    30.33400     0.00000  0.0
    781    790    791    813   5     0.00000    30.33400     0.00000  0.0
    812    790    791    778   5     0.00000    30.33400     0.00000  0.0
    812    790    791    813   5     0.00000    30.33400     0.00000  0.0
    776    792    793    773   5     0.00000    30.33400     0.00000  0.0
    776    792    793    815   5     0.00000    30.33400     0.00000  0.0
    814    792    793    773   5     0.00000    30.33400     0.00000  0.0
    814    792    793    815   5     0.00000    30.33400     0.00000  0.0
    771    794    795    768   5     0.00000    30.33400     0.00000  0.0
    771    794    795    817   5     0.00000    30.33400     0.00000  0.0
    816    794    795    768   5     0.00000    30.33400     0.00000  0.0
    816    794    795    817   5     0.00000    30.33400     0.00000  0.0
    787    818    819    820   5    -8.36800    10.46000     0.00000  0.0
    787    818    819    846   5    -8.36800    10.46000     0.00000  0.0
    847    818    819    820   5     0.00000     8.36800     0.00000  0.0
    847    818    819    846   5     0.00000     8.36800     0.00000  0.0
    818    819    820    821   5     0.00000    30.33400     0.00000  0.0
    818    819    820    848   5     0.00000    30.33400     0.00000  0.0
    846    819    820    821   5     0.00000    30.33400     0.00000  0.0
    846    819    820    848   5     0.00000    30.33400     0.00000  0.0
    818    819    846    845   5     0.00000    30.33400     0.00000  0.0
    818    819    846    868   5     0.00000    30.33400     0.00000  0.0
    820    819    846    845   5     0.00000    30.33400     0.00000  0.0
    820    819    846    868   5     0.00000    30.33400     0.00000  0.0
    819    820    821    822   5     0.00000    30.33400     0.00000  0.0
    819    820    821    849   5     0.00000    30.33400     0.00000  0.0
    848    820    821    822   5     0.00000    30.33400     0.00000  0.0
    848    820    821    849   5     0.00000    30.33400     0.00000  0.0
    820    821    822    823   5     0.00000    30.33400     0.00000  0.0
    820    821    822    845   5     0.00000    30.33400     0.00000  0.0
    849    821    822    823   5     0.00000    30.33400     0.00000  0.0
    849    821    822    845   5     0.00000    30.33400     0.00000  0.0
    821    822    823    824   5     0.00000     8.36800     0.00000  0.0
    821    822    823    850   5     0.00000     8.36800     0.00000  0.0
    845    822    823    824   5     0.00000     8.36800     0.00000  0.0
    845    822    823    850   5     0.00000     8.36800     0.00000  0.0
    821    822    845    846   5     0.00000    30.33400     0.00000  0.0
    821    822    845    867   5     0.00000    30.33400     0.00000  0.0
    823    822    845    846   5     0.00000    30.33400     0.00000  0.0
    823    822    845    867   5     0.00000    30.33400     0.00000  0.0
    822    823    824    825   5     0.00000     8.36800     0.00000  0.0
    822    823    824    844   5     0.00000     8.36800     0.00000  0.0
    850    823    824    825   5     0.00000     8.36800     0.00000  0.0
    850    823    824    844   5     0.00000     8.36800     0.00000  0.0
    823    824    825    826   5     0.00000    30.33400     0.00000  0.0
    823    824    825    851   5     0.00000    30.33400     0.00000  0.0
    844    824    825    826   5     0.00000    30.33400     0.00000  0.0
    844    824    825    851   5     0.00000    30.33400     0.00000  0.0
    823    824    844    843   5     0.00000    30.33400     0.00000  0.0
    823    824    844    866   5     0.00000    30.33400     0.00000  0.0
    825    824    844    843   5     0.00000    30.33400     0.00000  0.0
    825    824    844    866   5     0.00000    30.33400     0.00000  0.0
    824    825    826    827   5     0.00000    30.33400     0.00000  0.0
    824    825    826    852   5     0.00000    30.33400     0.00000  0.0
    851    825    826    827   5     0.00000    30.33400     0.00000  0.0
    851    825    826    852   5     0.00000    30.33400     0.00000  0.0
    825    826    827    828   5     0.00000    30.33400     0.00000  0.0
    825    826    827    843   5     0.00000    30.33400     0.00000  0.0
    852    826    827    828   5     0.00000    30.33400     0.00000  0.0
    852    826    827    843   5     0.00000    30.33400     0.00000  0.0
    826    827    828    829   5     0.00000     8.36800     0.00000  0.0
    826    827    828    853   5     0.00000     8.36800     0.00000  0.0
    843    827    828    829   5     0.00000     8.36800     0.00000  0.0
    843    827    828    853   5     0.00000     8.36800     0.00000  0.0
    826    827    843    844   5     0.00000    30.33400     0.00000  0.0
    826    827    843    865   5     0.00000    30.33400     0.00000  0.0
    828    827    843    844   5     0.00000    30.33400     0.00000  0.0
    828    827    843    865   5     0.00000    30.33400     0.00000  0.0
    827    828    829    830   5     0.00000     8.36800     0.00000  0.0
    827    828    829    842   5     0.00000     8.36800     0.00000  0.0
    853    828    829    830   5     0.00000     8.36800     0.00000  0.0
    853    828    829    842   5     0.00000     8.36800     0.00000  0.0
    828    829    830    831   5     0.00000    30.33400     0.00000  0.0
    828    829    830    854   5     0.00000    30.33400     0.00000  0.0
    842    829    830    831   5     0.00000    30.33400     0.00000  0.0
    842    829    830    854   5     0.00000    30.33400     0.00000  0.0
    828    829    842    841   5     0.00000    30.33400     0.00000  0.0
    828    829    842    864   5     0.00000    30.33400     0.00000  0.0
    830    829    842    841   5     0.00000    30.33400     0.00000  0.0
    830    829    842    864   5     0.00000    30.33400     0.00000  0.0
    829    830    831    832   5     0.00000    30.33400     0.00000  0.0
    829    830    831    855   5     0.00000    30.33400     0.00000  0.0
    854    830    831    832   5     0.00000    30.33400     0.00000  0.0
    854    830    831    855   5     0.00000    30.33400     0.00000  0.0
    830    831    832    833   5     0.00000    30.33400     0.00000  0.0
    830    831    832    841   5     0.00000    30.33400     0.00000  0.0
    855    831    832    833   5     0.00000    30.33400     0.00000  0.0
    855    831    832    841   5     0.00000    30.33400     0.00000  0.0
    831    832    833    834   5     0.00000     8.36800     0.00000  0.0
    831    832    833    856   5     0.00000     8.36800     0.00000  0.0
    841    832    833    834   5     0.00000     8.36800     0.00000  0.0
    841    832    833    856   5     0.00000     8.36800     0.00000  0.0
    831    832    841    842   5     0.00000    30.33400     0.00000  0.0
    831    832    841    863   5     0.00000    30.33400     0.00000  0.0
    833    832    841    842   5     0.00000    30.33400     0.00000  0.0
    833    832    841    863   5     0.00000    30.33400     0.00000  0.0
    832    833    834    835   5     0.00000     8.36800     0.00000  0.0
    832    833    834    840   5     0.00000     8.36800     0.00000  0.0
    856    833    834    835   5     0.00000     8.36800     0.00000  0.0
    856    833    834    840   5     0.00000     8.36800     0.00000  0.0
    833    834    835    836   5     0.00000    30.33400     0.00000  0.0
    833    834    835    857   5     0.00000    30.33400     0.00000  0.0
    840    834    835    836   5     0.00000    30.33400     0.00000  0.0
    840    834    835    857   5     0.00000    30.33400     0.00000  0.0
    833    834    840    839   5     0.00000    30.33400     0.00000  0.0
    833    834    840    862   5     0.00000    30.33400     0.00000  0.0
    835    834    840    839   5     0.00000    30.33400     0.00000  0.0
    835    834    840    862   5     0.00000    30.33400     0.00000  0.0
    834    835    836    837   5     0.00000    30.33400     0.00000  0.0
    834    835    836    858   5     0.00000    30.33400     0.00000  0.0
    857    835    836    837   5     0.00000    30.33400     0.00000  0.0
    857    835    836    858   5     0.00000    30.33400     0.00000  0.0
    835    836    837    838   5     0.00000    30.33400     0.00000  0.0
    835    836    837    839   5     0.00000    30.33400     0.00000  0.0
    858    836    837    838   5     0.00000    30.33400     0.00000  0.0
    858    836    837    839   5     0.00000    30.33400     0.00000  0.0
    836    837    838    859   5     0.00000     0.00000     0.00000  0.0
    836    837    838    860   5     0.00000     0.00000     0.00000  0.0
    836    837    838    869   5    -0.50208     2.55224     0.76986  0.0
    839    837    838    859   5     0.00000     0.00000     0.00000  0.0
    839    837    838    860   5     0.00000     0.00000     0.00000  0.0
    839    837    838    869   5    -0.50208     2.55224     0.76986  0.0
    836    837    839    840   5     0.00000    30.33400     0.00000  0.0
    836    837    839    861   5     0.00000    30.33400     0.00000  0.0
    838    837    839    840   5     0.00000    30.33400     0.00000  0.0
    838    837    839    861   5     0.00000    30.33400     0.00000  0.0
    837    838    869    870   5    -6.88268     4.64842     3.09198  0.0
    837    838    869    898   5     0.00000     0.00000     0.00000  0.0
    859    838    869    870   5     0.00000     0.00000     0.00000  0.0
    859    838    869    898   5     0.00000     0.00000     0.00000  0.0
    860    838    869    870   5     0.00000     0.00000     0.00000  0.0
    860    838    869    898   5     0.00000     0.00000     0.00000  0.0
    837    839    840    834   5     0.00000    30.33400     0.00000  0.0
    837    839    840    862   5     0.00000    30.33400     0.00000  0.0
    861    839    840    834   5     0.00000    30.33400     0.00000  0.0
    861    839    840    862   5     0.00000    30.33400     0.00000  0.0
    832    841    842    829   5     0.00000    30.33400     0.00000  0.0
    832    841    842    864   5     0.00000    30.33400     0.00000  0.0
    863    841    842    829   5     0.00000    30.33400     0.00000  0.0
    863    841    842    864   5     0.00000    30.33400     0.00000  0.0
    827    843    844    824   5     0.00000    30.33400     0.00000  0.0
    827    843    844    866   5     0.00000    30.33400     0.00000  0.0
    865    843    844    824   5     0.00000    30.33400     0.00000  0.0
    865    843    844    866   5     0.00000    30.33400     0.00000  0.0
    822    845    846    819   5     0.00000    30.33400     0.00000  0.0
    822    845    846    868   5     0.00000    30.33400     0.00000  0.0
    867    845    846    819   5     0.00000    30.33400     0.00000  0.0
    867    845    846    868   5     0.00000    30.33400     0.00000  0.0
    838    869    870    871   5    -8.36800    10.46000     0.00000  0.0
    838    869    870    897   5    -8.36800    10.46000     0.00000  0.0
    898    869    870    871   5     0.00000     8.36800     0.00000  0.0
    898    869    870    897   5     0.00000     8.36800     0.00000  0.0
    869    870    871    872   5     0.00000    30.33400     0.00000  0.0
    869    870    871    899   5     0.00000    30.33400     0.00000  0.0
    897    870    871    872   5     0.00000    30.33400     0.00000  0.0
    897    870    871    899   5     0.00000    30.33400     0.00000  0.0
    869    870    897    896   5     0.00000    30.33400     0.00000  0.0
    869    870    897    919   5     0.00000    30.33400     0.00000  0.0
    871    870    897    896   5     0.00000    30.33400     0.00000  0.0
    871    870    897    919   5     0.00000    30.33400     0.00000  0.0
    870    871    872    873   5     0.00000    30.33400     0.00000  0.0
    870    871    872    900   5     0.00000    30.33400     0.00000  0.0
    899    871    872    873   5     0.00000    30.33400     0.00000  0.0
    899    871    872    900   5     0.00000    30.33400     0.00000  0.0
    871    872    873    874   5     0.00000    30.33400     0.00000  0.0
    871    872    873    896   5     0.00000    30.33400     0.00000  0.0
    900    872    873    874   5     0.00000    30.33400     0.00000  0.0
    900    872    873    896   5     0.00000    30.33400     0.00000  0.0
    872    873    874    875   5     0.00000     8.36800     0.00000  0.0
    872    873    874    901   5     0.00000     8.36800     0.00000  0.0
    896    873    874    875   5     0.00000     8.36800     0.00000  0.0
    896    873    874    901   5     0.00000     8.36800     0.00000  0.0
    872    873    896    897   5     0.00000    30.33400     0.00000  0.0
    872    873    896    918   5     0.00000    30.33400     0.00000  0.0
    874    873    896    897   5     0.00000    30.33400     0.00000  0.0
    874    873    896    918   5     0.00000    30.33400     0.00000  0.0
    873    874    875    876   5     0.00000     8.36800     0.00000  0.0
    873    874    875    895   5     0.00000     8.36800     0.00000  0.0
    901    874    875    876   5     0.00000     8.36800     0.00000  0.0
    901    874    875    895   5     0.00000     8.36800     0.00000  0.0
    874    875    876    877   5     0.00000    30.33400     0.00000  0.0
    874    875    876    902   5     0.00000    30.33400     0.00000  0.0
    895    875    876    877   5     0.00000    30.33400     0.00000  0.0
    895    875    876    902   5     0.00000    30.33400     0.00000  0.0
    874    875    895    894   5     0.00000    30.33400     0.00000  0.0
    874    875    895    917   5     0.00000    30.33400     0.00000  0.0
    876    875    895    894   5     0.00000    30.33400     0.00000  0.0
    876    875    895    917   5     0.00000    30.33400     0.00000  0.0
    875    876    877    878   5     0.00000    30.33400     0.00000  0.0
    875    876    877    903   5     0.00000    30.33400     0.00000  0.0
    902    876    877    878   5     0.00000    30.33400     0.00000  0.0
    902    876    877    903   5     0.00000    30.33400     0.00000  0.0
    876    877    878    879   5     0.00000    30.33400     0.00000  0.0
    876    877    878    894   5     0.00000    30.33400     0.00000  0.0
    903    877    878    879   5     0.00000    30.33400     0.00000  0.0
    903    877    878    894   5     0.00000    30.33400     0.00000  0.0
    877    878    879    880   5     0.00000     8.36800     0.00000  0.0
    877    878    879    904   5     0.00000     8.36800     0.00000  0.0
    894    878    879    880   5     0.00000     8.36800     0.00000  0.0
    894    878    879    904   5     0.00000     8.36800     0.00000  0.0
    877    878    894    895   5     0.00000    30.33400     0.00000  0.0
    877    878    894    916   5     0.00000    30.33400     0.00000  0.0
    879    878    894    895   5     0.00000    30.33400     0.00000  0.0
    879    878    894    916   5     0.00000    30.33400     0.00000  0.0
    878    879    880    881   5     0.00000     8.36800     0.00000  0.0
    878    879    880    893   5     0.00000     8.36800     0.00000  0.0
    904    879    880    881   5     0.00000     8.36800     0.00000  0.0
    904    879    880    893   5     0.00000     8.36800     0.00000  0.0
    879    880    881    882   5     0.00000    30.33400     0.00000  0.0
    879    880    881    905   5     0.00000    30.33400     0.00000  0.0
    893    880    881    882   5     0.00000    30.33400     0.00000  0.0
    893    880    881    905   5     0.00000    30.33400     0.00000  0.0
    879    880    893    892   5     0.00000    30.33400     0.00000  0.0
    879    880    893    915   5     0.00000    30.33400     0.00000  0.0
    881    880    893    892   5     0.00000    30.33400     0.00000  0.0
    881    880    893    915   5     0.00000    30.33400     0.00000  0.0
    880    881    882    883   5     0.00000    30.33400     0.00000  0.0
    880    881    882    906   5     0.00000    30.33400     0.00000  0.0
    905    881    882    883   5     0.00000    30.33400     0.00000  0.0
    905    881    882    906   5     0.00000    30.33400     0.00000  0.0
    881    882    883    884   5     0.00000    30.33400     0.00000  0.0
    881    882    883    892   5     0.00000    30.33400     0.00000  0.0
    906    882    883    884   5     0.00000    30.33400     0.00000  0.0
    906    882    883    892   5     0.00000    30.33400     0.00000  0.0
    882    883    884    885   5     0.00000     8.36800     0.00000  0.0
    882    883    884    907   5     0.00000     8.36800     0.00000  0.0
    892    883    884    885   5     0.00000     8.36800     0.00000  0.0
    892    883    884    907   5     0.00000     8.36800     0.00000  0.0
    882    883    892    893   5     0.00000    30.33400     0.00000  0.0
    882    883    892    914   5     0.00000    30.33400     0.00000  0.0
    884    883    892    893   5     0.00000    30.33400     0.00000  0.0
    884    883    892    914   5     0.00000    30.33400     0.00000  0.0
    883    884    885    886   5     0.00000     8.36800     0.00000  0.0
    883    884    885    891   5     0.00000     8.36800     0.00000  0.0
    907    884    885    886   5     0.00000     8.36800     0.00000  0.0
    907    884    885    891   5     0.00000     8.36800     0.00000  0.0
    884    885    886    887   5     0.00000    30.33400     0.00000  0.0
    884    885    886    908   5     0.00000    30.33400     0.00000  0.0
    891    885    886    887   5     0.00000    30.33400     0.00000  0.0
    891    885    886    908   5     0.00000    30.33400     0.00000  0.0
    884    885    891    890   5     0.00000    30.33400     0.00000  0.0
    884    885    891    913   5     0.00000    30.33400     0.00000  0.0
    886    885    891    890   5     0.00000    30.33400     0.00000  0.0
    886    885    891    913   5     0.00000    30.33400     0.00000  0.0
    885    886    887    888   5     0.00000    30.33400     0.00000  0.0
    885    886    887    909   5     0.00000    30.33400     0.00000  0.0
    908    886    887    888   5     0.00000    30.33400     0.00000  0.0
    908    886    887    909   5     0.00000    30.33400     0.00000  0.0
    886    887    888    889   5     0.00000    30.33400     0.00000  0.0
    886    887    888    890   5     0.00000    30.33400     0.00000  0.0
    909    887    888    889   5     0.00000    30.33400     0.00000  0.0
    909    887    888    890   5     0.00000    30.33400     0.00000  0.0
    887    888    889    910   5     0.00000     0.00000     0.00000  0.0
    887    888    889    911   5     0.00000     0.00000     0.00000  0.0
    887    888    889    920   5    -0.50208     2.55224     0.76986  0.0
    890    888    889    910   5     0.00000     0.00000     0.00000  0.0
    890    888    889    911   5     0.00000     0.00000     0.00000  0.0
    890    888    889    920   5    -0.50208     2.55224     0.76986  0.0
    887    888    890    891   5     0.00000    30.33400     0.00000  0.0
    887    888    890    912   5     0.00000    30.33400     0.00000  0.0
    889    888    890    891   5     0.00000    30.33400     0.00000  0.0
    889    888    890    912   5     0.00000    30.33400     0.00000  0.0
    888    889    920    921   5    -6.88268     4.64842     3.09198  0.0
    888    889    920    949   5     0.00000     0.00000     0.00000  0.0
    910    889    920    921   5     0.00000     0.00000     0.00000  0.0
    910    889    920    949   5     0.00000     0.00000     0.00000  0.0
    911    889    920    921   5     0.00000     0.00000     0.00000  0.0
    911    889    920    949   5     0.00000     0.00000     0.00000  0.0
    888    890    891    885   5     0.00000    30.33400     0.00000  0.0
    888    890    891    913   5     0.00000    30.33400     0.00000  0.0
    912    890    891    885   5     0.00000    30.33400     0.00000  0.0
    912    890    891    913   5     0.00000    30.33400     0.00000  0.0
    883    892    893    880   5     0.00000    30.33400     0.00000  0.0
    883    892    893    915   5     0.00000    30.33400     0.00000  0.0
    914    892    893    880   5     0.00000    30.33400     0.00000  0.0
    914    892    893    915   5     0.00000    30.33400     0.00000  0.0
    878    894    895    875   5     0.00000    30.33400     0.00000  0.0
    878    894    895    917   5     0.00000    30.33400     0.00000  0.0
    916    894    895    875   5     0.00000    30.33400     0.00000  0.0
    916    894    895    917   5     0.00000    30.33400     0.00000  0.0
    873    896    897    870   5     0.00000    30.33400     0.00000  0.0
    873    896    897    919   5     0.00000    30.33400     0.00000  0.0
    918    896    897    870   5     0.00000    30.33400     0.00000  0.0
    918    896    897    919   5     0.00000    30.33400     0.00000  0.0
    889    920    921    922   5    -8.36800    10.46000     0.00000  0.0
    889    920    921    948   5    -8.36800    10.46000     0.00000  0.0
    949    920    921    922   5     0.00000     8.36800     0.00000  0.0
    949    920    921    948   5     0.00000     8.36800     0.00000  0.0
    920    921    922    923   5     0.00000    30.33400     0.00000  0.0
    920    921    922    950   5     0.00000    30.33400     0.00000  0.0
    948    921    922    923   5     0.00000    30.33400     0.00000  0.0
    948    921    922    950   5     0.00000    30.33400     0.00000  0.0
    920    921    948    947   5     0.00000    30.33400     0.00000  0.0
    920    921    948    970   5     0.00000    30.33400     0.00000  0.0
    922    921    948    947   5     0.00000    30.33400     0.00000  0.0
    922    921    948    970   5     0.00000    30.33400     0.00000  0.0
    921    922    923    924   5     0.00000    30.33400     0.00000  0.0
    921    922    923    951   5     0.00000    30.33400     0.00000  0.0
    950    922    923    924   5     0.00000    30.33400     0.00000  0.0
    950    922    923    951   5     0.00000    30.33400     0.00000  0.0
    922    923    924    925   5     0.00000    30.33400     0.00000  0.0
    922    923    924    947   5     0.00000    30.33400     0.00000  0.0
    951    923    924    925   5     0.00000    30.33400     0.00000  0.0
    951    923    924    947   5     0.00000    30.33400     0.00000  0.0
    923    924    925    926   5     0.00000     8.36800     0.00000  0.0
    923    924    925    952   5     0.00000     8.36800     0.00000  0.0
    947    924    925    926   5     0.00000     8.36800     0.00000  0.0
    947    924    925    952   5     0.00000     8.36800     0.00000  0.0
    923    924    947    948   5     0.00000    30.33400     0.00000  0.0
    923    924    947    969   5     0.00000    30.33400     0.00000  0.0
    925    924    947    948   5     0.00000    30.33400     0.00000  0.0
    925    924    947    969   5     0.00000    30.33400     0.00000  0.0
    924    925    926    927   5     0.00000     8.36800     0.00000  0.0
    924    925    926    946   5     0.00000     8.36800     0.00000  0.0
    952    925    926    927   5     0.00000     8.36800     0.00000  0.0
    952    925    926    946   5     0.00000     8.36800     0.00000  0.0
    925    926    927    928   5     0.00000    30.33400     0.00000  0.0
    925    926    927    953   5     0.00000    30.33400     0.00000  0.0
    946    926    927    928   5     0.00000    30.33400     0.00000  0.0
    946    926    927    953   5     0.00000    30.33400     0.00000  0.0
    925    926    946    945   5     0.00000    30.33400     0.00000  0.0
    925    926    946    968   5     0.00000    30.33400     0.00000  0.0
    927    926    946    945   5     0.00000    30.33400     0.00000  0.0
    927    926    946    968   5     0.00000    30.33400     0.00000  0.0
    926    927    928    929   5     0.00000    30.33400     0.00000  0.0
    926    927    928    954   5     0.00000    30.33400     0.00000  0.0
    953    927    928    929   5     0.00000    30.33400     0.00000  0.0
    953    927    928    954   5     0.00000    30.33400     0.00000  0.0
    927    928    929    930   5     0.00000    30.33400     0.00000  0.0
    927    928    929    945   5     0.00000    30.33400     0.00000  0.0
    954    928    929    930   5     0.00000    30.33400     0.00000  0.0
    954    928    929    945   5     0.00000    30.33400     0.00000  0.0
    928    929    930    931   5     0.00000     8.36800     0.00000  0.0
    928    929    930    955   5     0.00000     8.36800     0.00000  0.0
    945    929    930    931   5     0.00000     8.36800     0.00000  0.0
    945    929    930    955   5     0.00000     8.36800     0.00000  0.0
    928    929    945    946   5     0.00000    30.33400     0.00000  0.0
    928    929    945    967   5     0.00000    30.33400     0.00000  0.0
    930    929    945    946   5     0.00000    30.33400     0.00000  0.0
    930    929    945    967   5     0.00000    30.33400     0.00000  0.0
    929    930    931    932   5     0.00000     8.36800     0.00000  0.0
    929    930    931    944   5     0.00000     8.36800     0.00000  0.0
    955    930    931    932   5     0.00000     8.36800     0.00000  0.0
    955    930    931    944   5     0.00000     8.36800     0.00000  0.0
    930    931    932    933   5     0.00000    30.33400     0.00000  0.0
    930    931    932    956   5     0.00000    30.33400     0.00000  0.0
    944    931    932    933   5     0.00000    30.33400     0.00000  0.0
    944    931    932    956   5     0.00000    30.33400     0.00000  0.0
    930    931    944    943   5     0.00000    30.33400     0.00000  0.0
    930    931    944    966   5     0.00000    30.33400     0.00000  0.0
    932    931    944    943   5     0.00000    30.33400     0.00000  0.0
    932    931    944    966   5     0.00000    30.33400     0.00000  0.0
    931    932    933    934   5     0.00000    30.33400     0.00000  0.0
    931    932    933    957   5     0.00000    30.33400     0.00000  0.0
    956    932    933    934   5     0.00000    30.33400     0.00000  0.0
    956    932    933    957   5     0.00000    30.33400     0.00000  0.0
    932    933    934    935   5     0.00000    30.33400     0.00000  0.0
    932    933    934    943   5     0.00000    30.33400     0.00000  0.0
    957    933    934    935   5     0.00000    30.33400     0.00000  0.0
    957    933    934    943   5     0.00000    30.33400     0.00000  0.0
    933    934    935    936   5     0.00000     8.36800     0.00000  0.0
    933    934    935    958   5     0.00000     8.36800     0.00000  0.0
    943    934    935    936   5     0.00000     8.36800     0.00000  0.0
    943    934    935    958   5     0.00000     8.36800     0.00000  0.0
    933    934    943    944   5     0.00000    30.33400     0.00000  0.0
    933    934    943    965   5     0.00000    30.33400     0.00000  0.0
    935    934    943    944   5     0.00000    30.33400     0.00000  0.0
    935    934    943    965   5     0.00000    30.33400     0.00000  0.0
    934    935    936    937   5     0.00000     8.36800     0.00000  0.0
    934    935    936    942   5     0.00000     8.36800     0.00000  0.0
    958    935    936    937   5     0.00000     8.36800     0.00000  0.0
    958    935    936    942   5     0.00000     8.36800     0.00000  0.0
    935    936    937    938   5     0.00000    30.33400     0.00000  0.0
    935    936    937    959   5     0.00000    30.33400     0.00000  0.0
    942    936    937    938   5     0.00000    30.33400     0.00000  0.0
    942    936    937    959   5     0.00000    30.33400     0.00000  0.0
    935    936    942    941   5     0.00000    30.33400     0.00000  0.0
    935    936    942    964   5     0.00000    30.33400     0.00000  0.0
    937    936    942    941   5     0.00000    30.33400     0.00000  0.0
    937    936    942    964   5     0.00000    30.33400     0.00000  0.0
    936    937    938    939   5     0.00000    30.33400     0.00000  0.0
    936    937    938    960   5     0.00000    30.33400     0.00000  0.0
    959    937    938    939   5     0.00000    30.33400     0.00000  0.0
    959    937    938    960   5     0.00000    30.33400     0.00000  0.0
    937    938    939    940   5     0.00000    30.33400     0.00000  0.0
    937    938    939    941   5     0.00000    30.33400     0.00000  0.0
    960    938    939    940   5     0.00000    30.33400     0.00000  0.0
    960    938    939    941   5     0.00000    30.33400     0.00000  0.0
    938    939    940    961   5     0.00000     0.00000     0.00000  0.0
    938    939    940    962   5     0.00000     0.00000     0.00000  0.0
    938    939    940    971   5    -0.50208     2.55224     0.76986  0.0
    941    939    940    961   5     0.00000     0.00000     0.00000  0.0
    941    939    940    962   5     0.00000     0.00000     0.00000  0.0
    941    939    940    971   5    -0.50208     2.55224     0.76986  0.0
    938    939    941    942   5     0.00000    30.33400     0.00000  0.0
    938    939    941    963   5     0.00000    30.33400     0.00000  0.0
    940    939    941    942   5     0.00000    30.33400     0.00000  0.0
    940    939    941    963   5     0.00000    30.33400     0.00000  0.0
    939    940    971    972   5    -6.88268     4.64842     3.09198  0.0
    939    940    971   1000   5     0.00000     0.00000     0.00000  0.0
    961    940    971    972   5     0.00000     0.00000     0.00000  0.0
    961    940    971   1000   5     0.00000     0.00000     0.00000  0.0
    962    940    971    972   5     0.00000     0.00000     0.00000  0.0
    962    940    971   1000   5     0.00000     0.00000     0.00000  0.0
    939    941    942    936   5     0.00000    30.33400     0.00000  0.0
    939    941    942    964   5     0.00000    30.33400     0.00000  0.0
    963    941    942    936   5     0.00000    30.33400     0.00000  0.0
    963    941    942    964   5     0.00000    30.33400     0.00000  0.0
    934    943    944    931   5     0.00000    30.33400     0.00000  0.0
    934    943    944    966   5     0.00000    30.33400     0.00000  0.0
    965    943    944    931   5     0.00000    30.33400     0.00000  0.0
    965    943    944    966   5     0.00000    30.33400     0.00000  0.0
    929    945    946    926   5     0.00000    30.33400     0.00000  0.0
    929    945    946    968   5     0.00000    30.33400     0.00000  0.0
    967    945    946    926   5     0.00000    30.33400     0.00000  0.0
    967    945    946    968   5     0.00000    30.33400     0.00000  0.0
    924    947    948    921   5     0.00000    30.33400     0.00000  0.0
    924    947    948    970   5     0.00000    30.33400     0.00000  0.0
    969    947    948    921   5     0.00000    30.33400     0.00000  0.0
    969    947    948    970   5     0.00000    30.33400     0.00000  0.0
    940    971    972    973   5    -8.36800    10.46000     0.00000  0.0
    940    971    972    999   5    -8.36800    10.46000     0.00000  0.0
   1000    971    972    973   5     0.00000     8.36800     0.00000  0.0
   1000    971    972    999   5     0.00000     8.36800     0.00000  0.0
    971    972    973    974   5     0.00000    30.33400     0.00000  0.0
    971    972    973   1001   5     0.00000    30.33400     0.00000  0.0
    999    972    973    974   5     0.00000    30.33400     0.00000  0.0
    999    972    973   1001   5     0.00000    30.33400     0.00000  0.0
    971    972    999    998   5     0.00000    30.33400     0.00000  0.0
    971    972    999   1021   5     0.00000    30.33400     0.00000  0.0
    973    972    999    998   5     0.00000    30.33400     0.00000  0.0
    973    972    999   1021   5     0.00000    30.33400     0.00000  0.0
    972    973    974    975   5     0.00000    30.33400     0.00000  0.0
    972    973    974   1002   5     0.00000    30.33400     0.00000  0.0
   1001    973    974    975   5     0.00000    30.33400     0.00000  0.0
   1001    973    974   1002   5     0.00000    30.33400     0.00000  0.0
    973    974    975    976   5     0.00000    30.33400     0.00000  0.0
    973    974    975    998   5     0.00000    30.33400     0.00000  0.0
   1002    974    975    976   5     0.00000    30.33400     0.00000  0.0
   1002    974    975    998   5     0.00000    30.33400     0.00000  0.0
    974    975    976    977   5     0.00000     8.36800     0.00000  0.0
    974    975    976   1003   5     0.00000     8.36800     0.00000  0.0
    998    975    976    977   5     0.00000     8.36800     0.00000  0.0
    998    975    976   1003   5     0.00000     8.36800     0.00000  0.0
    974    975    998    999   5     0.00000    30.33400     0.00000  0.0
    974    975    998   1020   5     0.00000    30.33400     0.00000  0.0
    976    975    998    999   5     0.00000    30.33400     0.00000  0.0
    976    975    998   1020   5     0.00000    30.33400     0.00000  0.0
    975    976    977    978   5     0.00000     8.36800     0.00000  0.0
    975    976    977    997   5     0.00000     8.36800     0.00000  0.0
   1003    976    977    978   5     0.00000     8.36800     0.00000  0.0
   1003    976    977    997   5     0.00000     8.36800     0.00000  0.0
    976    977    978    979   5     0.00000    30.33400     0.00000  0.0
    976    977    978   1004   5     0.00000    30.33400     0.00000  0.0
    997    977    978    979   5     0.00000    30.33400     0.00000  0.0
    997    977    978   1004   5     0.00000    30.33400     0.00000  0.0
    976    977    997    996   5     0.00000    30.33400     0.00000  0.0
    976    977    997   1019   5     0.00000    30.33400     0.00000  0.0
    978    977    997    996   5     0.00000    30.33400     0.00000  0.0
    978    977    997   1019   5     0.00000    30.33400     0.00000  0.0
    977    978    979    980   5     0.00000    30.33400     0.00000  0.0
    977    978    979   1005   5     0.00000    30.33400     0.00000  0.0
   1004    978    979    980   5     0.00000    30.33400     0.00000  0.0
   1004    978    979   1005   5     0.00000    30.33400     0.00000  0.0
    978    979    980    981   5     0.00000    30.33400     0.00000  0.0
    978    979    980    996   5     0.00000    30.33400     0.00000  0.0
   1005    979    980    981   5     0.00000    30.33400     0.00000  0.0
   1005    979    980    996   5     0.00000    30.33400     0.00000  0.0
    979    980    981    982   5     0.00000     8.36800     0.00000  0.0
    979    980    981   1006   5     0.00000     8.36800     0.00000  0.0
    996    980    981    982   5     0.00000     8.36800     0.00000  0.0
    996    980    981   1006   5     0.00000     8.36800     0.00000  0.0
    979    980    996    997   5     0.00000    30.33400     0.00000  0.0
    979    980    996   1018   5     0.00000    30.33400     0.00000  0.0
    981    980    996    997   5     0.00000    30.33400     0.00000  0.0
    981    980    996   1018   5     0.00000    30.33400     0.00000  0.0
    980    981    982    983   5     0.00000     8.36800     0.00000  0.0
    980    981    982    995   5     0.00000     8.36800     0.00000  0.0
   1006    981    982    983   5     0.00000     8.36800     0.00000  0.0
   1006    981    982    995   5     0.00000     8.36800     0.00000  0.0
    981    982    983    984   5     0.00000    30.33400     0.00000  0.0
    981    982    983   1007   5     0.00000    30.33400     0.00000  0.0
    995    982    983    984   5     0.00000    30.33400     0.00000  0.0
    995    982    983   1007   5     0.00000    30.33400     0.00000  0.0
    981    982    995    994   5     0.00000    30.33400     0.00000  0.0
    981    982    995   1017   5     0.00000    30.33400     0.00000  0.0
    983    982    995    994   5     0.00000    30.33400     0.00000  0.0
    983    982    995   1017   5     0.00000    30.33400     0.00000  0.0
    982    983    984    985   5     0.00000    30.33400     0.00000  0.0
    982    983    984   1008   5     0.00000    30.33400     0.00000  0.0
   1007    983    984    985   5     0.00000    30.33400     0.00000  0.0
   1007    983    984   1008   5     0.00000    30.33400     0.00000  0.0
    983    984    985    986   5     0.00000    30.33400     0.00000  0.0
    983    984    985    994   5     0.00000    30.33400     0.00000  0.0
   1008    984    985    986   5     0.00000    30.33400     0.00000  0.0
   1008    984    985    994   5     0.00000    30.33400     0.00000  0.0
    984    985    986    987   5     0.00000     8.36800     0.00000  0.0
    984    985    986   1009   5     0.00000     8.36800     0.00000  0.0
    994    985    986    987   5     0.00000     8.36800     0.00000  0.0
    994    985    986   1009   5     0.00000     8.36800     0.00000  0.0
    984    985    994    995   5     0.00000    30.33400     0.00000  0.0
    984    985    994   1016   5     0.00000    30.33400     0.00000  0.0
    986    985    994    995   5     0.00000    30.33400     0.00000  0.0
    986    985    994   1016   5     0.00000    30.33400     0.00000  0.0
    985    986    987    988   5     0.00000     8.36800     0.00000  0.0
    985    986    987    993   5     0.00000     8.36800     0.00000  0.0
   1009    986    987    988   5     0.00000     8.36800     0.00000  0.0
   1009    986    987    993   5     0.00000     8.36800     0.00000  0.0
    986    987    988    989   5     0.00000    30.33400     0.00000  0.0
    986    987    988   1010   5     0.00000    30.33400     0.00000  0.0
    993    987    988    989   5     0.00000    30.33400     0.00000  0.0
    993    987    988   1010   5     0.00000    30.33400     0.00000  0.0
    986    987    993    992   5     0.00000    30.33400     0.00000  0.0
    986    987    993   1015   5     0.00000    30.33400     0.00000  0.0
    988    987    993    992   5     0.00000    30.33400     0.00000  0.0
    988    987    993   1015   5     0.00000    30.33400     0.00000  0.0
    987    988    989    990   5     0.00000    30.33400     0.00000  0.0
    987    988    989   1011   5     0.00000    30.33400     0.00000  0.0
   1010    988    989    990   5     0.00000    30.33400     0.00000  0.0
   1010    988    989   1011   5     0.00000    30.33400     0.00000  0.0
    988    989    990    991   5     0.00000    30.33400     0.00000  0.0
    988    989    990    992   5     0.00000    30.33400     0.00000  0.0
   1011    989    990    991   5     0.00000    30.33400     0.00000  0.0
   1011    989    990    992   5     0.00000    30.33400     0.00000  0.0
    989    990    991   1012   5     0.00000     0.00000     0.00000  0.0
    989    990    991   1013   5     0.00000     0.00000     0.00000  0.0
    989    990    991   1022   5     0.00000     0.00000     0.00000  0.0
    992    990    991   1012   5     0.00000     0.00000     0.00000  0.0
    992    990    991   1013   5     0.00000     0.00000     0.00000  0.0
    992    990    991   1022   5     0.00000     0.00000     0.00000  0.0
    989    990    992    993   5     0.00000    30.33400     0.00000  0.0
    989    990    992   1014   5     0.00000    30.33400     0.00000  0.0
    991    990    992    993   5     0.00000    30.33400     0.00000  0.0
    991    990    992   1014   5     0.00000    30.33400     0.00000  0.0
    990    992    993    987   5     0.00000    30.33400     0.00000  0.0
    990    992    993   1015   5     0.00000    30.33400     0.00000  0.0
   1014    992    993    987   5     0.00000    30.33400     0.00000  0.0
   1014    992    993   1015   5     0.00000    30.33400     0.00000  0.0
    985    994    995    982   5     0.00000    30.33400     0.00000  0.0
    985    994    995   1017   5     0.00000    30.33400     0.00000  0.0
   1016    994    995    982   5     0.00000    30.33400     0.00000  0.0
   1016    994    995   1017   5     0.00000    30.33400     0.00000  0.0
    980    996    997    977   5     0.00000    30.33400     0.00000  0.0
    980    996    997   1019   5     0.00000    30.33400     0.00000  0.0
   1018    996    997    977   5     0.00000    30.33400     0.00000  0.0
   1018    996    997   1019   5     0.00000    30.33400     0.00000  0.0
    975    998    999    972   5     0.00000    30.33400     0.00000  0.0
    975    998    999   1021   5     0.00000    30.33400     0.00000  0.0
   1020    998    999    972   5     0.00000    30.33400     0.00000  0.0
   1020    998    999   1021   5     0.00000    30.33400     0.00000  0.0

[ dihedrals ]
; Improper dihedrals
; h   i   j   k   funct
      2     30      1     52   5     0.00000     8.36800     0.00000  0.0
      1      3      2     29   5     0.00000    33.47200     0.00000  0.0
      2      4      3     31   5     0.00000     9.20480     0.00000  0.0
      3      5      4     32   5     0.00000     9.20480     0.00000  0.0
      4      6      5     28   5     0.00000    33.47200     0.00000  0.0
      5      7      6     33   5     0.00000     8.36800     0.00000  0.0
      6      8      7     27   5     0.00000    33.47200     0.00000  0.0
      7      9      8     34   5     0.00000     9.20480     0.00000  0.0
      8     10      9     35   5     0.00000     9.20480     0.00000  0.0
      9     11     10     26   5     0.00000    33.47200     0.00000  0.0
     10     12     11     36   5     0.00000     8.36800     0.00000  0.0
     11     13     12     25   5     0.00000    33.47200     0.00000  0.0
     12     14     13     37   5     0.00000     9.20480     0.00000  0.0
     13     15     14     38   5     0.00000     9.20480     0.00000  0.0
     14     16     15     24   5     0.00000    33.47200     0.00000  0.0
     15     17     16     39   5     0.00000     8.36800     0.00000  0.0
     16     18     17     23   5     0.00000    33.47200     0.00000  0.0
     17     19     18     40   5     0.00000     9.20480     0.00000  0.0
     18     20     19     41   5     0.00000     9.20480     0.00000  0.0
     19     21     20     22   5     0.00000    33.47200     0.00000  0.0
     20     23     22     44   5     0.00000     9.20480     0.00000  0.0
     17     22     23     45   5     0.00000     9.20480     0.00000  0.0
     15     25     24     46   5     0.00000     9.20480     0.00000  0.0
     12     24     25     47   5     0.00000     9.20480     0.00000  0.0
     10     27     26     48   5     0.00000     9.20480     0.00000  0.0
      7     26     27     49   5     0.00000     9.20480     0.00000  0.0
      5     29     28     50   5     0.00000     9.20480     0.00000  0.0
      2     28     29     51   5     0.00000     9.20480     0.00000  0.0
     21     54     53     82   5     0.00000     8.36800     0.00000  0.0
     53     55     54     81   5     0.00000    33.47200     0.00000  0.0
     54     56     55     83   5     0.00000     9.20480     0.00000  0.0
     55     57     56     84   5     0.00000     9.20480     0.00000  0.0
     56     58     57     80   5     0.00000    33.47200     0.00000  0.0
     57     59     58     85   5     0.00000     8.36800     0.00000  0.0
     58     60     59     79   5     0.00000    33.47200     0.00000  0.0
     59     61     60     86   5     0.00000     9.20480     0.00000  0.0
     60     62     61     87   5     0.00000     9.20480     0.00000  0.0
     61     63     62     78   5     0.00000    33.47200     0.00000  0.0
     62     64     63     88   5     0.00000     8.36800     0.00000  0.0
     63     65     64     77   5     0.00000    33.47200     0.00000  0.0
     64     66     65     89   5     0.00000     9.20480     0.00000  0.0
     65     67     66     90   5     0.00000     9.20480     0.00000  0.0
     66     68     67     76   5     0.00000    33.47200     0.00000  0.0
     67     69     68     91   5     0.00000     8.36800     0.00000  0.0
     68     70     69     75   5     0.00000    33.47200     0.00000  0.0
     69     71     70     92   5     0.00000     9.20480     0.00000  0.0
     70     72     71     93   5     0.00000     9.20480     0.00000  0.0
     71     73     72     74   5     0.00000    33.47200     0.00000  0.0
     72     75     74     96   5     0.00000     9.20480     0.00000  0.0
     69     74     75     97   5     0.00000     9.20480     0.00000  0.0
     67     77     76     98   5     0.00000     9.20480     0.00000  0.0
     64     76     77     99   5     0.00000     9.20480     0.00000  0.0
     62     79     78    100   5     0.00000     9.20480     0.00000  0.0
     59     78     79    101   5     0.00000     9.20480     0.00000  0.0
     57     81     80    102   5     0.00000     9.20480     0.00000  0.0
     54     80     81    103   5     0.00000     9.20480     0.00000  0.0
     73    105    104    133   5     0.00000     8.36800     0.00000  0.0
    104    106    105    132   5     0.00000    33.47200     0.00000  0.0
    105    107    106    134   5     0.00000     9.20480     0.00000  0.0
    106    108    107    135   5     0.00000     9.20480     0.00000  0.0
    107    109    108    131   5     0.00000    33.47200     0.00000  0.0
    108    110    109    136   5     0.00000     8.36800     0.00000  0.0
    109    111    110    130   5     0.00000    33.47200     0.00000  0.0
    110    112    111    137   5     0.00000     9.20480     0.00000  0.0
    111    113    112    138   5     0.00000     9.20480     0.00000  0.0
    112    114    113    129   5     0.00000    33.47200     0.00000  0.0
    113    115    114    139   5     0.00000     8.36800     0.00000  0.0
    114    116    115    128   5     0.00000    33.47200     0.00000  0.0
    115    117    116    140   5     0.00000     9.20480     0.00000  0.0
    116    118    117    141   5     0.00000     9.20480     0.00000  0.0
    117    119    118    127   5     0.00000    33.47200     0.00000  0.0
    118    120    119    142   5     0.00000     8.36800     0.00000  0.0
    119    121    120    126   5     0.00000    33.47200     0.00000  0.0
    120    122    121    143   5     0.00000     9.20480     0.00000  0.0
    121    123    122    144   5     0.00000     9.20480     0.00000  0.0
    122    124    123    125   5     0.00000    33.47200     0.00000  0.0
    123    126    125    147   5     0.00000     9.20480     0.00000  0.0
    120    125    126    148   5     0.00000     9.20480     0.00000  0.0
    118    128    127    149   5     0.00000     9.20480     0.00000  0.0
    115    127    128    150   5     0.00000     9.20480     0.00000  0.0
    113    130    129    151   5     0.00000     9.20480     0.00000  0.0
    110    129    130    152   5     0.00000     9.20480     0.00000  0.0
    108    132    131    153   5     0.00000     9.20480     0.00000  0.0
    105    131    132    154   5     0.00000     9.20480     0.00000  0.0
    124    156    155    184   5     0.00000     8.36800     0.00000  0.0
    155    157    156    183   5     0.00000    33.47200     0.00000  0.0
    156    158    157    185   5     0.00000     9.20480     0.00000  0.0
    157    159    158    186   5     0.00000     9.20480     0.00000  0.0
    158    160    159    182   5     0.00000    33.47200     0.00000  0.0
    159    161    160    187   5     0.00000     8.36800     0.00000  0.0
    160    162    161    181   5     0.00000    33.47200     0.00000  0.0
    161    163    162    188   5     0.00000     9.20480     0.00000  0.0
    162    164    163    189   5     0.00000     9.20480     0.00000  0.0
    163    165    164    180   5     0.00000    33.47200     0.00000  0.0
    164    166    165    190   5     0.00000     8.36800     0.00000  0.0
    165    167    166    179   5     0.00000    33.47200     0.00000  0.0
    166    168    167    191   5     0.00000     9.20480     0.00000  0.0
    167    169    168    192   5     0.00000     9.20480     0.00000  0.0
    168    170    169    178   5     0.00000    33.47200     0.00000  0.0
    169    171    170    193   5     0.00000     8.36800     0.00000  0.0
    170    172    171    177   5     0.00000    33.47200     0.00000  0.0
    171    173    172    194   5     0.00000     9.20480     0.00000  0.0
    172    174    173    195   5     0.00000     9.20480     0.00000  0.0
    173    175    174    176   5     0.00000    33.47200     0.00000  0.0
    174    177    176    198   5     0.00000     9.20480     0.00000  0.0
    171    176    177    199   5     0.00000     9.20480     0.00000  0.0
    169    179    178    200   5     0.00000     9.20480     0.00000  0.0
    166    178    179    201   5     0.00000     9.20480     0.00000  0.0
    164    181    180    202   5     0.00000     9.20480     0.00000  0.0
    161    180    181    203   5     0.00000     9.20480     0.00000  0.0
    159    183    182    204   5     0.00000     9.20480     0.00000  0.0
    156    182    183    205   5     0.00000     9.20480     0.00000  0.0
    175    207    206    235   5     0.00000     8.36800     0.00000  0.0
    206    208    207    234   5     0.00000    33.47200     0.00000  0.0
    207    209    208    236   5     0.00000     9.20480     0.00000  0.0
    208    210    209    237   5     0.00000     9.20480     0.00000  0.0
    209    211    210    233   5     0.00000    33.47200     0.00000  0.0
    210    212    211    238   5     0.00000     8.36800     0.00000  0.0
    211    213    212    232   5     0.00000    33.47200     0.00000  0.0
    212    214    213    239   5     0.00000     9.20480     0.00000  0.0
    213    215    214    240   5     0.00000     9.20480     0.00000  0.0
    214    216    215    231   5     0.00000    33.47200     0.00000  0.0
    215    217    216    241   5     0.00000     8.36800     0.00000  0.0
    216    218    217    230   5     0.00000    33.47200     0.00000  0.0
    217    219    218    242   5     0.00000     9.20480     0.00000  0.0
    218    220    219    243   5     0.00000     9.20480     0.00000  0.0
    219    221    220    229   5     0.00000    33.47200     0.00000  0.0
    220    222    221    244   5     0.00000     8.36800     0.00000  0.0
    221    223    222    228   5     0.00000    33.47200     0.00000  0.0
    222    224    223    245   5     0.00000     9.20480     0.00000  0.0
    223    225    224    246   5     0.00000     9.20480     0.00000  0.0
    224    226    225    227   5     0.00000    33.47200     0.00000  0.0
    225    228    227    249   5     0.00000     9.20480     0.00000  0.0
    222    227    228    250   5     0.00000     9.20480     0.00000  0.0
    220    230    229    251   5     0.00000     9.20480     0.00000  0.0
    217    229    230    252   5     0.00000     9.20480     0.00000  0.0
    215    232    231    253   5     0.00000     9.20480     0.00000  0.0
    212    231    232    254   5     0.00000     9.20480     0.00000  0.0
    210    234    233    255   5     0.00000     9.20480     0.00000  0.0
    207    233    234    256   5     0.00000     9.20480     0.00000  0.0
    226    258    257    286   5     0.00000     8.36800     0.00000  0.0
    257    259    258    285   5     0.00000    33.47200     0.00000  0.0
    258    260    259    287   5     0.00000     9.20480     0.00000  0.0
    259    261    260    288   5     0.00000     9.20480     0.00000  0.0
    260    262    261    284   5     0.00000    33.47200     0.00000  0.0
    261    263    262    289   5     0.00000     8.36800     0.00000  0.0
    262    264    263    283   5     0.00000    33.47200     0.00000  0.0
    263    265    264    290   5     0.00000     9.20480     0.00000  0.0
    264    266    265    291   5     0.00000     9.20480     0.00000  0.0
    265    267    266    282   5     0.00000    33.47200     0.00000  0.0
    266    268    267    292   5     0.00000     8.36800     0.00000  0.0
    267    269    268    281   5     0.00000    33.47200     0.00000  0.0
    268    270    269    293   5     0.00000     9.20480     0.00000  0.0
    269    271    270    294   5     0.00000     9.20480     0.00000  0.0
    270    272    271    280   5     0.00000    33.47200     0.00000  0.0
    271    273    272    295   5     0.00000     8.36800     0.00000  0.0
    272    274    273    279   5     0.00000    33.47200     0.00000  0.0
    273    275    274    296   5     0.00000     9.20480     0.00000  0.0
    274    276    275    297   5     0.00000     9.20480     0.00000  0.0
    275    277    276    278   5     0.00000    33.47200     0.00000  0.0
    276    279    278    300   5     0.00000     9.20480     0.00000  0.0
    273    278    279    301   5     0.00000     9.20480     0.00000  0.0
    271    281    280    302   5     0.00000     9.20480     0.00000  0.0
    268    280    281    303   5     0.00000     9.20480     0.00000  0.0
    266    283    282    304   5     0.00000     9.20480     0.00000  0.0
    263    282    283    305   5     0.00000     9.20480     0.00000  0.0
    261    285    284    306   5     0.00000     9.20480     0.00000  0.0
    258    284    285    307   5     0.00000     9.20480     0.00000  0.0
    277    309    308    337   5     0.00000     8.36800     0.00000  0.0
    308    310    309    336   5     0.00000    33.47200     0.00000  0.0
    309    311    310    338   5     0.00000     9.20480     0.00000  0.0
    310    312    311    339   5     0.00000     9.20480     0.00000  0.0
    311    313    312    335   5     0.00000    33.47200     0.00000  0.0
    312    314    313    340   5     0.00000     8.36800     0.00000  0.0
    313    315    314    334   5     0.00000    33.47200     0.00000  0.0
    314    316    315    341   5     0.00000     9.20480     0.00000  0.0
    315    317    316    342   5     0.00000     9.20480     0.00000  0.0
    316    318    317    333   5     0.00000    33.47200     0.00000  0.0
    317    319    318    343   5     0.00000     8.36800     0.00000  0.0
    318    320    319    332   5     0.00000    33.47200     0.00000  0.0
    319    321    320    344   5     0.00000     9.20480     0.00000  0.0
    320    322    321    345   5     0.00000     9.20480     0.00000  0.0
    321    323    322    331   5     0.00000    33.47200     0.00000  0.0
    322    324    323    346   5     0.00000     8.36800     0.00000  0.0
    323    325    324    330   5     0.00000    33.47200     0.00000  0.0
    324    326    325    347   5     0.00000     9.20480     0.00000  0.0
    325    327    326    348   5     0.00000     9.20480     0.00000  0.0
    326    328    327    329   5     0.00000    33.47200     0.00000  0.0
    327    330    329    351   5     0.00000     9.20480     0.00000  0.0
    324    329    330    352   5     0.00000     9.20480     0.00000  0.0
    322    332    331    353   5     0.00000     9.20480     0.00000  0.0
    319    331    332    354   5     0.00000     9.20480     0.00000  0.0
    317    334    333    355   5     0.00000     9.20480     0.00000  0.0
    314    333    334    356   5     0.00000     9.20480     0.00000  0.0
    312    336    335    357   5     0.00000     9.20480     0.00000  0.0
    309    335    336    358   5     0.00000     9.20480     0.00000  0.0
    328    360    359    388   5     0.00000     8.36800     0.00000  0.0
    359    361    360    387   5     0.00000    33.47200     0.00000  0.0
    360    362    361    389   5     0.00000     9.20480     0.00000  0.0
    361    363    362    390   5     0.00000     9.20480     0.00000  0.0
    362    364    363    386   5     0.00000    33.47200     0.00000  0.0
    363    365    364    391   5     0.00000     8.36800     0.00000  0.0
    364    366    365    385   5     0.00000    33.47200     0.00000  0.0
    365    367    366    392   5     0.00000     9.20480     0.00000  0.0
    366    368    367    393   5     0.00000     9.20480     0.00000  0.0
    367    369    368    384   5     0.00000    33.47200     0.00000  0.0
    368    370    369    394   5     0.00000     8.36800     0.00000  0.0
    369    371    370    383   5     0.00000    33.47200     0.00000  0.0
    370    372    371    395   5     0.00000     9.20480     0.00000  0.0
    371    373    372    396   5     0.00000     9.20480     0.00000  0.0
    372    374    373    382   5     0.00000    33.47200     0.00000  0.0
    373    375    374    397   5     0.00000     8.36800     0.00000  0.0
    374    376    375    381   5     0.00000    33.47200     0.00000  0.0
    375    377    376    398   5     0.00000     9.20480     0.00000  0.0
    376    378    377    399   5     0.00000     9.20480     0.00000  0.0
    377    379    378    380   5     0.00000    33.47200     0.00000  0.0
    378    381    380    402   5     0.00000     9.20480     0.00000  0.0
    375    380    381    403   5     0.00000     9.20480     0.00000  0.0
    373    383    382    404   5     0.00000     9.20480     0.00000  0.0
    370    382    383    405   5     0.00000     9.20480     0.00000  0.0
    368    385    384    406   5     0.00000     9.20480     0.00000  0.0
    365    384    385    407   5     0.00000     9.20480     0.00000  0.0
    363    387    386    408   5     0.00000     9.20480     0.00000  0.0
    360    386    387    409   5     0.00000     9.20480     0.00000  0.0
    379    411    410    439   5     0.00000     8.36800     0.00000  0.0
    410    412    411    438   5     0.00000    33.47200     0.00000  0.0
    411    413    412    440   5     0.00000     9.20480     0.00000  0.0
    412    414    413    441   5     0.00000     9.20480     0.00000  0.0
    413    415    414    437   5     0.00000    33.47200     0.00000  0.0
    414    416    415    442   5     0.00000     8.36800     0.00000  0.0
    415    417    416    436   5     0.00000    33.47200     0.00000  0.0
    416    418    417    443   5     0.00000     9.20480     0.00000  0.0
    417    419    418    444   5     0.00000     9.20480     0.00000  0.0
    418    420    419    435   5     0.00000    33.47200     0.00000  0.0
    419    421    420    445   5     0.00000     8.36800     0.00000  0.0
    420    422    421    434   5     0.00000    33.47200     0.00000  0.0
    421    423    422    446   5     0.00000     9.20480     0.00000  0.0
    422    424    423    447   5     0.00000     9.20480     0.00000  0.0
    423    425    424    433   5     0.00000    33.47200     0.00000  0.0
    424    426    425    448   5     0.00000     8.36800     0.00000  0.0
    425    427    426    432   5     0.00000    33.47200     0.00000  0.0
    426    428    427    449   5     0.00000     9.20480     0.00000  0.0
    427    429    428    450   5     0.00000     9.20480     0.00000  0.0
    428    430    429    431   5     0.00000    33.47200     0.00000  0.0
    429    432    431    453   5     0.00000     9.20480     0.00000  0.0
    426    431    432    454   5     0.00000     9.20480     0.00000  0.0
    424    434    433    455   5     0.00000     9.20480     0.00000  0.0
    421    433    434    456   5     0.00000     9.20480     0.00000  0.0
    419    436    435    457   5     0.00000     9.20480     0.00000  0.0
    416    435    436    458   5     0.00000     9.20480     0.00000  0.0
    414    438    437    459   5     0.00000     9.20480     0.00000  0.0
    411    437    438    460   5     0.00000     9.20480     0.00000  0.0
    430    462    461    490   5     0.00000     8.36800     0.00000  0.0
    461    463    462    489   5     0.00000    33.47200     0.00000  0.0
    462    464    463    491   5     0.00000     9.20480     0.00000  0.0
    463    465    464    492   5     0.00000     9.20480     0.00000  0.0
    464    466    465    488   5     0.00000    33.47200     0.00000  0.0
    465    467    466    493   5     0.00000     8.36800     0.00000  0.0
    466    468    467    487   5     0.00000    33.47200     0.00000  0.0
    467    469    468    494   5     0.00000     9.20480     0.00000  0.0
    468    470    469    495   5     0.00000     9.20480     0.00000  0.0
    469    471    470    486   5     0.00000    33.47200     0.00000  0.0
    470    472    471    496   5     0.00000     8.36800     0.00000  0.0
    471    473    472    485   5     0.00000    33.47200     0.00000  0.0
    472    474    473    497   5     0.00000     9.20480     0.00000  0.0
    473    475    474    498   5     0.00000     9.20480     0.00000  0.0
    474    476    475    484   5     0.00000    33.47200     0.00000  0.0
    475    477    476    499   5     0.00000     8.36800     0.00000  0.0
    476    478    477    483   5     0.00000    33.47200     0.00000  0.0
    477    479    478    500   5     0.00000     9.20480     0.00000  0.0
    478    480    479    501   5     0.00000     9.20480     0.00000  0.0
    479    481    480    482   5     0.00000    33.47200     0.00000  0.0
    480    483    482    504   5     0.00000     9.20480     0.00000  0.0
    477    482    483    505   5     0.00000     9.20480     0.00000  0.0
    475    485    484    506   5     0.00000     9.20480     0.00000  0.0
    472    484    485    507   5     0.00000     9.20480     0.00000  0.0
    470    487    486    508   5     0.00000     9.20480     0.00000  0.0
    467    486    487    509   5     0.00000     9.20480     0.00000  0.0
    465    489    488    510   5     0.00000     9.20480     0.00000  0.0
    462    488    489    511   5     0.00000     9.20480     0.00000  0.0
    481    513    512    541   5     0.00000     8.36800     0.00000  0.0
    512    514    513    540   5     0.00000    33.47200     0.00000  0.0
    513    515    514    542   5     0.00000     9.20480     0.00000  0.0
    514    516    515    543   5     0.00000     9.20480     0.00000  0.0
    515    517    516    539   5     0.00000    33.47200     0.00000  0.0
    516    518    517    544   5     0.00000     8.36800     0.00000  0.0
    517    519    518    538   5     0.00000    33.47200     0.00000  0.0
    518    520    519    545   5     0.00000     9.20480     0.00000  0.0
    519    521    520    546   5     0.00000     9.20480     0.00000  0.0
    520    522    521    537   5     0.00000    33.47200     0.00000  0.0
    521    523    522    547   5     0.00000     8.36800     0.00000  0.0
    522    524    523    536   5     0.00000    33.47200     0.00000  0.0
    523    525    524    548   5     0.00000     9.20480     0.00000  0.0
    524    526    525    549   5     0.00000     9.20480     0.00000  0.0
    525    527    526    535   5     0.00000    33.47200     0.00000  0.0
    526    528    527    550   5     0.00000     8.36800     0.00000  0.0
    527    529    528    534   5     0.00000    33.47200     0.00000  0.0
    528    530    529    551   5     0.00000     9.20480     0.00000  0.0
    529    531    530    552   5     0.00000     9.20480     0.00000  0.0
    530    532    531    533   5     0.00000    33.47200     0.00000  0.0
    531    534    533    555   5     0.00000     9.20480     0.00000  0.0
    528    533    534    556   5     0.00000     9.20480     0.00000  0.0
    526    536    535    557   5     0.00000     9.20480     0.00000  0.0
    523    535    536    558   5     0.00000     9.20480     0.00000  0.0
    521    538    537    559   5     0.00000     9.20480     0.00000  0.0
    518    537    538    560   5     0.00000     9.20480     0.00000  0.0
    516    540    539    561   5     0.00000     9.20480     0.00000  0.0
    513    539    540    562   5     0.00000     9.20480     0.00000  0.0
    532    564    563    592   5     0.00000     8.36800     0.00000  0.0
    563    565    564    591   5     0.00000    33.47200     0.00000  0.0
    564    566    565    593   5     0.00000     9.20480     0.00000  0.0
    565    567    566    594   5     0.00000     9.20480     0.00000  0.0
    566    568    567    590   5     0.00000    33.47200     0.00000  0.0
    567    569    568    595   5     0.00000     8.36800     0.00000  0.0
    568    570    569    589   5     0.00000    33.47200     0.00000  0.0
    569    571    570    596   5     0.00000     9.20480     0.00000  0.0
    570    572    571    597   5     0.00000     9.20480     0.00000  0.0
    571    573    572    588   5     0.00000    33.47200     0.00000  0.0
    572    574    573    598   5     0.00000     8.36800     0.00000  0.0
    573    575    574    587   5     0.00000    33.47200     0.00000  0.0
    574    576    575    599   5     0.00000     9.20480     0.00000  0.0
    575    577    576    600   5     0.00000     9.20480     0.00000  0.0
    576    578    577    586   5     0.00000    33.47200     0.00000  0.0
    577    579    578    601   5     0.00000     8.36800     0.00000  0.0
    578    580    579    585   5     0.00000    33.47200     0.00000  0.0
    579    581    580    602   5     0.00000     9.20480     0.00000  0.0
    580    582    581    603   5     0.00000     9.20480     0.00000  0.0
    581    583    582    584   5     0.00000    33.47200     0.00000  0.0
    582    585    584    606   5     0.00000     9.20480     0.00000  0.0
    579    584    585    607   5     0.00000     9.20480     0.00000  0.0
    577    587    586    608   5     0.00000     9.20480     0.00000  0.0
    574    586    587    609   5     0.00000     9.20480     0.00000  0.0
    572    589    588    610   5     0.00000     9.20480     0.00000  0.0
    569    588    589    611   5     0.00000     9.20480     0.00000  0.0
    567    591    590    612   5     0.00000     9.20480     0.00000  0.0
    564    590    591    613   5     0.00000     9.20480     0.00000  0.0
    583    615    614    643   5     0.00000     8.36800     0.00000  0.0
    614    616    615    642   5     0.00000    33.47200     0.00000  0.0
    615    617    616    644   5     0.00000     9.20480     0.00000  0.0
    616    618    617    645   5     0.00000     9.20480     0.00000  0.0
    617    619    618    641   5     0.00000    33.47200     0.00000  0.0
    618    620    619    646   5     0.00000     8.36800     0.00000  0.0
    619    621    620    640   5     0.00000    33.47200     0.00000  0.0
    620    622    621    647   5     0.00000     9.20480     0.00000  0.0
    621    623    622    648   5     0.00000     9.20480     0.00000  0.0
    622    624    623    639   5     0.00000    33.47200     0.00000  0.0
    623    625    624    649   5     0.00000     8.36800     0.00000  0.0
    624    626    625    638   5     0.00000    33.47200     0.00000  0.0
    625    627    626    650   5     0.00000     9.20480     0.00000  0.0
    626    628    627    651   5     0.00000     9.20480     0.00000  0.0
    627    629    628    637   5     0.00000    33.47200     0.00000  0.0
    628    630    629    652   5     0.00000     8.36800     0.00000  0.0
    629    631    630    636   5     0.00000    33.47200     0.00000  0.0
    630    632    631    653   5     0.00000     9.20480     0.00000  0.0
    631    633    632    654   5     0.00000     9.20480     0.00000  0.0
    632    634    633    635   5     0.00000    33.47200     0.00000  0.0
    633    636    635    657   5     0.00000     9.20480     0.00000  0.0
    630    635    636    658   5     0.00000     9.20480     0.00000  0.0
    628    638    637    659   5     0.00000     9.20480     0.00000  0.0
    625    637    638    660   5     0.00000     9.20480     0.00000  0.0
    623    640    639    661   5     0.00000     9.20480     0.00000  0.0
    620    639    640    662   5     0.00000     9.20480     0.00000  0.0
    618    642    641    663   5     0.00000     9.20480     0.00000  0.0
    615    641    642    664   5     0.00000     9.20480     0.00000  0.0
    634    666    665    694   5     0.00000     8.36800     0.00000  0.0
    665    667    666    693   5     0.00000    33.47200     0.00000  0.0
    666    668    667    695   5     0.00000     9.20480     0.00000  0.0
    667    669    668    696   5     0.00000     9.20480     0.00000  0.0
    668    670    669    692   5     0.00000    33.47200     0.00000  0.0
    669    671    670    697   5     0.00000     8.36800     0.00000  0.0
    670    672    671    691   5     0.00000    33.47200     0.00000  0.0
    671    673    672    698   5     0.00000     9.20480     0.00000  0.0
    672    674    673    699   5     0.00000     9.20480     0.00000  0.0
    673    675    674    690   5     0.00000    33.47200     0.00000  0.0
    674    676    675    700   5     0.00000     8.36800     0.00000  0.0
    675    677    676    689   5     0.00000    33.47200     0.00000  0.0
    676    678    677    701   5     0.00000     9.20480     0.00000  0.0
    677    679    678    702   5     0.00000     9.20480     0.00000  0.0
    678    680    679    688   5     0.00000    33.47200     0.00000  0.0
    679    681    680    703   5     0.00000     8.36800     0.00000  0.0
    680    682    681    687   5     0.00000    33.47200     0.00000  0.0
    681    683    682    704   5     0.00000     9.20480     0.00000  0.0
    682    684    683    705   5     0.00000     9.20480     0.00000  0.0
    683    685    684    686   5     0.00000    33.47200     0.00000  0.0
    684    687    686    708   5     0.00000     9.20480     0.00000  0.0
    681    686    687    709   5     0.00000     9.20480     0.00000  0.0
    679    689    688    710   5     0.00000     9.20480     0.00000  0.0
    676    688    689    711   5     0.00000     9.20480     0.00000  0.0
    674    691    690    712   5     0.00000     9.20480     0.00000  0.0
    671    690    691    713   5     0.00000     9.20480     0.00000  0.0
    669    693    692    714   5     0.00000     9.20480     0.00000  0.0
    666    692    693    715   5     0.00000     9.20480     0.00000  0.0
    685    717    716    745   5     0.00000     8.36800     0.00000  0.0
    716    718    717    744   5     0.00000    33.47200     0.00000  0.0
    717    719    718    746   5     0.00000     9.20480     0.00000  0.0
    718    720    719    747   5     0.00000     9.20480     0.00000  0.0
    719    721    720    743   5     0.00000    33.47200     0.00000  0.0
    720    722    721    748   5     0.00000     8.36800     0.00000  0.0
    721    723    722    742   5     0.00000    33.47200     0.00000  0.0
    722    724    723    749   5     0.00000     9.20480     0.00000  0.0
    723    725    724    750   5     0.00000     9.20480     0.00000  0.0
    724    726    725    741   5     0.00000    33.47200     0.00000  0.0
    725    727    726    751   5     0.00000     8.36800     0.00000  0.0
    726    728    727    740   5     0.00000    33.47200     0.00000  0.0
    727    729    728    752   5     0.00000     9.20480     0.00000  0.0
    728    730    729    753   5     0.00000     9.20480     0.00000  0.0
    729    731    730    739   5     0.00000    33.47200     0.00000  0.0
    730    732    731    754   5     0.00000     8.36800     0.00000  0.0
    731    733    732    738   5     0.00000    33.47200     0.00000  0.0
    732    734    733    755   5     0.00000     9.20480     0.00000  0.0
    733    735    734    756   5     0.00000     9.20480     0.00000  0.0
    734    736    735    737   5     0.00000    33.47200     0.00000  0.0
    735    738    737    759   5     0.00000     9.20480     0.00000  0.0
    732    737    738    760   5     0.00000     9.20480     0.00000  0.0
    730    740    739    761   5     0.00000     9.20480     0.00000  0.0
    727    739    740    762   5     0.00000     9.20480     0.00000  0.0
    725    742    741    763   5     0.00000     9.20480     0.00000  0.0
    722    741    742    764   5     0.00000     9.20480     0.00000  0.0
    720    744    743    765   5     0.00000     9.20480     0.00000  0.0
    717    743    744    766   5     0.00000     9.20480     0.00000  0.0
    736    768    767    796   5     0.00000     8.36800     0.00000  0.0
    767    769    768    795   5     0.00000    33.47200     0.00000  0.0
    768    770    769    797   5     0.00000     9.20480     0.00000  0.0
    769    771    770    798   5     0.00000     9.20480     0.00000  0.0
    770    772    771    794   5     0.00000    33.47200     0.00000  0.0
    771    773    772    799   5     0.00000     8.36800     0.00000  0.0
    772    774    773    793   5     0.00000    33.47200     0.00000  0.0
    773    775    774    800   5     0.00000     9.20480     0.00000  0.0
    774    776    775    801   5     0.00000     9.20480     0.00000  0.0
    775    777    776    792   5     0.00000    33.47200     0.00000  0.0
    776    778    777    802   5     0.00000     8.36800     0.00000  0.0
    777    779    778    791   5     0.00000    33.47200     0.00000  0.0
    778    780    779    803   5     0.00000     9.20480     0.00000  0.0
    779    781    780    804   5     0.00000     9.20480     0.00000  0.0
    780    782    781    790   5     0.00000    33.47200     0.00000  0.0
    781    783    782    805   5     0.00000     8.36800     0.00000  0.0
    782    784    783    789   5     0.00000    33.47200     0.00000  0.0
    783    785    784    806   5     0.00000     9.20480     0.00000  0.0
    784    786    785    807   5     0.00000     9.20480     0.00000  0.0
    785    787    786    788   5     0.00000    33.47200     0.00000  0.0
    786    789    788    810   5     0.00000     9.20480     0.00000  0.0
    783    788    789    811   5     0.00000     9.20480     0.00000  0.0
    781    791    790    812   5     0.00000     9.20480     0.00000  0.0
    778    790    791    813   5     0.00000     9.20480     0.00000  0.0
    776    793    792    814   5     0.00000     9.20480     0.00000  0.0
    773    792    793    815   5     0.00000     9.20480     0.00000  0.0
    771    795    794    816   5     0.00000     9.20480     0.00000  0.0
    768    794    795    817   5     0.00000     9.20480     0.00000  0.0
    787    819    818    847   5     0.00000     8.36800     0.00000  0.0
    818    820    819    846   5     0.00000    33.47200     0.00000  0.0
    819    821    820    848   5     0.00000     9.20480     0.00000  0.0
    820    822    821    849   5     0.00000     9.20480     0.00000  0.0
    821    823    822    845   5     0.00000    33.47200     0.00000  0.0
    822    824    823    850   5     0.00000     8.36800     0.00000  0.0
    823    825    824    844   5     0.00000    33.47200     0.00000  0.0
    824    826    825    851   5     0.00000     9.20480     0.00000  0.0
    825    827    826    852   5     0.00000     9.20480     0.00000  0.0
    826    828    827    843   5     0.00000    33.47200     0.00000  0.0
    827    829    828    853   5     0.00000     8.36800     0.00000  0.0
    828    830    829    842   5     0.00000    33.47200     0.00000  0.0
    829    831    830    854   5     0.00000     9.20480     0.00000  0.0
    830    832    831    855   5     0.00000     9.20480     0.00000  0.0
    831    833    832    841   5     0.00000    33.47200     0.00000  0.0
    832    834    833    856   5     0.00000     8.36800     0.00000  0.0
    833    835    834    840   5     0.00000    33.47200     0.00000  0.0
    834    836    835    857   5     0.00000     9.20480     0.00000  0.0
    835    837    836    858   5     0.00000     9.20480     0.00000  0.0
    836    838    837    839   5     0.00000    33.47200     0.00000  0.0
    837    840    839    861   5     0.00000     9.20480     0.00000  0.0
    834    839    840    862   5     0.00000     9.20480     0.00000  0.0
    832    842    841    863   5     0.00000     9.20480     0.00000  0.0
    829    841    842    864   5     0.00000     9.20480     0.00000  0.0
    827    844    843    865   5     0.00000     9.20480     0.00000  0.0
    824    843    844    866   5     0.00000     9.20480     0.00000  0.0
    822    846    845    867   5     0.00000     9.20480     0.00000  0.0
    819    845    846    868   5     0.00000     9.20480     0.00000  0.0
    838    870    869    898   5     0.00000     8.36800     0.00000  0.0
    869    871    870    897   5     0.00000    33.47200     0.00000  0.0
    870    872    871    899   5     0.00000     9.20480     0.00000  0.0
    871    873    872    900   5     0.00000     9.20480     0.00000  0.0
    872    874    873    896   5     0.00000    33.47200     0.00000  0.0
    873    875    874    901   5     0.00000     8.36800     0.00000  0.0
    874    876    875    895   5     0.00000    33.47200     0.00000  0.0
    875    877    876    902   5     0.00000     9.20480     0.00000  0.0
    876    878    877    903   5     0.00000     9.20480     0.00000  0.0
    877    879    878    894   5     0.00000    33.47200     0.00000  0.0
    878    880    879    904   5     0.00000     8.36800     0.00000  0.0
    879    881    880    893   5     0.00000    33.47200     0.00000  0.0
    880    882    881    905   5     0.00000     9.20480     0.00000  0.0
    881    883    882    906   5     0.00000     9.20480     0.00000  0.0
    882    884    883    892   5     0.00000    33.47200     0.00000  0.0
    883    885    884    907   5     0.00000     8.36800     0.00000  0.0
    884    886    885    891   5     0.00000    33.47200     0.00000  0.0
    885    887    886    908   5     0.00000     9.20480     0.00000  0.0
    886    888    887    909   5     0.00000     9.20480     0.00000  0.0
    887    889    888    890   5     0.00000    33.47200     0.00000  0.0
    888    891    890    912   5     0.00000     9.20480     0.00000  0.0
    885    890    891    913   5     0.00000     9.20480     0.00000  0.0
    883    893    892    914   5     0.00000     9.20480     0.00000  0.0
    880    892    893    915   5     0.00000     9.20480     0.00000  0.0
    878    895    894    916   5     0.00000     9.20480     0.00000  0.0
    875    894    895    917   5     0.00000     9.20480     0.00000  0.0
    873    897    896    918   5     0.00000     9.20480     0.00000  0.0
    870    896    897    919   5     0.00000     9.20480     0.00000  0.0
    889    921    920    949   5     0.00000     8.36800     0.00000  0.0
    920    922    921    948   5     0.00000    33.47200     0.00000  0.0
    921    923    922    950   5     0.00000     9.20480     0.00000  0.0
    922    924    923    951   5     0.00000     9.20480     0.00000  0.0
    923    925    924    947   5     0.00000    33.47200     0.00000  0.0
    924    926    925    952   5     0.00000     8.36800     0.00000  0.0
    925    927    926    946   5     0.00000    33.47200     0.00000  0.0
    926    928    927    953   5     0.00000     9.20480     0.00000  0.0
    927    929    928    954   5     0.00000     9.20480     0.00000  0.0
    928    930    929    945   5     0.00000    33.47200     0.00000  0.0
    929    931    930    955   5     0.00000     8.36800     0.00000  0.0
    930    932    931    944   5     0.00000    33.47200     0.00000  0.0
    931    933    932    956   5     0.00000     9.20480     0.00000  0.0
    932    934    933    957   5     0.00000     9.20480     0.00000  0.0
    933    935    934    943   5     0.00000    33.47200     0.00000  0.0
    934    936    935    958   5     0.00000     8.36800     0.00000  0.0
    935    937    936    942   5     0.00000    33.47200     0.00000  0.0
    936    938    937    959   5     0.00000     9.20480     0.00000  0.0
    937    939    938    960   5     0.00000     9.20480     0.00000  0.0
    938    940    939    941   5     0.00000    33.47200     0.00000  0.0
    939    942    941    963   5     0.00000     9.20480     0.00000  0.0
    936    941    942    964   5     0.00000     9.20480     0.00000  0.0
    934    944    943    965   5     0.00000     9.20480     0.00000  0.0
    931    943    944    966   5     0.00000     9.20480     0.00000  0.0
    929    946    945    967   5     0.00000     9.20480     0.00000  0.0
    926    945    946    968   5     0.00000     9.20480     0.00000  0.0
    924    948    947    969   5     0.00000     9.20480     0.00000  0.0
    921    947    948    970   5     0.00000     9.20480     0.00000  0.0
    940    972    971   1000   5     0.00000     8.36800     0.00000  0.0
    971    973    972    999   5     0.00000    33.47200     0.00000  0.0
    972    974    973   1001   5     0.00000     9.20480     0.00000  0.0
    973    975    974   1002   5     0.00000     9.20480     0.00000  0.0
    974    976    975    998   5     0.00000    33.47200     0.00000  0.0
    975    977    976   1003   5     0.00000     8.36800     0.00000  0.0
    976    978    977    997   5     0.00000    33.47200     0.00000  0.0
    977    979    978   1004   5     0.00000     9.20480     0.00000  0.0
    978    980    979   1005   5     0.00000     9.20480     0.00000  0.0
    979    981    980    996   5     0.00000    33.47200     0.00000  0.0
    980    982    981   1006   5     0.00000     8.36800     0.00000  0.0
    981    983    982    995   5     0.00000    33.47200     0.00000  0.0
    982    984    983   1007   5     0.00000     9.20480     0.00000  0.0
    983    985    984   1008   5     0.00000     9.20480     0.00000  0.0
    984    986    985    994   5     0.00000    33.47200     0.00000  0.0
    985    987    986   1009   5     0.00000     8.36800     0.00000  0.0
    986    988    987    993   5     0.00000    33.47200     0.00000  0.0
    987    989    988   1010   5     0.00000     9.20480     0.00000  0.0
    988    990    989   1011   5     0.00000     9.20480     0.00000  0.0
    989    991    990    992   5     0.00000    33.47200     0.00000  0.0
    990    993    992   1014   5     0.00000     9.20480     0.00000  0.0
    987    992    993   1015   5     0.00000     9.20480     0.00000  0.0
    985    995    994   1016   5     0.00000     9.20480     0.00000  0.0
    982    994    995   1017   5     0.00000     9.20480     0.00000  0.0
    980    997    996   1018   5     0.00000     9.20480     0.00000  0.0
    977    996    997   1019   5     0.00000     9.20480     0.00000  0.0
    975    999    998   1020   5     0.00000     9.20480     0.00000  0.0
    972    998    999   1021   5     0.00000     9.20480     0.00000  0.0
